Title
55513
    1DOPE     N    1   3.642   4.521  17.404  0.1592 -0.1966 -0.6255
    1DOPE   HN1    2   3.602   4.426  17.391 -1.4836  0.5806 -1.7047
    1DOPE   HN2    3   3.740   4.550  17.386  0.0081  1.4226  0.8461
    1DOPE   HN3    4   3.629   4.536  17.506 -1.8548 -3.4082 -0.2685
    1DOPE   C12    5   3.558   4.620  17.333  0.0521  0.3765 -0.2007
    1DOPE  H12A    6   3.612   4.717  17.330 -0.1183  0.4725 -0.1905
    1DOPE  H12B    7   3.463   4.629  17.390  0.4660 -1.1230  0.7793
    1DOPE   C11    8   3.531   4.590  17.178 -0.2645 -0.2306  0.3931
    1DOPE  H11A    9   3.441   4.646  17.143 -1.4875 -1.0660  2.0496
    1DOPE  H11B   10   3.518   4.480  17.166 -0.3317 -0.3038  1.0885
    1DOPE     P   11   3.693   4.578  16.980  0.6853 -0.1765 -0.1053
    1DOPE   O13   12   3.825   4.637  16.953 -0.3010  0.5890 -0.8542
    1DOPE   O14   13   3.582   4.609  16.886 -0.2002 -0.3710 -0.0634
    1DOPE   O11   14   3.705   4.421  17.001  0.0997  0.4143 -0.6511
    1DOPE   O12   15   3.644   4.640  17.106  0.2193 -0.4734 -0.0350
    1DOPE    C1   16   3.594   4.338  16.955 -0.7530 -0.4268  0.2821
    1DOPE    HA   17   3.499   4.395  16.945  0.2481  1.1383 -0.8471
    1DOPE    HB   18   3.569   4.262  17.032 -1.6047  0.7447  1.1928
    1DOPE    C2   19   3.634   4.258  16.829 -0.0248 -0.5454  0.1943
    1DOPE    HS   20   3.726   4.201  16.855 -0.5901 -1.7518 -0.3991
    1DOPE   O21   21   3.650   4.345  16.716 -0.1025 -0.1770  0.1718
    1DOPE   C21   22   3.773   4.397  16.707  0.3692 -0.1536 -0.1745
    1DOPE   O22   23   3.874   4.364  16.766  0.6102 -0.0048 -0.3179
    1DOPE   C22   24   3.761   4.511  16.610 -0.2463  0.4598 -0.2210
    1DOPE   H2R   25   3.762   4.608  16.664 -1.1768  1.1658 -1.4172
    1DOPE   H2S   26   3.668   4.510  16.550  0.4239  2.9819 -1.4185
    1DOPE    C3   27   3.536   4.147  16.807 -0.3452  0.1231 -0.1438
    1DOPE    HX   28   3.436   4.193  16.821  0.4082  1.2544  1.9061
    1DOPE    HY   29   3.534   4.062  16.879  0.0969 -0.3929 -0.7278
    1DOPE   O31   30   3.556   4.091  16.670 -0.0553  0.0145  0.4766
    1DOPE   C31   31   3.451   4.040  16.608  0.1399 -0.6762 -0.6338
    1DOPE   O32   32   3.335   4.039  16.658 -0.3339 -0.0108  0.5317
    1DOPE   C32   33   3.478   3.992  16.467 -0.0539  0.5100  0.1020
    1DOPE   H2X   34   3.542   4.060  16.406 -1.2150  0.3194 -1.3929
    1DOPE   H2Y   35   3.545   3.904  16.458 -0.6922  0.1220 -1.1276
    1DOPE   C23   36   3.888   4.519  16.523  0.3990  0.3932  0.6131
    1DOPE   H3R   37   3.975   4.507  16.590 -1.1733 -0.8757  2.5291
    1DOPE   H3S   38   3.892   4.620  16.477  0.2906  1.5862  3.0616
    1DOPE   C24   39   3.881   4.405  16.417 -0.7042 -0.9470 -0.0920
    1DOPE   H4R   40   3.793   4.417  16.351 -0.8727  1.1922  0.4358
    1DOPE   H4S   41   3.876   4.303  16.461 -0.9145 -0.5777  0.7698
    1DOPE   C25   42   4.004   4.420  16.315  0.6154 -0.7951 -0.2233
    1DOPE   H5R   43   4.095   4.433  16.378  0.5889 -0.0181 -0.3360
    1DOPE   H5S   44   4.011   4.513  16.255 -1.1639 -0.5791 -0.1463
    1DOPE   C26   45   4.023   4.296  16.221  0.1419  0.3700 -0.3062
    1DOPE   H6R   46   4.009   4.209  16.288  0.3200  0.1174 -0.5960
    1DOPE   H6S   47   4.129   4.297  16.187  0.0432  0.0551 -0.6291
    1DOPE   C27   48   3.927   4.268  16.099 -0.3745 -0.4525 -0.6309
    1DOPE   H7R   49   3.821   4.268  16.132 -0.4810 -1.0830 -0.9626
    1DOPE   H7S   50   3.947   4.163  16.068 -0.7129 -0.9986  0.9288
    1DOPE   C28   51   3.944   4.366  15.984  0.6651 -0.5353  0.3472
    1DOPE   H8R   52   3.926   4.469  16.021 -2.0858 -0.4641 -0.9378
    1DOPE   H8S   53   3.866   4.342  15.909  2.0995 -1.5235 -0.8849
    1DOPE   C29   54   4.074   4.361  15.907 -0.3541 -0.1693 -0.0429
    1DOPE   H9R   55   4.155   4.431  15.934  0.1319 -1.1550  1.1443
    1DOPE  C210   56   4.109   4.262  15.821 -0.1548  0.5586  0.8897
    1DOPE  H10R   57   4.205   4.276  15.769 -0.6576 -0.0458 -0.2379
    1DOPE  C211   58   4.026   4.142  15.782  0.8044 -0.4079  0.7763
    1DOPE  H11R   59   3.945   4.129  15.856  0.6806 -0.3024  0.6596
    1DOPE  H11S   60   4.078   4.048  15.811  1.8842 -0.1755 -0.2987
    1DOPE  C212   61   3.974   4.161  15.636 -0.0335  0.8945  0.5879
    1DOPE  H12R   62   4.055   4.178  15.562  1.2807 -0.4461  1.6618
    1DOPE  H12S   63   3.903   4.247  15.637  1.7104  2.4065 -0.4214
    1DOPE  C213   64   3.898   4.034  15.593  0.4839 -0.2203 -0.4041
    1DOPE  H13R   65   3.811   4.018  15.660 -0.6571 -1.4612 -2.1055
    1DOPE  H13S   66   3.962   3.943  15.597 -1.0754 -1.3665 -0.9017
    1DOPE  C214   67   3.850   4.044  15.443 -0.1367  0.9974  0.3519
    1DOPE  H14R   68   3.806   4.144  15.424 -0.2617  0.6150 -1.4935
    1DOPE  H14S   69   3.771   3.971  15.418  1.2810 -0.5262  0.1049
    1DOPE  C215   70   3.966   4.015  15.337 -0.0200  0.1739 -0.2161
    1DOPE  H15R   71   3.987   3.907  15.353  1.0707  0.2073 -1.2673
    1DOPE  H15S   72   4.044   4.083  15.377  0.7070 -0.0338 -1.2372
    1DOPE  C216   73   3.934   4.041  15.187 -0.4174  0.0030  0.2691
    1DOPE  H16R   74   3.895   4.145  15.198 -2.0925 -0.6324  0.6338
    1DOPE  H16S   75   3.845   3.982  15.159  0.8766 -1.5585 -0.6965
    1DOPE  C217   76   4.057   4.034  15.097  0.4996  0.6369 -0.2116
    1DOPE  H17R   77   4.082   3.928  15.074 -1.4361  0.3834 -1.3464
    1DOPE  H17S   78   4.148   4.074  15.146 -0.1228  1.2578  0.4534
    1DOPE  C218   79   4.025   4.093  14.958  0.2289  0.1095 -0.0303
    1DOPE  H18R   80   3.970   4.186  14.983  0.0406 -0.2173  0.7881
    1DOPE  H18S   81   3.952   4.028  14.906  0.3198 -0.4702  0.5581
    1DOPE  H18T   82   4.118   4.102  14.897 -0.5487 -0.7563 -1.3901
    1DOPE   C33   83   3.353   3.974  16.385 -1.0785 -0.2546  0.4050
    1DOPE   H3X   84   3.291   4.066  16.389 -1.1710 -0.3451  1.0222
    1DOPE   H3Y   85   3.287   3.890  16.415 -0.1098 -1.1529  0.0856
    1DOPE   C34   86   3.377   3.948  16.232 -0.0300  0.1705 -0.1015
    1DOPE   H4X   87   3.307   4.017  16.181 -0.7029 -0.9984 -0.7890
    1DOPE   H4Y   88   3.483   3.976  16.215  0.1782 -0.7312 -0.3052
    1DOPE   C35   89   3.351   3.806  16.192  0.1164  0.5729  0.2753
    1DOPE   H5X   90   3.243   3.782  16.185  0.2587 -0.0122 -0.0011
    1DOPE   H5Y   91   3.401   3.733  16.259 -0.7549  0.4829  0.8379
    1DOPE   C36   92   3.403   3.765  16.060  0.5138  0.2735 -0.2365
    1DOPE   H6X   93   3.388   3.658  16.033  2.3857 -0.2010  0.4156
    1DOPE   H6Y   94   3.514   3.768  16.048  0.5591  1.5305  0.3511
    1DOPE   C37   95   3.333   3.850  15.949 -0.1823 -0.5091  0.0044
    1DOPE   H7X   96   3.230   3.886  15.971 -0.1591 -0.0923 -0.5727
    1DOPE   H7Y   97   3.390   3.943  15.933 -3.1285  1.9603  2.6355
    1DOPE   C38   98   3.324   3.779  15.816  0.9761  0.1344 -0.2364
    1DOPE   H8X   99   3.264   3.846  15.750  3.3114  2.3496 -0.2696
    1DOPE   H8Y  100   3.253   3.694  15.826 -0.1766  1.1555  0.5372
    1DOPE   C39  101   3.455   3.727  15.759  0.0346  0.2169 -0.4053
    1DOPE   H9X  102   3.521   3.665  15.821 -1.0402  0.1365  0.6894
    1DOPE  C310  103   3.498   3.755  15.632 -0.0021 -0.6184 -0.2381
    1DOPE  H10X  104   3.605   3.734  15.616  0.0252 -1.0749  0.5019
    1DOPE  C311  105   3.418   3.833  15.527  0.2962 -0.0740 -0.6487
    1DOPE  H11X  106   3.311   3.854  15.548  0.0965 -0.3815 -1.3416
    1DOPE  H11Y  107   3.456   3.938  15.525 -0.6185  0.3175  1.0075
    1DOPE  C312  108   3.427   3.773  15.392 -0.8776  0.3417 -0.2976
    1DOPE  H12X  109   3.347   3.825  15.334 -1.8490 -0.8730 -0.0925
    1DOPE  H12Y  110   3.399   3.666  15.393  1.7842 -0.4315  1.4328
    1DOPE  C313  111   3.560   3.795  15.316 -0.0791  0.3194 -0.0637
    1DOPE  H13X  112   3.586   3.903  15.314 -1.4126  0.6489 -0.6100
    1DOPE  H13Y  113   3.632   3.739  15.379 -0.4268  1.1394  1.0974
    1DOPE  C314  114   3.542   3.752  15.174  0.4169 -0.8936 -0.0270
    1DOPE  H14X  115   3.448   3.796  15.133  0.9577 -1.4269 -1.9216
    1DOPE  H14Y  116   3.540   3.641  15.164 -0.1074 -0.8010 -1.0487
    1DOPE  C315  117   3.654   3.809  15.085  0.2666  0.1860 -0.2500
    1DOPE  H15X  118   3.754   3.772  15.118 -0.2916 -1.0195  0.1597
    1DOPE  H15Y  119   3.660   3.919  15.095  1.5338  0.3853 -2.5473
    1DOPE  C316  120   3.631   3.790  14.935  0.3017  0.9749  0.1921
    1DOPE  H16X  121   3.605   3.686  14.909 -0.9680  1.9940 -3.0969
    1DOPE  H16Y  122   3.726   3.812  14.881  0.5869 -0.6070  0.0107
    1DOPE  C317  123   3.515   3.866  14.871  0.1492 -0.8423  0.1330
    1DOPE  H17X  124   3.417   3.845  14.918  0.3009 -1.9729 -0.0201
    1DOPE  H17Y  125   3.528   3.973  14.896  2.1529 -1.3648  1.6064
    1DOPE  C318  126   3.492   3.857  14.720  0.1964  0.3769 -0.4069
    1DOPE  H18X  127   3.461   3.755  14.692  0.0191  0.6757 -1.3450
    1DOPE  H18Y  128   3.414   3.929  14.689  3.3495  3.7768 -1.2633
    1DOPE  H18Z  129   3.585   3.884  14.664 -0.2690 -1.9025 -2.4559
    2DOPE     N  130   4.512   4.981  17.119 -0.0115  1.0909  0.5116
    2DOPE   HN1  131   4.573   4.939  17.046 -2.5620  0.8696 -1.6838
    2DOPE   HN2  132   4.477   5.072  17.083  1.6169  1.5500 -0.0179
    2DOPE   HN3  133   4.553   4.994  17.213  1.3164  3.5507 -0.2973
    2DOPE   C12  134   4.388   4.893  17.122 -0.4253 -0.3604 -0.8564
    2DOPE  H12A  135   4.342   4.910  17.022  0.8596  1.3701 -1.2129
    2DOPE  H12B  136   4.327   4.927  17.208 -1.1087 -1.5511 -0.8573
    2DOPE   C11  137   4.425   4.741  17.139 -0.1726 -0.3317 -0.5386
    2DOPE  H11A  138   4.480   4.717  17.046  0.3136 -2.1923  0.1743
    2DOPE  H11B  139   4.333   4.679  17.133 -0.7369  0.5039 -0.7173
    2DOPE     P  140   4.487   4.607  17.368  0.0360 -0.0862  0.0705
    2DOPE   O13  141   4.341   4.611  17.401 -0.2084  0.2646  0.0827
    2DOPE   O14  142   4.592   4.627  17.473  0.7449  0.2734 -0.2240
    2DOPE   O11  143   4.517   4.471  17.290 -0.4142  0.3684 -0.1911
    2DOPE   O12  144   4.507   4.721  17.261  0.4802  0.3781 -0.3775
    2DOPE    C1  145   4.642   4.469  17.215  0.2792  0.0881  0.5969
    2DOPE    HA  146   4.734   4.464  17.277  1.4672 -1.0697 -1.1395
    2DOPE    HB  147   4.639   4.559  17.150  1.5800  0.8413  1.5373
    2DOPE    C2  148   4.644   4.345  17.118 -0.7434 -0.3583  0.3637
    2DOPE    HS  149   4.737   4.346  17.057  0.2378 -1.5468  1.7725
    2DOPE   O21  150   4.526   4.345  17.034  0.2515 -0.5887  0.0561
    2DOPE   C21  151   4.525   4.434  16.935 -0.3729  0.4014  0.5275
    2DOPE   O22  152   4.614   4.508  16.905  0.1518  0.0857  0.8173
    2DOPE   C22  153   4.391   4.417  16.861  0.3501 -0.0812  0.2774
    2DOPE   H2R  154   4.343   4.517  16.871 -2.3434 -1.4871  4.4057
    2DOPE   H2S  155   4.317   4.349  16.910  1.2914 -0.6647  0.9136
    2DOPE    C3  156   4.650   4.207  17.200  0.0542 -1.0454  0.7893
    2DOPE    HX  157   4.550   4.193  17.247 -0.8028 -0.8285 -0.8671
    2DOPE    HY  158   4.730   4.219  17.276  2.6984  0.4443 -2.0101
    2DOPE   O31  159   4.664   4.088  17.117 -0.3167 -0.2049  0.0964
    2DOPE   C31  160   4.787   4.061  17.076  0.3503 -0.5555 -0.0865
    2DOPE   O32  161   4.881   4.138  17.084 -0.0853 -0.1627  0.2305
    2DOPE   C32  162   4.783   3.930  16.998 -0.3354 -0.9684 -0.1951
    2DOPE   H2X  163   4.889   3.897  16.988 -1.4060 -4.7654 -0.6761
    2DOPE   H2Y  164   4.719   3.845  17.028 -1.2662 -0.8643 -1.7671
    2DOPE   C23  165   4.420   4.370  16.720 -0.3917 -0.7126  0.4496
    2DOPE   H3R  166   4.487   4.281  16.720  0.3023 -0.2130 -0.1703
    2DOPE   H3S  167   4.489   4.441  16.669  0.2386 -1.1448  0.6816
    2DOPE   C24  168   4.307   4.367  16.620 -0.1142 -0.0703 -0.3952
    2DOPE   H4R  169   4.354   4.373  16.519  0.6367 -0.5425 -0.0858
    2DOPE   H4S  170   4.241   4.455  16.634 -1.2118 -0.9812  0.2991
    2DOPE   C25  171   4.212   4.247  16.618 -0.4784 -0.3600 -0.1768
    2DOPE   H5R  172   4.138   4.258  16.535 -0.7660 -3.6316 -0.4987
    2DOPE   H5S  173   4.159   4.242  16.715 -3.1945 -2.3353 -1.6136
    2DOPE   C26  174   4.281   4.116  16.587  0.6863  0.5240  0.5887
    2DOPE   H6R  175   4.204   4.037  16.602  0.8577  0.2899  0.2628
    2DOPE   H6S  176   4.358   4.095  16.664  0.9156 -1.1756 -0.0632
    2DOPE   C27  177   4.344   4.103  16.447 -0.4459 -0.8608 -0.2180
    2DOPE   H7R  178   4.436   4.164  16.454  0.3458 -1.9292 -1.0130
    2DOPE   H7S  179   4.284   4.150  16.366  0.9567 -1.0183 -1.3887
    2DOPE   C28  180   4.386   3.957  16.422  0.5923 -0.1567  0.0603
    2DOPE   H8R  181   4.420   3.917  16.520  1.5264  0.1552 -0.1290
    2DOPE   H8S  182   4.475   3.956  16.356  0.0885  0.2477 -0.6371
    2DOPE   C29  183   4.278   3.880  16.359 -0.0333  0.4274 -0.9531
    2DOPE   H9R  184   4.198   3.849  16.428 -0.0062  0.8358 -0.7356
    2DOPE  C210  185   4.276   3.825  16.245 -0.0998 -0.3327  0.5933
    2DOPE  H10R  186   4.193   3.763  16.206  1.7901 -1.7438 -1.4498
    2DOPE  C211  187   4.378   3.843  16.135  0.1131  0.3082 -0.3369
    2DOPE  H11R  188   4.349   3.781  16.048  2.1314  1.3253 -1.8343
    2DOPE  H11S  189   4.482   3.820  16.167  1.5812  3.9032 -1.9713
    2DOPE  C212  190   4.383   3.993  16.090  0.4439  0.5592  0.3215
    2DOPE  H12R  191   4.426   4.064  16.164  1.0337  0.9694 -0.3956
    2DOPE  H12S  192   4.277   4.021  16.076  0.3455  0.6349  1.1643
    2DOPE  C213  193   4.473   4.019  15.965 -0.5718 -0.5135  0.5027
    2DOPE  H13R  194   4.566   3.958  15.972 -0.9578 -1.1820 -0.0537
    2DOPE  H13S  195   4.489   4.128  15.954  0.9796 -0.6047  1.4688
    2DOPE  C214  196   4.411   3.970  15.838 -0.1411 -0.4001 -0.3883
    2DOPE  H14R  197   4.306   4.008  15.837 -0.9052 -2.4310 -1.3426
    2DOPE  H14S  198   4.411   3.860  15.847 -1.7460 -0.4543 -0.6733
    2DOPE  C215  199   4.488   4.007  15.708  0.1130 -0.8779 -0.0873
    2DOPE  H15R  200   4.577   3.941  15.699  1.0665  0.2591  0.6732
    2DOPE  H15S  201   4.512   4.116  15.716  1.4917 -1.1617 -0.1155
    2DOPE  C216  202   4.405   3.991  15.583  0.2254  1.0791 -0.1448
    2DOPE  H16R  203   4.313   4.053  15.585 -1.1364 -0.8871  1.0726
    2DOPE  H16S  204   4.371   3.885  15.587  2.3772  0.3546  0.6598
    2DOPE  C217  205   4.487   4.029  15.462 -0.4968  0.1266  0.4568
    2DOPE  H17R  206   4.585   3.976  15.466 -0.2765  0.5541  0.8467
    2DOPE  H17S  207   4.505   4.138  15.470 -0.6163  0.1268  0.7242
    2DOPE  C218  208   4.422   3.996  15.330 -0.1807 -0.3841 -0.8496
    2DOPE  H18R  209   4.330   4.057  15.319  1.0349  1.8641  0.6290
    2DOPE  H18S  210   4.395   3.889  15.339 -1.5563 -0.0207 -0.4400
    2DOPE  H18T  211   4.481   4.019  15.239  0.6736  0.8646 -0.0135
    2DOPE   C33  212   4.731   3.963  16.855 -0.0224  0.0548 -0.1359
    2DOPE   H3X  213   4.627   4.001  16.845 -0.0165  0.1316  0.0874
    2DOPE   H3Y  214   4.721   3.860  16.815  1.7390 -0.5153  0.7830
    2DOPE   C34  215   4.826   4.046  16.776 -0.3095 -0.0841  0.8034
    2DOPE   H4X  216   4.841   4.143  16.827  0.6613  0.9436 -1.3433
    2DOPE   H4Y  217   4.919   3.986  16.765 -0.6088 -0.4896  0.4575
    2DOPE   C35  218   4.773   4.076  16.630 -0.0090 -0.0452 -0.0462
    2DOPE   H5X  219   4.668   4.111  16.641  0.0392  0.0525  0.1089
    2DOPE   H5Y  220   4.762   3.981  16.575 -1.2930 -0.7199  1.3048
    2DOPE   C36  221   4.863   4.169  16.556 -0.7253 -0.0530 -0.1823
    2DOPE   H6X  222   4.963   4.126  16.532 -0.7565 -0.4927  0.4636
    2DOPE   H6Y  223   4.879   4.265  16.610 -0.6244 -0.4782  0.5551
    2DOPE   C37  224   4.793   4.210  16.419 -0.4478  0.2484  0.2459
    2DOPE   H7X  225   4.685   4.195  16.438 -0.7019 -0.8175 -1.7912
    2DOPE   H7Y  226   4.816   4.316  16.399  2.6500 -0.4243 -0.2275
    2DOPE   C38  227   4.844   4.136  16.296 -0.4405  0.4585 -0.5277
    2DOPE   H8X  228   4.817   4.029  16.304  1.5422  0.0202  1.2554
    2DOPE   H8Y  229   4.954   4.154  16.290 -0.5835  1.5448 -0.1856
    2DOPE   C39  230   4.788   4.198  16.174 -0.0809 -0.2469  0.2854
    2DOPE   H9X  231   4.700   4.261  16.188 -1.7352 -2.5056  0.6842
    2DOPE  C310  232   4.813   4.157  16.046 -0.1492  0.2382  0.2053
    2DOPE  H10X  233   4.756   4.205  15.965  1.7293 -0.5671 -1.6577
    2DOPE  C311  234   4.901   4.046  16.003  0.5382  0.0116 -0.0528
    2DOPE  H11X  235   4.962   4.008  16.088  0.1634 -1.4518 -0.4106
    2DOPE  H11Y  236   4.842   3.965  15.955  1.0807  0.0525 -0.7959
    2DOPE  C312  237   5.002   4.092  15.893  0.2740 -0.2602 -0.2243
    2DOPE  H12X  238   5.068   4.003  15.883  3.3666  1.8062  0.3304
    2DOPE  H12Y  239   5.076   4.166  15.930  0.5611 -0.3378 -0.6446
    2DOPE  C313  240   4.938   4.136  15.760  0.3784  0.7279 -0.5453
    2DOPE  H13X  241   4.864   4.058  15.735 -1.6369  1.6011  2.1896
    2DOPE  H13Y  242   4.879   4.227  15.784 -0.5947 -0.1958  0.7265
    2DOPE  C314  243   5.049   4.164  15.663 -0.1663  0.8235  0.8179
    2DOPE  H14X  244   5.129   4.088  15.678  0.1243  0.6145 -1.3951
    2DOPE  H14Y  245   5.109   4.253  15.690  2.9556 -0.7989 -0.2949
    2DOPE  C315  246   5.011   4.163  15.517  0.1981 -0.0945  0.7961
    2DOPE  H15X  247   5.111   4.183  15.472 -1.0344  1.3264 -1.4957
    2DOPE  H15Y  248   4.940   4.242  15.483  0.5440  0.6075  1.6594
    2DOPE  C316  249   4.967   4.028  15.463  0.2034 -0.3898 -0.5001
    2DOPE  H16X  250   4.856   4.026  15.469  0.1692  0.7988 -0.6266
    2DOPE  H16Y  251   5.014   3.954  15.532 -0.2195  1.5717  2.0320
    2DOPE  C317  252   5.011   4.018  15.316  0.5202  0.1890  0.2654
    2DOPE  H17X  253   4.937   3.944  15.280  1.2110 -0.6400  0.5034
    2DOPE  H17Y  254   4.989   4.118  15.274  1.5574  0.5369  0.5195
    2DOPE  C318  255   5.154   3.971  15.298 -0.2146 -0.7593 -0.0930
    2DOPE  H18X  256   5.189   3.983  15.193 -0.7801  1.6924 -0.0639
    2DOPE  H18Y  257   5.222   4.029  15.364  3.3598 -3.0116 -1.5626
    2DOPE  H18Z  258   5.166   3.864  15.324 -0.9364 -0.8935 -0.2689
    3DOPE     N  259   2.139   4.694  16.769 -0.2810  0.8797 -0.1697
    3DOPE   HN1  260   2.129   4.760  16.849 -0.4871 -1.0062  1.4500
    3DOPE   HN2  261   2.045   4.658  16.743  0.4634 -0.8716 -0.5157
    3DOPE   HN3  262   2.184   4.611  16.811 -2.2076 -0.2916 -0.2707
    3DOPE   C12  263   2.228   4.730  16.655 -0.8226 -0.1627  0.3173
    3DOPE  H12A  264   2.191   4.832  16.630 -0.7919  0.0905  1.2646
    3DOPE  H12B  265   2.187   4.665  16.574 -2.1474 -1.1068  1.6922
    3DOPE   C11  266   2.378   4.713  16.688  0.6168 -0.4004  0.8496
    3DOPE  H11A  267   2.441   4.743  16.601 -0.8173  1.1324  0.2927
    3DOPE  H11B  268   2.410   4.607  16.700  0.9849 -0.3669  0.2192
    3DOPE     P  269   2.416   4.951  16.797 -0.3047 -0.5036  0.6709
    3DOPE   O13  270   2.527   5.002  16.878 -0.5105 -1.2995  0.5785
    3DOPE   O14  271   2.281   4.991  16.838  0.1315  0.2470 -0.0403
    3DOPE   O11  272   2.442   4.983  16.646 -0.2219  0.6000 -0.5590
    3DOPE   O12  273   2.421   4.796  16.797  0.2918  0.0557 -0.5687
    3DOPE    C1  274   2.568   5.026  16.601  0.5017  0.0413  0.1103
    3DOPE    HA  275   2.578   4.990  16.496 -2.9081 -1.4596  0.1587
    3DOPE    HB  276   2.650   4.989  16.665 -0.2414  1.0647  1.7272
    3DOPE    C2  277   2.576   5.178  16.601 -0.1852  0.4213 -0.1268
    3DOPE    HS  278   2.595   5.205  16.707 -0.3437  1.9690 -0.4737
    3DOPE   O21  279   2.451   5.239  16.560  0.2386 -0.5149  0.4063
    3DOPE   C21  280   2.427   5.357  16.617  0.5630 -0.5834  0.4245
    3DOPE   O22  281   2.500   5.417  16.693 -0.3639 -0.3559  0.1099
    3DOPE   C22  282   2.295   5.409  16.561  0.2224 -0.6665  0.1832
    3DOPE   H2R  283   2.227   5.447  16.641  1.5972 -0.2543  1.1929
    3DOPE   H2S  284   2.235   5.332  16.509  1.4642 -1.2490 -0.4229
    3DOPE    C3  285   2.700   5.228  16.521  0.3508 -0.6806  0.2718
    3DOPE    HX  286   2.795   5.178  16.549 -0.1504 -2.1160 -0.4982
    3DOPE    HY  287   2.700   5.337  16.540  0.7345 -0.6503  0.1044
    3DOPE   O31  288   2.681   5.199  16.383 -0.0208 -0.1590  0.0348
    3DOPE   C31  289   2.743   5.279  16.295  0.2319  0.3884  0.2467
    3DOPE   O32  290   2.814   5.374  16.330 -0.3678  0.2394  0.0390
    3DOPE   C32  291   2.721   5.222  16.156 -0.5373  0.2033 -0.1984
    3DOPE   H2X  292   2.738   5.113  16.157 -1.3597  0.0663 -0.1665
    3DOPE   H2Y  293   2.614   5.240  16.129 -0.4161  2.7644  0.7296
    3DOPE   C23  294   2.301   5.534  16.461 -0.3018  0.0122 -0.3060
    3DOPE   H3R  295   2.353   5.623  16.503  0.2712  0.1475 -1.2740
    3DOPE   H3S  296   2.199   5.567  16.433 -0.4300  1.5979  1.7506
    3DOPE   C24  297   2.376   5.490  16.334 -0.0794 -0.2608 -0.1287
    3DOPE   H4R  298   2.314   5.412  16.285  0.3691 -1.3775  1.0258
    3DOPE   H4S  299   2.475   5.447  16.362  1.2929  1.3972 -2.1569
    3DOPE   C25  300   2.397   5.603  16.239 -0.0836 -0.4137  0.2942
    3DOPE   H5R  301   2.464   5.684  16.276 -0.0908 -0.0836 -0.4033
    3DOPE   H5S  302   2.296   5.645  16.221  0.6955  0.3697 -2.9401
    3DOPE   C26  303   2.450   5.579  16.095  0.3972 -0.4667 -0.3187
    3DOPE   H6R  304   2.556   5.544  16.100  0.0264 -1.7568 -0.8912
    3DOPE   H6S  305   2.444   5.678  16.046  0.3526  0.1709  0.9505
    3DOPE   C27  306   2.367   5.471  16.021  0.2701  0.3381  0.0217
    3DOPE   H7R  307   2.270   5.456  16.072  0.9271  0.7116  1.4449
    3DOPE   H7S  308   2.414   5.371  16.029  1.0126  0.7896  2.0765
    3DOPE   C28  309   2.340   5.498  15.871  0.2868  0.2314  0.2685
    3DOPE   H8R  310   2.318   5.603  15.843  3.0033  0.2767 -2.1114
    3DOPE   H8S  311   2.248   5.441  15.843  1.9521 -2.6894  0.2913
    3DOPE   C29  312   2.463   5.454  15.785  0.2420  0.3022 -0.1508
    3DOPE   H9R  313   2.552   5.444  15.850  0.8249  2.3443 -0.5558
    3DOPE  C210  314   2.462   5.446  15.655 -0.3298  0.3951  0.1334
    3DOPE  H10R  315   2.557   5.417  15.607  0.0636 -0.7817  1.5631
    3DOPE  C211  316   2.351   5.468  15.562 -0.6694 -0.6252 -0.3940
    3DOPE  H11R  317   2.390   5.520  15.472  0.4451 -1.5043 -0.4308
    3DOPE  H11S  318   2.269   5.537  15.595  1.5251  2.5024 -1.0275
    3DOPE  C212  319   2.293   5.330  15.530  0.4543 -0.2626 -0.7431
    3DOPE  H12R  320   2.199   5.360  15.479  0.8700  1.0162 -0.7858
    3DOPE  H12S  321   2.264   5.267  15.617  0.3791 -0.4321 -0.8892
    3DOPE  C213  322   2.387   5.242  15.431 -0.0122 -0.0476 -0.2712
    3DOPE  H13R  323   2.326   5.150  15.418  1.3786 -0.9143 -0.8862
    3DOPE  H13S  324   2.483   5.202  15.469 -0.3202  0.1940  0.8017
    3DOPE  C214  325   2.401   5.297  15.286 -0.3732 -0.1810 -0.4041
    3DOPE  H14R  326   2.473   5.382  15.281 -0.6040  0.0661  0.2888
    3DOPE  H14S  327   2.300   5.322  15.247  0.2645  1.3334 -1.1767
    3DOPE  C215  328   2.440   5.177  15.195  0.6436 -0.4333 -0.4342
    3DOPE  H15R  329   2.362   5.098  15.203 -1.5839  1.6115 -0.7803
    3DOPE  H15S  330   2.536   5.142  15.239 -0.8064 -2.4638  1.3005
    3DOPE  C216  331   2.463   5.211  15.045  0.3454  0.0962  0.0503
    3DOPE  H16R  332   2.534   5.297  15.041 -0.9372  1.1657 -0.6651
    3DOPE  H16S  333   2.360   5.247  15.021  0.2631  1.8144  2.5421
    3DOPE  C217  334   2.508   5.096  14.970 -0.3308 -0.4043  0.0211
    3DOPE  H17R  335   2.584   5.032  15.020 -1.0954 -2.5449 -1.3967
    3DOPE  H17S  336   2.564   5.130  14.880 -1.7756 -0.4363 -0.9353
    3DOPE  C218  337   2.394   5.005  14.916 -0.1966  0.8232  0.7623
    3DOPE  H18R  338   2.321   5.003  15.000 -0.8078 -0.4819  0.2235
    3DOPE  H18S  339   2.417   4.898  14.897 -0.4681  0.7869  0.6338
    3DOPE  H18T  340   2.361   5.057  14.823 -2.1285  0.7474  1.3670
    3DOPE   C33  341   2.826   5.277  16.058  0.2759  0.2497  0.3914
    3DOPE   H3X  342   2.930   5.269  16.096  0.5875  2.0009 -0.0484
    3DOPE   H3Y  343   2.811   5.383  16.031 -0.2711 -0.1790 -1.1025
    3DOPE   C34  344   2.816   5.207  15.924  0.0363  0.1602 -0.6930
    3DOPE   H4X  345   2.854   5.103  15.928  2.0272  0.8781  2.2080
    3DOPE   H4Y  346   2.718   5.223  15.875 -0.0855 -1.1193 -0.9081
    3DOPE   C35  347   2.920   5.270  15.821 -0.1065 -0.0445 -0.3818
    3DOPE   H5X  348   3.015   5.286  15.877  0.6231 -1.5143 -1.1499
    3DOPE   H5Y  349   2.878   5.368  15.790 -1.0574  0.3906  2.0583
    3DOPE   C36  350   2.937   5.192  15.682 -0.6663  0.0695 -0.4365
    3DOPE   H6X  351   2.982   5.092  15.701  0.0960  0.9563  3.0096
    3DOPE   H6Y  352   3.013   5.252  15.626  0.8857 -2.4771 -1.2386
    3DOPE   C37  353   2.809   5.186  15.602  0.3137  0.0356  0.6216
    3DOPE   H7X  354   2.743   5.116  15.657  0.7366  0.1954  1.3420
    3DOPE   H7Y  355   2.759   5.285  15.597  1.3672  0.5554 -0.0468
    3DOPE   C38  356   2.821   5.130  15.458 -0.0250 -0.0842  0.2658
    3DOPE   H8X  357   2.715   5.104  15.435  0.6142 -2.3764 -0.2764
    3DOPE   H8Y  358   2.871   5.032  15.449  1.7759  0.9612 -2.3551
    3DOPE   C39  359   2.872   5.226  15.351 -0.1689 -0.4981 -0.3300
    3DOPE   H9X  360   2.821   5.322  15.370  1.5960  0.2459  0.9519
    3DOPE  C310  361   2.968   5.213  15.256 -0.4220 -0.4342 -0.0220
    3DOPE  H10X  362   2.975   5.302  15.193 -1.5110  1.1525  1.9763
    3DOPE  C311  363   3.058   5.089  15.242 -0.0896 -0.3552  0.4208
    3DOPE  H11X  364   3.165   5.107  15.220 -0.0955 -0.2985  0.4368
    3DOPE  H11Y  365   3.052   5.032  15.338 -0.0586 -2.0007 -0.5193
    3DOPE  C312  366   3.029   5.009  15.108 -0.2733 -0.0782 -0.0187
    3DOPE  H12X  367   2.925   4.973  15.126 -0.2156  0.7184  2.1300
    3DOPE  H12Y  368   3.091   4.917  15.097 -0.2743  0.0303 -1.0352
    3DOPE  C313  369   3.041   5.086  14.983  0.1395 -0.1597  0.6133
    3DOPE  H13X  370   2.952   5.150  14.961  1.9357  2.2852  0.0196
    3DOPE  H13Y  371   3.127   5.156  14.992  1.4861 -1.8805  1.4933
    3DOPE  C314  372   3.067   4.996  14.863  0.3630 -0.0979  0.1034
    3DOPE  H14X  373   2.972   4.945  14.837  0.7609 -1.2902  0.8694
    3DOPE  H14Y  374   3.155   4.928  14.875  1.0795  0.9269  0.7733
    3DOPE  C315  375   3.108   5.082  14.743 -0.0457  0.0207 -0.2274
    3DOPE  H15X  376   3.186   5.152  14.779 -0.6617  1.4336 -1.5795
    3DOPE  H15Y  377   3.024   5.150  14.718  0.0296 -0.2666 -1.3022
    3DOPE  C316  378   3.165   5.004  14.625 -0.2078 -0.5506 -0.0283
    3DOPE  H16X  379   3.076   4.975  14.565  0.8283 -3.5248 -0.2911
    3DOPE  H16Y  380   3.218   4.917  14.668  1.7818  1.0946  1.0651
    3DOPE  C317  381   3.256   5.076  14.533  0.4881 -0.0949 -0.0767
    3DOPE  H17X  382   3.355   5.091  14.581 -1.3584  0.1079  4.0740
    3DOPE  H17Y  383   3.274   5.027  14.435  0.6224  0.1478 -0.1730
    3DOPE  C318  384   3.194   5.216  14.494  0.4962  1.2433 -0.3548
    3DOPE  H18X  385   3.091   5.204  14.454  0.0842  0.5526  0.8573
    3DOPE  H18Y  386   3.182   5.287  14.578 -1.2755 -0.5595  1.0144
    3DOPE  H18Z  387   3.263   5.257  14.417  1.7158  0.3476  0.2088
    4DOPE     N  388   4.092   3.884  17.217 -0.1756 -0.1520 -0.3494
    4DOPE   HN1  389   4.038   3.912  17.132 -0.0757 -0.3017 -0.4636
    4DOPE   HN2  390   4.193   3.868  17.196 -0.2578  0.8678 -1.6653
    4DOPE   HN3  391   4.061   3.788  17.244 -1.5107  0.9863  2.5861
    4DOPE   C12  392   4.077   3.959  17.346 -0.3375 -0.7665 -0.1207
    4DOPE  H12A  393   4.135   4.053  17.337  0.2891 -0.9810  1.3876
    4DOPE  H12B  394   4.128   3.899  17.425  0.3895  0.3474  0.2744
    4DOPE   C11  395   3.931   3.992  17.384  0.6973 -0.4363 -0.1638
    4DOPE  H11A  396   3.890   4.075  17.322  1.5281  0.6158  0.6485
    4DOPE  H11B  397   3.937   4.024  17.490 -2.7350 -0.0609  0.0440
    4DOPE     P  398   3.692   3.893  17.398 -0.1029  0.1146  0.1313
    4DOPE   O13  399   3.667   4.005  17.492  0.5562  0.4725 -0.0094
    4DOPE   O14  400   3.639   3.763  17.434 -0.0690  0.5668  0.5333
    4DOPE   O11  401   3.630   3.930  17.256  0.4760 -0.1337 -0.5654
    4DOPE   O12  402   3.847   3.874  17.368 -0.5401  0.9658  0.4009
    4DOPE    C1  403   3.702   3.965  17.139  0.4531  0.4056 -0.2071
    4DOPE    HA  404   3.805   4.001  17.163  1.8440 -2.3535 -1.5854
    4DOPE    HB  405   3.657   4.058  17.098 -0.8323 -0.4193 -0.7319
    4DOPE    C2  406   3.706   3.854  17.029  0.3629 -0.3458 -0.2629
    4DOPE    HS  407   3.780   3.778  17.063 -1.7375 -1.9388  0.9706
    4DOPE   O21  408   3.735   3.903  16.903  0.1572 -0.6093  0.5654
    4DOPE   C21  409   3.869   3.931  16.896  0.0083 -0.8334 -0.4050
    4DOPE   O22  410   3.951   3.915  16.982 -0.0825  0.0111  0.2530
    4DOPE   C22  411   3.917   3.998  16.764 -0.1794 -0.1814  0.5924
    4DOPE   H2R  412   4.026   4.013  16.782 -0.5974 -0.1394  3.6462
    4DOPE   H2S  413   3.871   4.098  16.749 -0.2178 -0.2019  0.5761
    4DOPE    C3  414   3.580   3.763  17.022 -0.6014 -0.0120 -0.1786
    4DOPE    HX  415   3.499   3.820  16.973  0.3567  0.6631 -1.0176
    4DOPE    HY  416   3.563   3.726  17.126  0.6640 -2.9582 -0.9201
    4DOPE   O31  417   3.612   3.645  16.950  0.6867  0.2383 -0.0618
    4DOPE   C31  418   3.555   3.627  16.833  0.3929 -0.4505 -0.0542
    4DOPE   O32  419   3.463   3.695  16.788 -0.5969  0.2808  0.9304
    4DOPE   C32  420   3.628   3.514  16.765  0.1609 -0.6154  0.6083
    4DOPE   H2X  421   3.736   3.535  16.775 -0.2221  2.3414 -0.4176
    4DOPE   H2Y  422   3.609   3.418  16.818 -0.8962 -0.6093  0.2834
    4DOPE   C23  423   3.901   3.899  16.639  0.0296  0.3481 -0.7512
    4DOPE   H3R  424   3.815   3.831  16.651 -1.1262  1.6857 -1.1727
    4DOPE   H3S  425   3.989   3.831  16.641 -0.8101 -0.7881 -1.7777
    4DOPE   C24  426   3.907   3.965  16.500  0.0217  0.3073 -0.9773
    4DOPE   H4R  427   3.998   4.025  16.478 -0.3160  1.0382 -0.4479
    4DOPE   H4S  428   3.824   4.040  16.490  0.3517  0.5432 -2.1285
    4DOPE   C25  429   3.889   3.857  16.387  0.0030  0.1254  0.2035
    4DOPE   H5R  430   3.800   3.795  16.410  0.6720 -0.3965  1.5104
    4DOPE   H5S  431   3.983   3.797  16.392 -0.1717 -0.0777  1.8659
    4DOPE   C26  432   3.874   3.920  16.248  0.1608  0.5762  0.2612
    4DOPE   H6R  433   3.969   3.974  16.231 -0.1566  0.7096 -1.2849
    4DOPE   H6S  434   3.789   3.990  16.258 -2.5547 -2.1483 -1.6850
    4DOPE   C27  435   3.828   3.815  16.139 -0.4009 -0.3165 -0.1334
    4DOPE   H7R  436   3.722   3.784  16.149 -0.7774  1.2925  1.3182
    4DOPE   H7S  437   3.897   3.731  16.162  1.8343  1.5692  0.4500
    4DOPE   C28  438   3.872   3.863  15.997  0.0934 -0.1211  0.1506
    4DOPE   H8R  439   3.983   3.874  16.000 -0.0156  0.8690  2.5691
    4DOPE   H8S  440   3.832   3.964  15.973 -0.3496 -0.3866 -0.2632
    4DOPE   C29  441   3.810   3.767  15.901  0.5100 -0.1150  0.4287
    4DOPE   H9R  442   3.702   3.784  15.890  0.8553  3.6194  1.3034
    4DOPE  C210  443   3.874   3.670  15.833  0.1907 -0.4113  0.2289
    4DOPE  H10R  444   3.822   3.618  15.751  1.1891  1.9143 -2.0166
    4DOPE  C211  445   4.022   3.641  15.834  0.4804  0.4170  0.2894
    4DOPE  H11R  446   4.034   3.531  15.830 -0.5044  0.2783  0.8224
    4DOPE  H11S  447   4.054   3.673  15.936 -0.3157  0.2392  0.6040
    4DOPE  C212  448   4.116   3.689  15.718  0.7620  0.0998  0.4433
    4DOPE  H12R  449   4.211   3.658  15.767  1.4063 -0.0221 -0.8455
    4DOPE  H12S  450   4.101   3.799  15.712 -2.2742 -0.2161  0.2930
    4DOPE  C213  451   4.101   3.616  15.583  0.0795 -0.6229 -0.2452
    4DOPE  H13R  452   3.991   3.605  15.568  0.0802 -0.0119 -0.7186
    4DOPE  H13S  453   4.135   3.512  15.604  0.0818 -0.4175  0.8407
    4DOPE  C214  454   4.179   3.695  15.469  0.0339 -0.0517 -0.4179
    4DOPE  H14R  455   4.289   3.705  15.479 -0.1537  1.7431  0.2546
    4DOPE  H14S  456   4.139   3.798  15.466  0.8690  0.3304  0.8766
    4DOPE  C215  457   4.155   3.620  15.338 -0.4096 -0.4099 -0.1585
    4DOPE  H15R  458   4.052   3.613  15.298  0.6739 -0.2716 -3.2780
    4DOPE  H15S  459   4.204   3.520  15.345  1.1459  0.2136 -1.4956
    4DOPE  C216  460   4.228   3.691  15.224 -0.5860 -0.5360  0.3881
    4DOPE  H16R  461   4.339   3.694  15.220 -0.6400  1.0546 -0.3108
    4DOPE  H16S  462   4.197   3.797  15.220 -1.2459 -0.7296  0.2748
    4DOPE  C217  463   4.189   3.630  15.079 -0.5536  0.5784  0.0127
    4DOPE  H17R  464   4.102   3.679  15.031 -0.8298 -0.0219 -0.1098
    4DOPE  H17S  465   4.181   3.522  15.103  1.8496  0.4208  0.3635
    4DOPE  C218  466   4.309   3.640  14.977 -0.4815 -0.0077 -0.6043
    4DOPE  H18R  467   4.287   3.568  14.895 -0.1544 -0.2874 -0.4467
    4DOPE  H18S  468   4.404   3.607  15.024 -0.3843  1.7848  0.5784
    4DOPE  H18T  469   4.320   3.747  14.950 -1.8780  0.5882  0.9607
    4DOPE   C33  470   3.581   3.479  16.621 -0.3922  0.3629 -0.4560
    4DOPE   H3X  471   3.472   3.459  16.615 -0.6341  1.7068 -0.8007
    4DOPE   H3Y  472   3.631   3.386  16.586  2.2124 -0.1127  3.7018
    4DOPE   C34  473   3.632   3.587  16.521  0.2553 -0.9208 -0.5730
    4DOPE   H4X  474   3.564   3.671  16.546 -0.0496 -0.7949 -1.7592
    4DOPE   H4Y  475   3.740   3.607  16.535  0.5054 -2.0313 -0.8297
    4DOPE   C35  476   3.596   3.559  16.377 -0.3917 -0.0286  1.1711
    4DOPE   H5X  477   3.595   3.655  16.320 -1.3586 -0.2783  0.7541
    4DOPE   H5Y  478   3.493   3.518  16.373 -0.1243 -0.6215  0.4012
    4DOPE   C36  479   3.691   3.458  16.302 -0.0949  0.5230  0.2048
    4DOPE   H6X  480   3.715   3.374  16.370 -1.3329 -1.4853 -1.7226
    4DOPE   H6Y  481   3.781   3.519  16.278 -0.2025  1.9100  2.8795
    4DOPE   C37  482   3.630   3.400  16.174 -0.3216  0.6800  0.6877
    4DOPE   H7X  483   3.536   3.349  16.206 -0.2477 -0.1637 -0.3641
    4DOPE   H7Y  484   3.599   3.483  16.107 -0.4203 -0.0751 -0.2413
    4DOPE   C38  485   3.722   3.299  16.096  0.5316 -0.1010 -0.3343
    4DOPE   H8X  486   3.762   3.228  16.171 -2.1114  2.0520  3.4504
    4DOPE   H8Y  487   3.824   3.336  16.070  0.9268 -0.1612  1.0743
    4DOPE   C39  488   3.654   3.230  15.981 -0.0310 -0.2716  0.1005
    4DOPE   H9X  489   3.549   3.205  15.996  0.2365 -1.4668  0.0461
    4DOPE  C310  490   3.705   3.197  15.860 -0.3154 -0.3040  0.3668
    4DOPE  H10X  491   3.647   3.129  15.796 -0.6930  1.0583 -0.7678
    4DOPE  C311  492   3.850   3.220  15.811  0.8996 -0.0850  0.2767
    4DOPE  H11X  493   3.893   3.288  15.888 -4.3775  2.3616  1.5782
    4DOPE  H11Y  494   3.903   3.124  15.824 -0.0966 -0.9584 -1.7224
    4DOPE  C312  495   3.861   3.290  15.676 -0.2399  0.6316  0.8555
    4DOPE  H12X  496   3.958   3.343  15.670  0.2579 -0.4261 -1.8711
    4DOPE  H12Y  497   3.790   3.373  15.657 -0.5364  0.5409  1.5468
    4DOPE  C313  498   3.861   3.186  15.566  0.4626 -0.5392 -0.4976
    4DOPE  H13X  499   3.928   3.099  15.586 -1.1670 -1.8270 -0.4614
    4DOPE  H13Y  500   3.758   3.144  15.559  0.6427 -0.9935 -0.4760
    4DOPE  C314  501   3.911   3.242  15.429  0.4829  0.2259  0.0114
    4DOPE  H14X  502   3.911   3.151  15.365  1.9022  1.4737 -1.9122
    4DOPE  H14Y  503   4.017   3.276  15.440  0.8361 -0.4056 -1.1580
    4DOPE  C315  504   3.835   3.352  15.362 -0.1803  0.0131 -1.0358
    4DOPE  H15X  505   3.849   3.443  15.424  1.2012 -1.1907  0.4943
    4DOPE  H15Y  506   3.730   3.319  15.381  0.0990  0.2441  1.2695
    4DOPE  C316  507   3.863   3.361  15.212  0.1927  0.0643  0.7232
    4DOPE  H16X  508   3.814   3.272  15.166 -1.1965 -0.5285  3.1332
    4DOPE  H16Y  509   3.973   3.370  15.203  0.3255 -2.0541 -0.3051
    4DOPE  C317  510   3.790   3.474  15.145  0.2915  0.1166  0.8668
    4DOPE  H17X  511   3.681   3.478  15.168  0.3492  0.0474  1.1649
    4DOPE  H17Y  512   3.836   3.570  15.177  1.1578  0.0386 -0.0739
    4DOPE  C318  513   3.809   3.477  14.991 -0.0538  0.3461 -0.2651
    4DOPE  H18X  514   3.746   3.400  14.942  0.6140  0.0153 -0.6214
    4DOPE  H18Y  515   3.795   3.575  14.941  3.1794 -0.5665 -3.4212
    4DOPE  H18Z  516   3.916   3.460  14.969  0.1797 -0.1544  1.1567
    5DOPE     N  517   2.008   5.598  16.885 -0.0269  0.7760 -0.7909
    5DOPE   HN1  518   2.032   5.686  16.933  0.2886  0.5920 -0.6119
    5DOPE   HN2  519   2.064   5.526  16.934 -0.8633  2.1856  2.4795
    5DOPE   HN3  520   2.049   5.603  16.790 -0.0496 -2.3203 -1.0822
    5DOPE   C12  521   1.854   5.567  16.871 -0.0205  0.3679  0.6274
    5DOPE  H12A  522   1.819   5.531  16.970 -0.5741  1.9836  1.0463
    5DOPE  H12B  523   1.841   5.485  16.796 -1.2679  2.7015 -1.8621
    5DOPE   C11  524   1.777   5.683  16.823 -0.5887 -0.6583  0.3654
    5DOPE  H11A  525   1.800   5.710  16.718 -2.5320  1.4262  0.4161
    5DOPE  H11B  526   1.810   5.774  16.877 -0.1514  0.5654 -1.8202
    5DOPE     P  527   1.556   5.732  16.946  0.4826  0.0014 -0.1799
    5DOPE   O13  528   1.634   5.712  17.071 -0.3037  0.1517 -0.0202
    5DOPE   O14  529   1.419   5.679  16.945 -0.0718 -0.2451 -0.4396
    5DOPE   O11  530   1.560   5.883  16.905 -0.2590 -0.0247 -0.1531
    5DOPE   O12  531   1.637   5.660  16.837 -0.4193  0.5204  0.0486
    5DOPE    C1  532   1.475   5.933  16.795  0.2226  0.2074 -0.8090
    5DOPE    HA  533   1.453   6.040  16.817  0.5783  0.0803  0.2762
    5DOPE    HB  534   1.380   5.876  16.790  0.3062  0.1247 -1.4396
    5DOPE    C2  535   1.543   5.933  16.657 -0.5088  0.3955  0.2408
    5DOPE    HS  536   1.477   5.990  16.589  0.4992  0.9928 -0.2548
    5DOPE   O21  537   1.562   5.805  16.597 -0.5152  0.2382  0.3782
    5DOPE   C21  538   1.449   5.727  16.575  0.6787  0.7109 -0.4736
    5DOPE   O22  539   1.334   5.768  16.581  0.1761  0.0099  0.0931
    5DOPE   C22  540   1.489   5.584  16.541  0.7543 -0.0697  0.1369
    5DOPE   H2R  541   1.411   5.510  16.570 -0.2169  0.5499 -0.8025
    5DOPE   H2S  542   1.585   5.556  16.589  1.5587 -0.9128 -1.8502
    5DOPE    C3  543   1.676   6.009  16.656 -0.0677 -0.2390  0.8161
    5DOPE    HX  544   1.750   5.964  16.726  0.2525  1.8073  1.8564
    5DOPE    HY  545   1.664   6.112  16.695  0.4304  0.6507 -1.2928
    5DOPE   O31  546   1.732   6.021  16.518 -0.4234 -0.0364 -0.8381
    5DOPE   C31  547   1.851   5.957  16.501 -1.0171  0.1375  0.1371
    5DOPE   O32  548   1.921   5.907  16.586  0.0137  0.0568  0.5587
    5DOPE   C32  549   1.880   5.941  16.349  0.0560 -0.0469 -0.1643
    5DOPE   H2X  550   1.790   5.924  16.287  0.9287 -0.2711 -1.4242
    5DOPE   H2Y  551   1.918   6.039  16.311  1.0162 -0.9356 -1.6226
    5DOPE   C23  552   1.513   5.566  16.385  0.2086  0.4222  0.5040
    5DOPE   H3R  553   1.581   5.480  16.374 -1.2062 -0.5246 -1.3321
    5DOPE   H3S  554   1.566   5.660  16.358 -2.4204  1.5565 -1.0313
    5DOPE   C24  555   1.389   5.548  16.296 -0.0044 -0.1584  0.0627
    5DOPE   H4R  556   1.326   5.639  16.306 -0.2205 -0.4243  1.3210
    5DOPE   H4S  557   1.321   5.472  16.341  0.1539 -1.0288 -1.0989
    5DOPE   C25  558   1.431   5.520  16.146 -0.2288  0.0173  0.1892
    5DOPE   H5R  559   1.511   5.592  16.117 -0.3239  0.0192 -0.0716
    5DOPE   H5S  560   1.351   5.555  16.077 -2.3932  0.0183  2.5493
    5DOPE   C26  561   1.481   5.373  16.124  0.1017 -0.5290 -1.1768
    5DOPE   H6R  562   1.394   5.308  16.149  0.5023 -1.6954 -2.6256
    5DOPE   H6S  563   1.558   5.351  16.201  0.2796 -0.8423 -1.4391
    5DOPE   C27  564   1.516   5.335  15.985 -0.4723 -0.0713  0.6336
    5DOPE   H7R  565   1.612   5.380  15.950  0.9085 -2.3998  1.2070
    5DOPE   H7S  566   1.449   5.372  15.904 -0.7632 -0.9513  0.4599
    5DOPE   C28  567   1.541   5.187  15.962  0.4543  0.1125 -0.1036
    5DOPE   H8R  568   1.617   5.149  16.034  1.2854 -1.1030 -1.5461
    5DOPE   H8S  569   1.595   5.177  15.865  0.1716  0.9419 -0.3530
    5DOPE   C29  570   1.427   5.093  15.968 -0.0262 -1.0054  0.2779
    5DOPE   H9R  571   1.372   5.096  16.064  1.0262 -1.2942  0.9126
    5DOPE  C210  572   1.385   5.002  15.884  0.1210  0.9014  0.4314
    5DOPE  H10R  573   1.299   4.943  15.916  1.3575 -1.8322 -0.9256
    5DOPE  C211  574   1.434   4.973  15.749  0.4692  0.6865 -0.1235
    5DOPE  H11R  575   1.409   4.869  15.719  0.8862  0.4504  0.3189
    5DOPE  H11S  576   1.545   4.973  15.742  0.4893 -0.0443  0.1026
    5DOPE  C212  577   1.378   5.078  15.654 -0.2845 -0.6367  0.8375
    5DOPE  H12R  578   1.413   5.180  15.683 -1.1438 -0.1900  0.3554
    5DOPE  H12S  579   1.267   5.075  15.644 -0.0752 -2.0459 -2.1457
    5DOPE  C213  580   1.422   5.051  15.505 -0.1870 -1.1253 -0.4022
    5DOPE  H13R  581   1.384   4.958  15.458  1.5506 -0.7689 -2.6967
    5DOPE  H13S  582   1.533   5.052  15.506 -0.1360 -2.8948 -1.1321
    5DOPE  C214  583   1.380   5.173  15.410  0.0790 -0.1599 -0.0146
    5DOPE  H14R  584   1.269   5.180  15.419  0.0565 -1.8092  1.5264
    5DOPE  H14S  585   1.407   5.142  15.306  0.9492 -0.9915  0.4425
    5DOPE  C215  586   1.445   5.309  15.440 -0.0800  0.0407  0.0609
    5DOPE  H15R  587   1.416   5.326  15.546  0.0752 -1.4635  0.3577
    5DOPE  H15S  588   1.406   5.396  15.383  0.8486  0.7152  0.4105
    5DOPE  C216  589   1.601   5.303  15.439 -0.0284 -0.2075  0.7314
    5DOPE  H16R  590   1.641   5.222  15.504 -0.2623 -1.1916 -0.3101
    5DOPE  H16S  591   1.644   5.391  15.490 -0.9302  0.1945  0.8118
    5DOPE  C217  592   1.676   5.297  15.299 -0.0448  0.1093  1.1910
    5DOPE  H17R  593   1.650   5.194  15.269  0.7097 -0.5749  2.8024
    5DOPE  H17S  594   1.786   5.301  15.312  0.0882  0.5736  0.0108
    5DOPE  C218  595   1.632   5.411  15.210  0.3685  0.1942  0.9816
    5DOPE  H18R  596   1.682   5.406  15.111 -1.0216  0.0373  0.2570
    5DOPE  H18S  597   1.666   5.498  15.269  1.1579 -0.6664  1.8449
    5DOPE  H18T  598   1.521   5.415  15.204  0.3406  0.4225  1.5579
    5DOPE   C33  599   1.990   5.830  16.328 -0.6604 -0.4257  0.2932
    5DOPE   H3X  600   1.949   5.742  16.380 -0.7231  0.2119  1.3547
    5DOPE   H3Y  601   2.086   5.863  16.374 -0.2381  0.0298 -0.8566
    5DOPE   C34  602   2.014   5.808  16.175 -0.4283  0.3044  0.2126
    5DOPE   H4X  603   2.047   5.896  16.116  0.1769 -0.7175 -1.0277
    5DOPE   H4Y  604   2.102   5.740  16.181 -0.7793 -0.1089  0.9281
    5DOPE   C35  605   1.910   5.725  16.102 -0.2594 -0.2837 -0.6986
    5DOPE   H5X  606   1.818   5.786  16.087  0.2087  0.2231 -1.6185
    5DOPE   H5Y  607   1.879   5.643  16.171 -1.8724  0.1688 -0.8417
    5DOPE   C36  608   1.960   5.665  15.969  0.3107  0.0431 -0.4256
    5DOPE   H6X  609   2.051   5.606  15.998 -0.0820 -0.1825  0.3967
    5DOPE   H6Y  610   1.983   5.747  15.898  1.0250  0.1046 -0.1315
    5DOPE   C37  611   1.873   5.551  15.910  0.3388 -0.8755  0.4324
    5DOPE   H7X  612   1.891   5.455  15.963  1.1199  1.2870  4.5421
    5DOPE   H7Y  613   1.768   5.578  15.932  0.6127  0.4740  0.1421
    5DOPE   C38  614   1.890   5.541  15.758 -0.3416  0.7808  0.0202
    5DOPE   H8X  615   1.867   5.436  15.732  1.3580  0.9800 -2.7191
    5DOPE   H8Y  616   1.999   5.556  15.739 -0.1771 -0.7286 -0.3094
    5DOPE   C39  617   1.802   5.638  15.685  0.1347  0.2714  0.1063
    5DOPE   H9X  618   1.693   5.622  15.685 -0.1134  1.8364  0.3390
    5DOPE  C310  619   1.845   5.739  15.609  0.1911  0.1414  0.2939
    5DOPE  H10X  620   1.780   5.800  15.545  0.2090  0.0528  0.1910
    5DOPE  C311  621   1.985   5.783  15.567 -0.6009 -0.0621 -0.5240
    5DOPE  H11X  622   1.981   5.873  15.502 -1.6585  0.4571  0.2231
    5DOPE  H11Y  623   2.045   5.805  15.657  0.2775 -1.8931 -0.6071
    5DOPE  C312  624   2.063   5.680  15.476  0.5351  0.0280  0.3304
    5DOPE  H12X  625   2.076   5.581  15.525  2.8298  0.3652  0.5247
    5DOPE  H12Y  626   2.167   5.720  15.474  0.6845 -0.1342  2.5107
    5DOPE  C313  627   2.012   5.662  15.330 -0.3854 -0.1779 -0.1058
    5DOPE  H13X  628   1.902   5.673  15.333 -0.2472  1.4234 -0.2413
    5DOPE  H13Y  629   2.040   5.751  15.269 -0.1719 -0.0818  0.1303
    5DOPE  C314  630   2.043   5.527  15.272 -0.2613  0.2842  0.7873
    5DOPE  H14X  631   2.015   5.452  15.349  2.3088 -1.1025  0.4947
    5DOPE  H14Y  632   2.154   5.518  15.263  0.0492  3.0271  1.0301
    5DOPE  C315  633   1.985   5.503  15.135 -0.2336  0.3847 -0.7045
    5DOPE  H15X  634   1.880   5.538  15.127  0.1010  1.4469 -0.6463
    5DOPE  H15Y  635   1.990   5.396  15.107 -0.7126 -0.1723  1.1796
    5DOPE  C316  636   2.057   5.571  15.018  0.2280  0.1461  0.0500
    5DOPE  H16X  637   2.052   5.680  15.039 -0.8835  0.0789  0.2199
    5DOPE  H16Y  638   2.006   5.565  14.920  1.4291  1.3337 -0.6793
    5DOPE  C317  639   2.205   5.528  14.994 -0.0547  0.1246  0.2173
    5DOPE  H17X  640   2.233   5.462  15.079  0.4315 -0.3858 -0.3265
    5DOPE  H17Y  641   2.226   5.474  14.899 -0.1573 -0.9398  0.7830
    5DOPE  C318  642   2.302   5.649  14.994 -0.1482 -0.4027  0.8771
    5DOPE  H18X  643   2.405   5.624  14.962  0.0113 -0.0064  1.0754
    5DOPE  H18Y  644   2.268   5.720  14.915 -0.9858 -1.2252  0.4660
    5DOPE  H18Z  645   2.294   5.702  15.091 -2.8185  0.2597  0.3835
    6DOPE     N  646   1.158   5.668  16.996  0.5737 -0.0534  0.1387
    6DOPE   HN1  647   1.072   5.710  16.954 -0.0934 -1.5750 -0.0878
    6DOPE   HN2  648   1.243   5.701  16.946  0.5642 -0.3170 -0.0522
    6DOPE   HN3  649   1.151   5.566  16.978  0.6344 -0.1607  0.7204
    6DOPE   C12  650   1.168   5.686  17.147  0.1698 -0.4069  0.8050
    6DOPE  H12A  651   1.239   5.621  17.202 -1.0429 -0.5912  2.2351
    6DOPE  H12B  652   1.065   5.664  17.184  1.1864 -1.7738  3.0535
    6DOPE   C11  653   1.189   5.838  17.171  0.2225  0.8954 -0.2374
    6DOPE  H11A  654   1.298   5.859  17.165  0.5207  0.2599  1.9590
    6DOPE  H11B  655   1.152   5.860  17.274  1.9161 -1.1058  0.8838
    6DOPE     P  656   1.126   6.076  17.102  0.2609  0.2247 -0.3227
    6DOPE   O13  657   1.240   6.121  17.180  0.5808  0.0842  0.1255
    6DOPE   O14  658   0.995   6.121  17.160 -0.4454 -0.5215 -0.1972
    6DOPE   O11  659   1.140   6.142  16.962  0.1325 -0.0290  0.3546
    6DOPE   O12  660   1.115   5.920  17.074 -0.5859 -0.5064  0.4903
    6DOPE    C1  661   1.036   6.107  16.865  0.2720  0.1715 -0.5213
    6DOPE    HA  662   0.963   6.191  16.864  0.0899  0.0095 -0.6721
    6DOPE    HB  663   0.987   6.009  16.883  0.2444  0.5549  1.9471
    6DOPE    C2  664   1.095   6.103  16.720  0.6088  0.5076  0.5313
    6DOPE    HS  665   1.169   6.020  16.716 -2.9163 -2.8977 -0.4148
    6DOPE   O21  666   1.149   6.230  16.688 -0.0890  0.4379  0.2239
    6DOPE   C21  667   1.252   6.237  16.596 -0.1773  0.1629  0.2505
    6DOPE   O22  668   1.313   6.141  16.551  0.3008  0.8632 -0.4068
    6DOPE   C22  669   1.279   6.388  16.569  0.1563  0.6888 -0.0950
    6DOPE   H2R  670   1.388   6.409  16.569  0.5813 -1.2848 -0.7108
    6DOPE   H2S  671   1.244   6.443  16.659  0.6794  0.7032  0.1057
    6DOPE    C3  672   0.991   6.059  16.610 -0.4374 -0.0297  0.4147
    6DOPE    HX  673   0.909   6.133  16.598 -0.0273  0.4176  0.3795
    6DOPE    HY  674   0.930   5.976  16.653  0.8942 -1.7282 -0.8098
    6DOPE   O31  675   1.064   6.026  16.490  0.3515 -0.5361  0.3911
    6DOPE   C31  676   1.065   5.894  16.453  0.7103  0.0159 -0.1639
    6DOPE   O32  677   1.003   5.811  16.509  0.1932  0.5579  0.2455
    6DOPE   C32  678   1.142   5.875  16.320  0.0466 -0.4366 -0.1460
    6DOPE   H2X  679   1.240   5.832  16.351 -0.3310 -0.8374  0.5089
    6DOPE   H2Y  680   1.092   5.801  16.255  1.6251 -1.1132 -0.6476
    6DOPE   C23  681   1.215   6.446  16.431 -0.2137  1.6444  0.4532
    6DOPE   H3R  682   1.207   6.556  16.439  1.1561  1.6861  1.6649
    6DOPE   H3S  683   1.117   6.392  16.426  1.6248 -1.8869 -0.8771
    6DOPE   C24  684   1.304   6.392  16.314 -0.3917 -0.0066 -0.2839
    6DOPE   H4R  685   1.338   6.288  16.333  0.2468  0.2787  0.1718
    6DOPE   H4S  686   1.393   6.459  16.310 -0.8658  0.6755  0.3463
    6DOPE   C25  687   1.239   6.392  16.173 -0.6675 -0.5740 -0.3115
    6DOPE   H5R  688   1.201   6.493  16.147  0.1208 -0.4446 -1.0066
    6DOPE   H5S  689   1.158   6.317  16.186 -0.8556 -0.2613  0.4122
    6DOPE   C26  690   1.332   6.348  16.057  0.3708  0.6141 -0.2339
    6DOPE   H6R  691   1.373   6.247  16.078  1.5691  0.7417 -1.8000
    6DOPE   H6S  692   1.421   6.413  16.048  2.3199 -1.6178  1.5354
    6DOPE   C27  693   1.246   6.360  15.930 -0.2449 -0.3994 -0.0498
    6DOPE   H7R  694   1.196   6.458  15.916 -1.5065 -1.3443 -2.9880
    6DOPE   H7S  695   1.160   6.290  15.927 -0.5413 -0.0943  0.9203
    6DOPE   C28  696   1.324   6.341  15.794  0.2663 -0.8162  0.2447
    6DOPE   H8R  697   1.245   6.356  15.718  0.1335  3.5900  1.0000
    6DOPE   H8S  698   1.354   6.235  15.780  1.0359 -0.3989 -1.5391
    6DOPE   C29  699   1.447   6.424  15.770  0.5585  0.2305 -0.8086
    6DOPE   H9R  700   1.524   6.433  15.848 -0.7324 -4.0421  1.2612
    6DOPE  C210  701   1.483   6.467  15.648  0.0411  0.0070 -0.3328
    6DOPE  H10R  702   1.577   6.522  15.633  0.2197  0.0269  0.7346
    6DOPE  C211  703   1.418   6.435  15.519  0.1055  0.4780  1.0094
    6DOPE  H11R  704   1.405   6.528  15.460 -0.1825 -0.4255 -0.3964
    6DOPE  H11S  705   1.322   6.380  15.532  0.3547 -0.0081  0.8063
    6DOPE  C212  706   1.517   6.337  15.441  0.0642  0.2788  0.1146
    6DOPE  H12R  707   1.523   6.239  15.493 -3.3548 -0.1351 -0.0734
    6DOPE  H12S  708   1.619   6.379  15.425 -0.0242  0.2651 -0.4820
    6DOPE  C213  709   1.458   6.323  15.301 -0.8712  0.2188 -0.5582
    6DOPE  H13R  710   1.447   6.426  15.262  0.1552  0.1976 -0.9489
    6DOPE  H13S  711   1.354   6.284  15.309 -1.1238  0.9852  0.0270
    6DOPE  C214  712   1.544   6.242  15.202  0.4634  0.0189  0.3151
    6DOPE  H14R  713   1.542   6.135  15.231  0.8199 -0.4923 -1.4364
    6DOPE  H14S  714   1.650   6.274  15.197  0.8958 -1.5431 -1.8090
    6DOPE  C215  715   1.478   6.264  15.066 -0.3111  0.1006  0.6801
    6DOPE  H15R  716   1.479   6.371  15.036  0.5895 -0.4825 -1.5597
    6DOPE  H15S  717   1.374   6.224  15.064 -0.3282  0.0688 -2.5518
    6DOPE  C216  718   1.539   6.173  14.964  0.3438 -0.1849  0.6961
    6DOPE  H16R  719   1.541   6.069  15.003 -0.4290 -0.6713 -0.5153
    6DOPE  H16S  720   1.642   6.208  14.941  1.1375 -2.9223 -0.4263
    6DOPE  C217  721   1.469   6.176  14.834  0.2752 -0.2458  0.3715
    6DOPE  H17R  722   1.472   6.280  14.795  0.0390 -0.5775 -0.5535
    6DOPE  H17S  723   1.360   6.152  14.842  0.5270 -1.1695  1.2106
    6DOPE  C218  724   1.539   6.073  14.736  0.5573 -0.1879 -0.2595
    6DOPE  H18R  725   1.638   6.113  14.706  0.3823 -1.6706 -3.0714
    6DOPE  H18S  726   1.487   6.063  14.639  2.2845 -1.5890 -1.0972
    6DOPE  H18T  727   1.545   5.978  14.794 -1.1561 -0.5559 -0.6517
    6DOPE   C33  728   1.175   6.005  16.242 -0.2002  0.3198  0.1041
    6DOPE   H3X  729   1.242   6.076  16.295 -1.3295  3.0873 -1.9278
    6DOPE   H3Y  730   1.089   6.074  16.230  0.9191  1.5965 -0.8290
    6DOPE   C34  731   1.233   5.974  16.100  0.2335 -0.1675  0.2492
    6DOPE   H4X  732   1.170   5.912  16.033 -0.1050 -0.5051  0.8643
    6DOPE   H4Y  733   1.240   6.072  16.048  2.6091 -0.1743  0.4570
    6DOPE   C35  734   1.376   5.926  16.099  0.0735 -0.3033 -0.5394
    6DOPE   H5X  735   1.372   5.824  16.143  1.2653  0.0929  0.5419
    6DOPE   H5Y  736   1.435   5.981  16.175 -2.0533  1.4019 -0.0358
    6DOPE   C36  737   1.450   5.923  15.965  0.4114  0.0161  0.1161
    6DOPE   H6X  738   1.556   5.893  15.983  1.1511  2.5612  0.4638
    6DOPE   H6Y  739   1.448   6.023  15.918  0.0997 -0.6747 -1.3981
    6DOPE   C37  740   1.392   5.823  15.867  0.3213  0.2695  0.3179
    6DOPE   H7X  741   1.390   5.726  15.921  0.8174  0.2681  0.3380
    6DOPE   H7Y  742   1.288   5.849  15.837  0.1404 -0.5048  0.2523
    6DOPE   C38  743   1.460   5.814  15.730 -0.9515 -0.2352  0.4503
    6DOPE   H8X  744   1.427   5.721  15.678 -0.9145 -1.7177  2.9322
    6DOPE   H8Y  745   1.567   5.804  15.758 -0.0334  2.8817 -1.4408
    6DOPE   C39  746   1.439   5.932  15.634 -0.0433  0.6622  0.3358
    6DOPE   H9X  747   1.460   6.028  15.683  1.5262 -0.1851  1.4112
    6DOPE  C310  748   1.391   5.930  15.503 -0.5995 -0.0957 -0.4078
    6DOPE  H10X  749   1.391   6.023  15.446  3.2046  0.2081 -0.1166
    6DOPE  C311  750   1.378   5.805  15.423  0.8730  0.3446 -0.6668
    6DOPE  H11X  751   1.425   5.711  15.460 -1.6314 -0.5129  0.5493
    6DOPE  H11Y  752   1.270   5.789  15.404  1.1621 -0.2228 -1.9062
    6DOPE  C312  753   1.438   5.828  15.283 -0.5140 -0.6193 -0.5482
    6DOPE  H12X  754   1.406   5.932  15.258 -1.1284 -0.2899  1.4813
    6DOPE  H12Y  755   1.394   5.768  15.200 -2.4118 -0.3199  0.2006
    6DOPE  C313  756   1.595   5.825  15.282  0.3301 -0.5297  0.0239
    6DOPE  H13X  757   1.640   5.886  15.363 -1.2761 -0.6497  1.0624
    6DOPE  H13Y  758   1.621   5.720  15.308  0.7232 -0.1757  1.0997
    6DOPE  C314  759   1.668   5.860  15.153  0.3873 -0.4704  0.4426
    6DOPE  H14X  760   1.779   5.856  15.161  0.4328 -0.4198 -0.1250
    6DOPE  H14Y  761   1.640   5.966  15.133  0.7997 -0.5375 -0.5027
    6DOPE  C315  762   1.634   5.756  15.039 -0.0677 -0.1082  0.3544
    6DOPE  H15X  763   1.537   5.797  15.003  0.4789  1.1224  0.2352
    6DOPE  H15Y  764   1.614   5.652  15.073  0.6082  0.2163  1.8378
    6DOPE  C316  765   1.727   5.762  14.920  0.1820 -0.2027 -0.6267
    6DOPE  H16X  766   1.831   5.744  14.954 -0.2184  0.8436  1.2326
    6DOPE  H16Y  767   1.732   5.869  14.893  2.5788  0.9621  3.6242
    6DOPE  C317  768   1.680   5.699  14.787  0.1177 -0.8716  0.2118
    6DOPE  H17X  769   1.590   5.746  14.744  0.7378  0.1571  0.0158
    6DOPE  H17Y  770   1.764   5.712  14.715 -0.8144 -0.7346 -0.8758
    6DOPE  C318  771   1.642   5.551  14.804  0.6319  0.1125 -0.1709
    6DOPE  H18X  772   1.551   5.536  14.865  0.5656  3.5952  0.7914
    6DOPE  H18Y  773   1.644   5.498  14.706  1.5098 -4.5179  2.1199
    6DOPE  H18Z  774   1.720   5.497  14.860  1.3490 -0.1516 -1.3756
    7DOPE     N  775   4.827   5.496  17.117 -0.3891 -0.4251  0.8963
    7DOPE   HN1  776   4.792   5.548  17.034  1.0287 -1.1603 -0.2129
    7DOPE   HN2  777   4.904   5.557  17.151  0.2724 -1.2153  0.8555
    7DOPE   HN3  778   4.881   5.412  17.087  1.8644 -0.0217  3.4271
    7DOPE   C12  779   4.719   5.490  17.210  0.1251 -0.5799  0.1562
    7DOPE  H12A  780   4.679   5.593  17.210  1.1159 -0.1402 -2.1170
    7DOPE  H12B  781   4.753   5.467  17.314  2.1350  1.5459  0.0344
    7DOPE   C11  782   4.621   5.383  17.155  0.4496 -0.2095 -0.0828
    7DOPE  H11A  783   4.538   5.377  17.229  2.7355 -0.9438  2.5729
    7DOPE  H11B  784   4.672   5.285  17.166  2.6519  1.0517  1.8771
    7DOPE     P  785   4.469   5.341  16.949 -0.2962 -0.0887 -0.2179
    7DOPE   O13  786   4.378   5.444  16.887 -0.0618  0.1282 -0.3892
    7DOPE   O14  787   4.411   5.236  17.038  0.2641  0.3585 -0.7302
    7DOPE   O11  788   4.554   5.266  16.845  0.0155  0.4802  0.1172
    7DOPE   O12  789   4.579   5.419  17.024 -0.2561  0.3114  0.4730
    7DOPE    C1  790   4.672   5.301  16.776  0.1285 -0.3436 -0.0271
    7DOPE    HA  791   4.746   5.220  16.794  0.9526  0.2882 -0.5318
    7DOPE    HB  792   4.715   5.390  16.826  1.9862 -0.4596 -1.3480
    7DOPE    C2  793   4.648   5.315  16.628  0.3291  0.1491  0.2546
    7DOPE    HS  794   4.569   5.393  16.623 -1.3503 -1.4549  0.8980
    7DOPE   O21  795   4.616   5.191  16.563  0.4757  0.3166  0.1723
    7DOPE   C21  796   4.543   5.209  16.459  0.2624 -0.4021  0.2214
    7DOPE   O22  797   4.496   5.316  16.425  0.7173  0.1125  0.4403
    7DOPE   C22  798   4.504   5.077  16.388  0.5848  0.0139  0.6416
    7DOPE   H2R  799   4.395   5.065  16.403  0.5247 -2.2649 -1.0512
    7DOPE   H2S  800   4.559   4.997  16.442  2.2861  1.0558  0.5299
    7DOPE    C3  801   4.773   5.380  16.568  0.2340  0.2377 -0.3419
    7DOPE    HX  802   4.867   5.329  16.595  0.4539  0.3219 -0.9380
    7DOPE    HY  803   4.784   5.479  16.617  0.3350 -0.7910  1.8335
    7DOPE   O31  804   4.760   5.394  16.426  0.1080 -0.7872  0.1991
    7DOPE   C31  805   4.750   5.514  16.369  0.5321  0.0196 -0.5486
    7DOPE   O32  806   4.764   5.620  16.428 -0.1682  0.5053 -0.6523
    7DOPE   C32  807   4.725   5.497  16.221  0.6005  0.6392  0.1481
    7DOPE   H2X  808   4.790   5.418  16.176 -1.5063 -0.1414 -1.7321
    7DOPE   H2Y  809   4.621   5.467  16.196  0.9108 -0.6799  0.3209
    7DOPE   C23  810   4.545   5.074  16.237 -0.1399 -0.4060  0.4593
    7DOPE   H3R  811   4.535   4.971  16.196 -1.5524  0.8046 -2.5514
    7DOPE   H3S  812   4.639   5.129  16.220 -1.5774  2.4194  0.9944
    7DOPE   C24  813   4.445   5.148  16.152 -0.6438 -0.3352 -0.1562
    7DOPE   H4R  814   4.470   5.255  16.168 -0.1766 -0.6452  1.3505
    7DOPE   H4S  815   4.340   5.129  16.181 -1.9387  1.3702 -3.2583
    7DOPE   C25  816   4.457   5.112  16.002  0.4009 -0.7173 -0.4220
    7DOPE   H5R  817   4.416   5.010  15.988 -0.0956 -0.7611  1.1553
    7DOPE   H5S  818   4.563   5.109  15.969  0.5038  3.7878 -1.1620
    7DOPE   C26  819   4.383   5.217  15.911 -0.6540 -0.3503 -0.0449
    7DOPE   H6R  820   4.446   5.309  15.909 -0.9283 -0.1203  1.2271
    7DOPE   H6S  821   4.281   5.234  15.952 -0.9633 -1.1685 -0.4643
    7DOPE   C27  822   4.372   5.170  15.763  0.4494 -0.3623  0.2697
    7DOPE   H7R  823   4.307   5.081  15.749  1.2347 -0.9941  0.5642
    7DOPE   H7S  824   4.471   5.143  15.721  0.6704  0.9284 -0.0777
    7DOPE   C28  825   4.316   5.282  15.669 -0.5266  0.0620 -0.3965
    7DOPE   H8R  826   4.399   5.330  15.613  0.4114 -2.0962 -0.9497
    7DOPE   H8S  827   4.288   5.364  15.739 -0.7137 -0.2968 -0.0459
    7DOPE   C29  828   4.200   5.243  15.579  0.2234  0.2939  0.1030
    7DOPE   H9R  829   4.114   5.204  15.636  0.1489 -0.7495 -0.6786
    7DOPE  C210  830   4.181   5.262  15.447  0.0646  0.1149  0.5935
    7DOPE  H10R  831   4.102   5.212  15.390 -0.1043  0.1631  0.7875
    7DOPE  C211  832   4.280   5.330  15.358  0.2247  0.4026 -0.3264
    7DOPE  H11R  833   4.349   5.256  15.311 -0.8359 -0.7843 -0.0674
    7DOPE  H11S  834   4.340   5.396  15.423 -0.6359 -2.5806  3.8812
    7DOPE  C212  835   4.213   5.420  15.250 -0.5250  0.2484 -0.1382
    7DOPE  H12R  836   4.293   5.487  15.212 -1.1375  1.5687  0.8465
    7DOPE  H12S  837   4.138   5.486  15.299 -0.4327  1.3242 -1.3882
    7DOPE  C213  838   4.162   5.343  15.135  0.3066  0.7853  0.4566
    7DOPE  H13R  839   4.083   5.276  15.177  0.6833  1.2537  1.9648
    7DOPE  H13S  840   4.227   5.273  15.078 -0.6030  1.4240 -1.4312
    7DOPE  C214  841   4.103   5.443  15.034  0.0811  0.5933  0.0849
    7DOPE  H14R  842   4.179   5.498  14.976 -1.7678  1.0964 -2.0175
    7DOPE  H14S  843   4.040   5.519  15.084 -1.4274 -0.5393 -0.0119
    7DOPE  C215  844   4.021   5.357  14.936  0.5509  0.0120  0.0187
    7DOPE  H15R  845   3.919   5.343  14.979 -0.7577 -0.2674 -2.9056
    7DOPE  H15S  846   4.064   5.257  14.917 -0.2076  0.1530 -2.8884
    7DOPE  C216  847   4.004   5.442  14.806 -0.8365  0.0834  0.2150
    7DOPE  H16R  848   4.098   5.489  14.771 -1.2124 -0.5173 -1.7144
    7DOPE  H16S  849   3.948   5.536  14.822  1.3959  1.7648 -1.1751
    7DOPE  C217  850   3.935   5.359  14.699 -0.0784  0.6618  0.1796
    7DOPE  H17R  851   3.841   5.309  14.731 -0.5370 -0.2073 -2.2759
    7DOPE  H17S  852   4.006   5.282  14.661  0.6902  1.6303 -0.3862
    7DOPE  C218  853   3.910   5.442  14.576  0.0857  0.0560 -0.2087
    7DOPE  H18R  854   3.845   5.527  14.606 -1.6135 -1.2471 -0.0539
    7DOPE  H18S  855   3.858   5.377  14.502 -0.9868  1.3978 -0.6949
    7DOPE  H18T  856   3.999   5.488  14.526  0.2206 -0.5455 -0.5289
    7DOPE   C33  857   4.747   5.625  16.144  0.6718  0.0832  0.3324
    7DOPE   H3X  858   4.854   5.646  16.125  0.9081  1.3353  2.6848
    7DOPE   H3Y  859   4.709   5.712  16.202 -0.0443  2.1541 -2.9706
    7DOPE   C34  860   4.663   5.629  16.017 -0.0390 -0.2491  0.3834
    7DOPE   H4X  861   4.555   5.606  16.036 -1.0570  1.4433 -2.6367
    7DOPE   H4Y  862   4.685   5.726  15.969 -1.3353 -0.6521 -1.1499
    7DOPE   C35  863   4.717   5.523  15.914  0.5343 -0.3431  0.1019
    7DOPE   H5X  864   4.662   5.427  15.923 -0.3509  0.2668  1.5206
    7DOPE   H5Y  865   4.826   5.512  15.928  0.5642  0.9788  1.1497
    7DOPE   C36  866   4.690   5.565  15.771  0.5168 -0.0727 -0.0111
    7DOPE   H6X  867   4.758   5.647  15.739 -0.4392  0.9279  0.4473
    7DOPE   H6Y  868   4.591   5.613  15.755 -0.4096 -1.3106  1.6745
    7DOPE   C37  869   4.721   5.454  15.666  0.8004  0.8628 -0.4388
    7DOPE   H7X  870   4.830   5.429  15.663  0.9144  1.2592  0.3102
    7DOPE   H7Y  871   4.661   5.369  15.703 -1.3954  2.2714 -0.6033
    7DOPE   C38  872   4.677   5.498  15.521  0.4993 -0.6747  0.7012
    7DOPE   H8X  873   4.578   5.548  15.516  1.0952  0.7132  2.2667
    7DOPE   H8Y  874   4.668   5.399  15.470 -1.7321 -1.5040  2.5087
    7DOPE   C39  875   4.770   5.595  15.461  1.2515 -1.3208 -0.4832
    7DOPE   H9X  876   4.778   5.689  15.518 -1.8694 -1.2505  0.0267
    7DOPE  C310  877   4.836   5.580  15.343  0.0162  0.4944 -0.2847
    7DOPE  H10X  878   4.906   5.658  15.310 -0.6816  1.4400  0.4338
    7DOPE  C311  879   4.825   5.466  15.252 -0.3356 -0.0678  0.3419
    7DOPE  H11X  880   4.930   5.438  15.227  0.0560 -0.2045  2.0335
    7DOPE  H11Y  881   4.769   5.381  15.297 -0.5483 -0.7077 -1.0623
    7DOPE  C312  882   4.737   5.509  15.132  0.8859  0.2076 -0.5431
    7DOPE  H12X  883   4.786   5.577  15.060  0.3770 -0.4150 -1.5024
    7DOPE  H12Y  884   4.644   5.558  15.168  1.3317 -0.6366  1.9431
    7DOPE  C313  885   4.665   5.396  15.057 -0.0159 -0.1492  0.5975
    7DOPE  H13X  886   4.730   5.332  14.993 -0.4352  0.0483 -0.0352
    7DOPE  H13Y  887   4.625   5.325  15.132 -0.8157  1.8689  2.1699
    7DOPE  C314  888   4.560   5.448  14.964  0.8336 -0.1199  0.2167
    7DOPE  H14X  889   4.606   5.527  14.902 -0.6922 -0.3554 -1.2920
    7DOPE  H14Y  890   4.484   5.504  15.022 -0.1163  0.5920 -1.6287
    7DOPE  C315  891   4.497   5.336  14.875 -0.2382 -0.3802  0.0563
    7DOPE  H15X  892   4.432   5.277  14.943 -0.5046 -0.0027  0.1334
    7DOPE  H15Y  893   4.571   5.266  14.830 -1.0153 -0.1458 -1.6419
    7DOPE  C316  894   4.411   5.369  14.756 -0.2744 -0.4231  0.6848
    7DOPE  H16X  895   4.345   5.452  14.788 -0.3113 -0.1652 -0.0547
    7DOPE  H16Y  896   4.351   5.281  14.725 -0.2409 -1.3181  2.9723
    7DOPE  C317  897   4.495   5.426  14.634  0.4844  0.0893 -0.6419
    7DOPE  H17X  898   4.559   5.508  14.671  0.0016 -0.5198  1.7084
    7DOPE  H17Y  899   4.556   5.352  14.576 -0.5281 -0.5847 -0.8771
    7DOPE  C318  900   4.386   5.487  14.538 -0.3638  0.1262 -0.0765
    7DOPE  H18X  901   4.314   5.403  14.540 -0.3726  0.1265 -0.3632
    7DOPE  H18Y  902   4.329   5.574  14.577  1.4276  1.4496 -0.2760
    7DOPE  H18Z  903   4.421   5.505  14.434 -1.5676 -1.8128 -0.8725
    8DOPE     N  904   3.414   5.769  16.727 -0.1251 -0.0407  0.3798
    8DOPE   HN1  905   3.449   5.862  16.696 -0.0426 -0.2158 -0.0583
    8DOPE   HN2  906   3.457   5.696  16.668 -0.3566 -0.9246  1.2814
    8DOPE   HN3  907   3.310   5.763  16.728 -0.1647  0.5273  1.4136
    8DOPE   C12  908   3.480   5.741  16.858  0.4323 -0.1917  0.2211
    8DOPE  H12A  909   3.421   5.662  16.910 -0.0754 -0.5524 -0.8691
    8DOPE  H12B  910   3.471   5.832  16.921 -0.1648 -2.1348  3.1327
    8DOPE   C11  911   3.631   5.709  16.848 -0.1237  0.8865  0.2341
    8DOPE  H11A  912   3.685   5.737  16.942  2.5897  0.7610 -1.1896
    8DOPE  H11B  913   3.686   5.776  16.778  0.8568  1.2885  1.3311
    8DOPE     P  914   3.664   5.505  16.678 -0.2271  0.2088  0.0921
    8DOPE   O13  915   3.630   5.363  16.675  0.7530 -0.0641  0.2970
    8DOPE   O14  916   3.790   5.549  16.611 -0.2438 -0.0477  0.5708
    8DOPE   O11  917   3.542   5.575  16.594 -0.0971 -0.1936 -0.2894
    8DOPE   O12  918   3.655   5.574  16.820 -0.3438  0.3484  0.0198
    8DOPE    C1  919   3.460   5.496  16.508  0.7915 -0.0665 -0.4773
    8DOPE    HA  920   3.359   5.542  16.504  1.0070  0.6642  1.4094
    8DOPE    HB  921   3.460   5.390  16.541  0.1338  0.3003  0.7923
    8DOPE    C2  922   3.510   5.507  16.365 -0.1612  0.1793 -0.1956
    8DOPE    HS  923   3.426   5.465  16.304  0.5385 -0.4038 -0.7760
    8DOPE   O21  924   3.640   5.442  16.351  0.1886 -0.8216 -0.3350
    8DOPE   C21  925   3.636   5.318  16.343  0.1804  0.1196  0.3794
    8DOPE   O22  926   3.531   5.249  16.337 -0.0093 -0.2587 -0.3411
    8DOPE   C22  927   3.777   5.257  16.333  0.6340 -0.1336 -0.8512
    8DOPE   H2R  928   3.758   5.148  16.347 -1.1081  0.3571  0.9832
    8DOPE   H2S  929   3.833   5.312  16.412 -2.9273  1.3209  0.8690
    8DOPE    C3  930   3.519   5.655  16.319 -0.1095 -0.3357  0.5934
    8DOPE    HX  931   3.595   5.707  16.382 -2.1048 -0.2737  3.1229
    8DOPE    HY  932   3.428   5.711  16.350  0.0647  0.7934 -0.8430
    8DOPE   O31  933   3.541   5.660  16.176 -0.8695  0.0708 -0.1375
    8DOPE   C31  934   3.670   5.681  16.133 -0.4025 -0.1547 -0.1296
    8DOPE   O32  935   3.763   5.702  16.211  0.3317  0.1039 -0.2129
    8DOPE   C32  936   3.674   5.661  15.986  0.0050  0.0822 -0.1561
    8DOPE   H2X  937   3.626   5.565  15.957  0.4009  0.1714 -1.1361
    8DOPE   H2Y  938   3.605   5.739  15.948  0.2923 -0.1470 -1.1922
    8DOPE   C23  939   3.846   5.279  16.194  0.4706 -0.2375 -0.1453
    8DOPE   H3R  940   3.950   5.240  16.194 -0.0482 -1.6613 -0.0778
    8DOPE   H3S  941   3.851   5.389  16.180  2.4229 -0.2406  0.3165
    8DOPE   C24  942   3.778   5.206  16.081  0.0302  0.0945 -0.0350
    8DOPE   H4R  943   3.670   5.231  16.079  0.5205  2.5640  0.9069
    8DOPE   H4S  944   3.780   5.096  16.093 -1.8258  0.0453  0.0766
    8DOPE   C25  945   3.823   5.246  15.942  0.1610  0.0068  0.6995
    8DOPE   H5R  946   3.933   5.235  15.931  0.1749  0.8201 -0.0382
    8DOPE   H5S  947   3.808   5.355  15.926  0.4246 -0.2913 -2.1194
    8DOPE   C26  948   3.738   5.175  15.838  0.0719 -0.0406 -0.2155
    8DOPE   H6R  949   3.635   5.215  15.847 -0.4143  0.0732 -4.2154
    8DOPE   H6S  950   3.752   5.065  15.845  2.3731  0.3080  2.0254
    8DOPE   C27  951   3.774   5.217  15.700 -0.3060  0.1707 -0.4505
    8DOPE   H7R  952   3.881   5.243  15.682 -0.3300  1.9807  1.5887
    8DOPE   H7S  953   3.720   5.313  15.683 -0.6042  0.1158  0.1970
    8DOPE   C28  954   3.724   5.113  15.595 -0.0670 -0.7268 -0.0771
    8DOPE   H8R  955   3.725   5.160  15.494 -1.1264 -1.5016 -0.4668
    8DOPE   H8S  956   3.614   5.096  15.605  0.0060 -3.2295 -2.4959
    8DOPE   C29  957   3.795   4.981  15.582 -0.4277  0.1590  0.3203
    8DOPE   H9R  958   3.827   4.940  15.679  2.9695  1.7549  0.0103
    8DOPE  C210  959   3.842   4.926  15.467  0.1132 -0.3088  0.2380
    8DOPE  H10R  960   3.890   4.827  15.469  0.2436 -0.2801 -0.8911
    8DOPE  C211  961   3.826   4.978  15.317  0.4702 -0.4982  0.4479
    8DOPE  H11R  962   3.811   5.087  15.299  0.2219 -1.0230 -3.1785
    8DOPE  H11S  963   3.746   4.919  15.267  1.5177  0.5573 -2.6962
    8DOPE  C212  964   3.956   4.939  15.239  0.1648 -0.3348 -0.2451
    8DOPE  H12R  965   3.964   4.829  15.242 -0.5556 -0.4163 -0.9062
    8DOPE  H12S  966   4.044   4.992  15.282  0.3105 -0.8840  0.1313
    8DOPE  C213  967   3.927   4.972  15.084 -1.1436 -0.0283  0.3427
    8DOPE  H13R  968   3.876   5.070  15.071 -0.4925  0.1521 -1.0691
    8DOPE  H13S  969   3.847   4.901  15.052 -1.3017  1.1291 -2.1075
    8DOPE  C214  970   4.039   4.955  14.983 -0.1925 -0.4014  0.4769
    8DOPE  H14R  971   4.071   4.848  14.976 -0.0928 -0.2882 -1.3447
    8DOPE  H14S  972   4.119   5.018  15.027  0.8255 -0.2797 -1.4217
    8DOPE  C215  973   4.006   4.994  14.839  0.2307  0.4322 -0.5443
    8DOPE  H15R  974   4.095   5.038  14.789  0.0704  0.5389 -0.7357
    8DOPE  H15S  975   3.925   5.070  14.833 -1.5400 -1.1674  1.3465
    8DOPE  C216  976   3.943   4.881  14.756 -0.3545  0.5716 -0.1910
    8DOPE  H16R  977   3.868   4.830  14.820  1.5423  0.2740  1.9344
    8DOPE  H16S  978   4.029   4.820  14.719 -1.3941 -0.6672 -0.6255
    8DOPE  C217  979   3.870   4.934  14.632 -0.0443  0.2388  0.0652
    8DOPE  H17R  980   3.932   5.010  14.580  2.8306 -1.4894  0.7569
    8DOPE  H17S  981   3.777   4.974  14.678  0.8933  1.0507  1.3340
    8DOPE  C218  982   3.831   4.818  14.535  0.2546 -0.0252 -0.6849
    8DOPE  H18R  983   3.906   4.771  14.468  1.9546  0.7175  0.6537
    8DOPE  H18S  984   3.757   4.860  14.462  2.0728  1.2064 -1.8975
    8DOPE  H18T  985   3.783   4.735  14.592  0.0492 -1.4318 -2.7704
    8DOPE   C33  986   3.814   5.682  15.927 -0.1367 -0.0171  0.5353
    8DOPE   H3X  987   3.883   5.598  15.953  1.0181  0.5912 -0.4451
    8DOPE   H3Y  988   3.851   5.780  15.964  2.9938 -1.0166  0.3854
    8DOPE   C34  989   3.824   5.698  15.772 -0.2449 -0.0504  0.0678
    8DOPE   H4X  990   3.742   5.759  15.730 -1.0513 -1.2342 -0.1472
    8DOPE   H4Y  991   3.927   5.727  15.743 -0.4876 -0.3042 -1.0689
    8DOPE   C35  992   3.785   5.566  15.697 -0.5274 -0.4385 -0.3548
    8DOPE   H5X  993   3.685   5.546  15.741 -0.3570 -0.4076  0.0473
    8DOPE   H5Y  994   3.860   5.492  15.733 -0.0973  0.7191  1.2210
    8DOPE   C36  995   3.795   5.582  15.546  0.6492 -0.2419  0.0442
    8DOPE   H6X  996   3.776   5.479  15.509 -0.3547 -0.4897  1.1882
    8DOPE   H6Y  997   3.900   5.602  15.515 -0.4676  2.9058 -2.1728
    8DOPE   C37  998   3.684   5.658  15.483  0.3763  0.0408  1.0599
    8DOPE   H7X  999   3.588   5.621  15.526  0.1369 -1.5621 -0.7243
    8DOPE   H7Y 1000   3.683   5.767  15.505 -1.5110 -0.1287  2.0531
    8DOPE   C38 1001   3.691   5.626  15.338  0.7549 -0.3567 -0.1396
    8DOPE   H8X 1002   3.600   5.675  15.296 -1.5605 -1.3590  3.2518
    8DOPE   H8Y 1003   3.681   5.516  15.324  1.7815 -0.2528 -1.9467
    8DOPE   C39 1004   3.815   5.668  15.264 -0.3150  0.0764  0.1023
    8DOPE   H9X 1005   3.912   5.632  15.301  1.4456  0.7208 -3.4686
    8DOPE  C310 1006   3.831   5.745  15.160 -0.1842 -0.2932 -0.0552
    8DOPE  H10X 1007   3.928   5.751  15.109 -1.1323  1.7009 -1.7511
    8DOPE  C311 1008   3.718   5.792  15.082 -0.4581 -0.4334 -0.7154
    8DOPE  H11X 1009   3.638   5.715  15.088 -0.8922  0.1450  1.6832
    8DOPE  H11Y 1010   3.681   5.893  15.108  1.6208  0.2540 -0.2390
    8DOPE  C312 1011   3.743   5.810  14.927  0.0439  0.1033  0.3385
    8DOPE  H12X 1012   3.651   5.851  14.880  1.0326  2.1055  0.0598
    8DOPE  H12Y 1013   3.760   5.711  14.878  3.2402 -0.4728  2.3088
    8DOPE  C313 1014   3.856   5.903  14.879 -0.4808 -0.5248  0.5372
    8DOPE  H13X 1015   3.833   6.001  14.925  0.5475 -0.3948  0.8012
    8DOPE  H13Y 1016   3.961   5.874  14.904  0.4541 -0.3368 -2.6999
    8DOPE  C314 1017   3.851   5.900  14.728  0.0546  0.0038 -0.5848
    8DOPE  H14X 1018   3.748   5.873  14.696  0.2961  0.2718 -1.6181
    8DOPE  H14Y 1019   3.924   5.829  14.683 -0.0826 -0.6727  0.2342
    8DOPE  C315 1020   3.873   6.038  14.683 -0.9629 -0.1967 -0.0634
    8DOPE  H15X 1021   3.973   6.072  14.717  0.7581 -1.6100 -3.2014
    8DOPE  H15Y 1022   3.795   6.097  14.734 -1.2137 -0.5898  0.0087
    8DOPE  C316 1023   3.847   6.055  14.531 -0.0913  0.2759  0.5874
    8DOPE  H16X 1024   3.742   6.031  14.504 -0.5020  1.2426  1.2546
    8DOPE  H16Y 1025   3.920   5.992  14.476  1.2702  0.4406  2.1312
    8DOPE  C317 1026   3.886   6.191  14.490  0.5940 -0.8694 -0.0777
    8DOPE  H17X 1027   3.818   6.270  14.531  0.4626 -0.1300 -1.6314
    8DOPE  H17Y 1028   3.987   6.217  14.530  0.5504  0.6276 -0.8500
    8DOPE  C318 1029   3.891   6.217  14.340  0.1102  1.1254  0.0857
    8DOPE  H18X 1030   3.902   6.321  14.302  0.6486  0.5659 -1.3504
    8DOPE  H18Y 1031   3.798   6.173  14.297 -0.8680  1.8866  1.3438
    8DOPE  H18Z 1032   3.974   6.165  14.288  0.1510  0.9961  0.2806
    9DOPE     N 1033   1.425   4.716  17.043 -0.0514 -0.4232 -1.0731
    9DOPE   HN1 1034   1.328   4.698  17.076 -0.1850  0.2991 -1.0680
    9DOPE   HN2 1035   1.481   4.634  17.075  1.2354 -0.4442 -3.1925
    9DOPE   HN3 1036   1.462   4.800  17.091  1.0771 -0.8589 -1.1498
    9DOPE   C12 1037   1.457   4.722  16.895 -0.2031 -0.2449 -0.4004
    9DOPE  H12A 1038   1.416   4.629  16.851 -1.2185 -1.0681  2.0734
    9DOPE  H12B 1039   1.568   4.718  16.892 -0.0512  1.3006  1.3819
    9DOPE   C11 1040   1.415   4.857  16.849  0.0873  0.2426 -0.1068
    9DOPE  H11A 1041   1.442   4.862  16.741 -0.3247  1.5224 -0.1695
    9DOPE  H11B 1042   1.486   4.923  16.904 -0.6933 -0.3422  1.6611
    9DOPE     P 1043   1.169   4.811  16.787 -0.1354 -0.1222 -0.2770
    9DOPE   O13 1044   1.047   4.894  16.778 -0.3308 -0.4927 -0.4796
    9DOPE   O14 1045   1.152   4.677  16.850  0.8973  0.5199 -0.0444
    9DOPE   O11 1046   1.236   4.795  16.653  0.5412 -0.2402  0.1697
    9DOPE   O12 1047   1.278   4.887  16.875 -0.6064 -0.7507  0.5926
    9DOPE    C1 1048   1.260   4.918  16.573 -0.3578  0.6543  0.0733
    9DOPE    HA 1049   1.369   4.917  16.552 -0.1844 -0.1074  0.9324
    9DOPE    HB 1050   1.248   5.014  16.628 -0.8118  1.7991 -1.9173
    9DOPE    C2 1051   1.178   4.905  16.437 -0.7726  0.0321  0.5693
    9DOPE    HS 1052   1.071   4.883  16.458 -0.8140 -0.6077 -0.2744
    9DOPE   O21 1053   1.239   4.799  16.362  0.3187 -0.0279 -0.6067
    9DOPE   C21 1054   1.214   4.670  16.383  0.0216  0.3602 -0.7558
    9DOPE   O22 1055   1.120   4.620  16.441 -0.0523 -0.0817  0.6898
    9DOPE   C22 1056   1.332   4.591  16.315 -0.2726  0.3484 -0.2834
    9DOPE   H2R 1057   1.371   4.526  16.397  2.4166 -0.3752 -2.0198
    9DOPE   H2S 1058   1.414   4.665  16.303  0.7623 -0.9977 -2.0385
    9DOPE    C3 1059   1.192   5.031  16.344  0.3045 -0.4377 -0.3196
    9DOPE    HX 1060   1.302   5.040  16.328  0.3490 -0.6950 -0.1523
    9DOPE    HY 1061   1.152   5.122  16.394 -0.5689  0.2104 -2.1080
    9DOPE   O31 1062   1.127   5.007  16.222  0.6042  0.0548 -0.5060
    9DOPE   C31 1063   0.999   5.035  16.226  0.2855 -0.0166 -0.3475
    9DOPE   O32 1064   0.936   5.097  16.309 -0.1517  0.3854 -0.0436
    9DOPE   C32 1065   0.933   4.973  16.106  1.3429 -0.1712 -0.2269
    9DOPE   H2X 1066   0.931   4.863  16.121  1.4875  0.1553  2.6563
    9DOPE   H2Y 1067   0.829   5.011  16.111  0.7781 -1.8098  1.7880
    9DOPE   C23 1068   1.296   4.524  16.186  0.3914 -0.3928  0.0183
    9DOPE   H3R 1069   1.197   4.475  16.192  0.3475 -0.2637  0.4453
    9DOPE   H3S 1070   1.373   4.447  16.162  1.2594  0.5157 -0.1784
    9DOPE   C24 1071   1.293   4.621  16.061 -0.1029 -0.4234  0.0953
    9DOPE   H4R 1072   1.402   4.637  16.047  0.0970 -0.0205  1.8593
    9DOPE   H4S 1073   1.242   4.716  16.090 -0.3631 -0.7299  0.6464
    9DOPE   C25 1074   1.226   4.558  15.935 -0.1022 -0.5085  0.0846
    9DOPE   H5R 1075   1.116   4.550  15.943 -0.1221  0.3282  0.7281
    9DOPE   H5S 1076   1.270   4.460  15.905  2.1620  0.9529 -1.7948
    9DOPE   C26 1077   1.261   4.649  15.814 -0.0809  0.5727 -0.4646
    9DOPE   H6R 1078   1.370   4.644  15.795 -0.0957 -1.6695 -0.1661
    9DOPE   H6S 1079   1.216   4.747  15.843 -1.3386  0.0524 -0.5743
    9DOPE   C27 1080   1.184   4.604  15.691 -0.0360 -0.3721  0.5469
    9DOPE   H7R 1081   1.079   4.608  15.725 -0.3193 -1.8162 -0.0827
    9DOPE   H7S 1082   1.204   4.499  15.660 -0.9101 -0.0071 -1.3624
    9DOPE   C28 1083   1.211   4.691  15.567  0.6224  0.0161  0.7003
    9DOPE   H8R 1084   1.319   4.685  15.541  0.0919  3.0450 -3.0932
    9DOPE   H8S 1085   1.185   4.796  15.592 -1.8710 -0.2237 -0.6379
    9DOPE   C29 1086   1.121   4.651  15.452  0.0178  0.6605  0.2801
    9DOPE   H9R 1087   1.021   4.626  15.490  0.0348 -0.4353 -0.3511
    9DOPE  C210 1088   1.152   4.624  15.327 -0.2310 -0.3826  0.2226
    9DOPE  H10R 1089   1.080   4.584  15.255 -1.7431  2.8350 -0.2274
    9DOPE  C211 1090   1.287   4.664  15.275 -0.8041 -0.1845 -0.4095
    9DOPE  H11R 1091   1.322   4.579  15.213 -1.2819 -1.3766  0.9147
    9DOPE  H11S 1092   1.358   4.692  15.355  0.5165  2.7357 -2.4403
    9DOPE  C212 1093   1.292   4.786  15.179 -0.0174 -0.3852 -0.2711
    9DOPE  H12R 1094   1.276   4.878  15.239  1.3624 -0.9081  0.9574
    9DOPE  H12S 1095   1.208   4.795  15.106 -0.5988  2.0824  0.5913
    9DOPE  C213 1096   1.434   4.811  15.124 -0.1283  0.0665  0.0263
    9DOPE  H13R 1097   1.451   4.741  15.040 -3.8418 -0.9314 -0.0386
    9DOPE  H13S 1098   1.511   4.795  15.203 -1.3251  2.3552  1.7671
    9DOPE  C214 1099   1.461   4.949  15.068  0.1409 -0.1884 -0.2852
    9DOPE  H14R 1100   1.564   4.985  15.088  1.1247 -1.9261 -1.9257
    9DOPE  H14S 1101   1.391   5.021  15.114 -0.0077 -1.1773  1.1045
    9DOPE  C215 1102   1.437   4.950  14.917 -0.4203 -0.0996 -0.1671
    9DOPE  H15R 1103   1.331   4.931  14.891 -1.1768  1.0684  1.8308
    9DOPE  H15S 1104   1.496   4.863  14.882 -0.3249 -0.8947  1.8458
    9DOPE  C216 1105   1.478   5.086  14.854 -0.7262 -0.2641 -0.2815
    9DOPE  H16R 1106   1.583   5.112  14.878 -1.0225  1.1609 -0.4773
    9DOPE  H16S 1107   1.423   5.172  14.897 -0.3681 -0.1380 -0.0697
    9DOPE  C217 1108   1.446   5.085  14.709 -0.2685  0.2043 -0.4172
    9DOPE  H17R 1109   1.337   5.069  14.693 -0.0960 -0.1998 -1.2441
    9DOPE  H17S 1110   1.494   4.998  14.660  0.1002 -1.5072  2.6964
    9DOPE  C218 1111   1.487   5.210  14.629 -0.2036 -0.2686  0.4437
    9DOPE  H18R 1112   1.416   5.225  14.545  0.4141 -0.2186 -0.0834
    9DOPE  H18S 1113   1.595   5.205  14.603 -0.2467 -1.3951  0.4408
    9DOPE  H18T 1114   1.482   5.305  14.686  2.7042  1.0388 -1.2187
    9DOPE   C33 1115   0.997   5.002  15.961 -0.8483  0.2243  0.1324
    9DOPE   H3X 1116   1.106   4.981  15.966 -0.3581  2.2778 -0.6805
    9DOPE   H3Y 1117   0.985   5.109  15.931 -0.4814 -0.1124 -1.2694
    9DOPE   C34 1118   0.941   4.915  15.848 -0.9002 -0.4806 -0.1855
    9DOPE   H4X 1119   0.965   4.809  15.870  2.0254  0.4324  1.5942
    9DOPE   H4Y 1120   0.830   4.922  15.860 -0.6572  1.5917  1.3039
    9DOPE   C35 1121   0.992   4.967  15.710  0.1023 -0.0613  0.4334
    9DOPE   H5X 1122   1.095   4.925  15.706  0.7304  1.3877  0.8960
    9DOPE   H5Y 1123   1.005   5.077  15.722 -0.5633 -0.1183  1.9122
    9DOPE   C36 1124   0.900   4.937  15.597  0.7605  0.8744  0.0458
    9DOPE   H6X 1125   0.795   4.970  15.616 -0.2603 -2.2532  0.3955
    9DOPE   H6Y 1126   0.898   4.827  15.587 -2.5566  0.7593  0.8599
    9DOPE   C37 1127   0.941   4.988  15.453 -0.4325 -0.5966  0.1486
    9DOPE   H7X 1128   0.946   5.099  15.466  0.3542 -0.3517 -1.8347
    9DOPE   H7Y 1129   1.039   4.940  15.437 -0.5269 -0.8809  0.4205
    9DOPE   C38 1130   0.840   4.959  15.336 -0.8406  0.2631  0.2962
    9DOPE   H8X 1131   0.748   5.019  15.350 -1.1795  0.3715 -2.1097
    9DOPE   H8Y 1132   0.802   4.855  15.339 -0.1105 -0.0143  0.1905
    9DOPE   C39 1133   0.910   4.999  15.205 -0.1205  0.6065  0.9354
    9DOPE   H9X 1134   1.004   4.944  15.189  0.6056  1.5448  1.8290
    9DOPE  C310 1135   0.862   5.093  15.124  0.2067  0.2157 -0.3038
    9DOPE  H10X 1136   0.908   5.104  15.025  1.5640  0.5242  0.3369
    9DOPE  C311 1137   0.726   5.158  15.139  0.4308  0.2816  0.7879
    9DOPE  H11X 1138   0.703   5.171  15.247  2.3530 -0.7965  1.3601
    9DOPE  H11Y 1139   0.726   5.263  15.102 -1.6192  0.1122  0.1556
    9DOPE  C312 1140   0.605   5.091  15.069  0.4361  0.7074 -0.5446
    9DOPE  H12X 1141   0.519   5.160  15.077  0.2000  0.3397  0.1629
    9DOPE  H12Y 1142   0.576   4.990  15.106 -2.7103  1.7187  0.0970
    9DOPE  C313 1143   0.629   5.074  14.919 -0.5363  1.0033 -0.8923
    9DOPE  H13X 1144   0.665   5.172  14.881  0.8515  0.9232  0.1387
    9DOPE  H13Y 1145   0.715   5.004  14.915 -1.4096 -0.2247  0.5649
    9DOPE  C314 1146   0.527   5.019  14.823 -0.9565 -0.2390 -0.0137
    9DOPE  H14X 1147   0.442   5.090  14.821 -0.4905  0.4431  1.9035
    9DOPE  H14Y 1148   0.482   4.929  14.871 -0.6843  0.6383  1.9929
    9DOPE  C315 1149   0.585   4.989  14.683  1.1775 -0.0997  0.1622
    9DOPE  H15X 1150   0.616   4.882  14.688 -0.8160 -0.7082  0.8675
    9DOPE  H15Y 1151   0.667   5.061  14.665 -0.3932  2.6685  2.9285
    9DOPE  C316 1152   0.480   5.000  14.573 -0.3864  0.5852 -0.7639
    9DOPE  H16X 1153   0.465   5.107  14.547  0.5997  0.7438 -0.7008
    9DOPE  H16Y 1154   0.383   4.957  14.606  1.1177 -0.4985  2.7583
    9DOPE  C317 1155   0.512   4.915  14.451 -0.1341 -0.7519 -0.0962
    9DOPE  H17X 1156   0.615   4.936  14.416  1.1649  0.0667  3.7032
    9DOPE  H17Y 1157   0.513   4.805  14.470  1.6406 -0.6993  0.2991
    9DOPE  C318 1158   0.429   4.949  14.332 -0.1752 -0.3222  0.2745
    9DOPE  H18X 1159   0.327   4.907  14.345  0.1203 -1.2229 -0.2073
    9DOPE  H18Y 1160   0.421   5.058  14.309 -0.9539 -0.5598 -0.6567
    9DOPE  H18Z 1161   0.460   4.902  14.236  0.2120 -1.1324  0.7901
   10DOPE     N 1162   1.965   0.468  17.174 -0.2160  0.5418 -0.1823
   10DOPE   HN1 1163   2.059   0.436  17.205 -0.4117  0.2095  0.0755
   10DOPE   HN2 1164   1.962   0.571  17.188 -1.2213  0.2843  1.9307
   10DOPE   HN3 1165   1.898   0.434  17.246 -1.4887  1.4036 -0.9173
   10DOPE   C12 1166   1.934   0.426  17.038  0.3583  0.7592  0.5724
   10DOPE  H12A 1167   1.946   0.316  17.025 -2.8885  0.5703 -2.3566
   10DOPE  H12B 1168   1.986   0.490  16.963 -2.2628 -0.2555 -2.3135
   10DOPE   C11 1169   1.788   0.446  17.006  0.3583  0.0339 -0.0032
   10DOPE  H11A 1170   1.772   0.408  16.903  1.4555  1.1874 -0.6321
   10DOPE  H11B 1171   1.772   0.556  17.004  0.2879  0.0567  1.0608
   10DOPE     P 1172   1.585   0.291  17.078 -0.0658  0.2740 -0.0072
   10DOPE   O13 1173   1.463   0.370  17.105 -0.0527 -0.5166 -0.0439
   10DOPE   O14 1174   1.599   0.165  17.156  0.4249 -0.4318  0.7956
   10DOPE   O11 1175   1.597   0.265  16.925  0.0197 -0.6062 -0.2811
   10DOPE   O12 1176   1.709   0.385  17.109  0.6540 -0.3009 -0.3809
   10DOPE    C1 1177   1.622   0.136  16.871 -0.5618 -0.8914  0.5892
   10DOPE    HA 1178   1.529   0.074  16.876 -0.2384 -1.4842 -0.3822
   10DOPE    HB 1179   1.700   0.075  16.921 -0.2164 -1.1413 -0.2354
   10DOPE    C2 1180   1.647   0.143  16.720  0.4979  0.3682 -0.3887
   10DOPE    HS 1181   1.660   0.040  16.680 -1.8633 -0.6249  1.1847
   10DOPE   O21 1182   1.759   0.228  16.685  0.3831  0.2616 -0.2934
   10DOPE   C21 1183   1.882   0.188  16.713  0.6717 -0.0573  0.1092
   10DOPE   O22 1184   1.911   0.072  16.745  0.4001 -0.1115 -0.2027
   10DOPE   C22 1185   1.986   0.292  16.673  0.3389 -0.3588 -0.5404
   10DOPE   H2R 1186   2.043   0.310  16.767 -2.1229 -1.3835  1.2580
   10DOPE   H2S 1187   1.938   0.388  16.648  1.6231  0.6698  0.7362
   10DOPE    C3 1188   1.522   0.204  16.652 -0.3347  0.0966  0.0477
   10DOPE    HX 1189   1.516   0.311  16.684 -3.7736  0.3827 -1.0908
   10DOPE    HY 1190   1.433   0.156  16.697  0.2268  1.1658  2.4625
   10DOPE   O31 1191   1.541   0.198  16.510 -0.7355 -0.2113  0.2772
   10DOPE   C31 1192   1.491   0.101  16.448 -0.0155 -0.6267 -0.4796
   10DOPE   O32 1193   1.427   0.006  16.496 -0.2587 -0.0931  0.2852
   10DOPE   C32 1194   1.531   0.113  16.303  0.5240  0.0802  0.4981
   10DOPE   H2X 1195   1.487   0.205  16.260  2.0017  1.3340  1.5526
   10DOPE   H2Y 1196   1.641   0.126  16.296  0.3816  1.1862  0.0578
   10DOPE   C23 1197   2.087   0.245  16.563  0.2144 -0.1297  0.7465
   10DOPE   H3R 1198   2.132   0.159  16.616 -1.3085  0.1645  2.6628
   10DOPE   H3S 1199   2.168   0.316  16.535 -0.0430 -0.2733 -0.4261
   10DOPE   C24 1200   2.026   0.180  16.435  0.1491 -0.6820  0.0198
   10DOPE   H4R 1201   1.954   0.099  16.458 -1.2986  0.4865 -0.2757
   10DOPE   H4S 1202   2.107   0.127  16.380  0.5393 -0.8213  0.7122
   10DOPE   C25 1203   1.948   0.274  16.342 -0.0842 -0.2310  0.2272
   10DOPE   H5R 1204   2.001   0.369  16.323 -1.7629  0.2930 -2.3098
   10DOPE   H5S 1205   1.850   0.296  16.389  0.9519  0.4066  2.2115
   10DOPE   C26 1206   1.930   0.192  16.204  0.0660  0.2635 -0.2362
   10DOPE   H6R 1207   1.853   0.249  16.148  0.8773  1.1998 -0.4091
   10DOPE   H6S 1208   1.886   0.093  16.233  2.1258  0.2275  3.4254
   10DOPE   C27 1209   2.050   0.172  16.109  0.2654 -0.3689 -0.1490
   10DOPE   H7R 1210   2.030   0.084  16.044 -1.6165 -0.6378  0.7366
   10DOPE   H7S 1211   2.135   0.154  16.179  0.2528  1.9649  0.5477
   10DOPE   C28 1212   2.069   0.297  16.026 -0.6190 -0.1618  0.4748
   10DOPE   H8R 1213   2.092   0.377  16.100  3.3055 -1.6245  1.1240
   10DOPE   H8S 1214   1.987   0.335  15.962  0.4829  2.4189  0.4688
   10DOPE   C29 1215   2.194   0.270  15.944  0.5293 -0.2599 -0.1979
   10DOPE   H9R 1216   2.278   0.216  15.990  1.1492  0.5190 -0.3942
   10DOPE  C210 1217   2.200   0.296  15.814 -0.5471 -0.2729  0.7372
   10DOPE  H10R 1218   2.294   0.276  15.760 -0.2994  0.8848  0.6959
   10DOPE  C211 1219   2.110   0.379  15.725  0.0151 -0.4471  0.7237
   10DOPE  H11R 1220   2.097   0.486  15.750 -0.3628 -0.0107 -1.1842
   10DOPE  H11S 1221   2.014   0.322  15.725 -2.2431  3.0220  1.6757
   10DOPE  C212 1222   2.167   0.382  15.579 -0.3326  0.7782 -0.1425
   10DOPE  H12R 1223   2.277   0.395  15.584 -0.2146 -0.5163  1.4618
   10DOPE  H12S 1224   2.127   0.465  15.517 -0.9249 -0.6103 -1.6835
   10DOPE  C213 1225   2.147   0.252  15.501 -0.4688 -0.4895 -0.3212
   10DOPE  H13R 1226   2.040   0.224  15.511 -0.7470  1.2069  2.7618
   10DOPE  H13S 1227   2.214   0.169  15.535  1.2182  1.0195  0.2206
   10DOPE  C214 1228   2.180   0.265  15.351 -0.2718 -0.0482 -0.8647
   10DOPE  H14R 1229   2.287   0.274  15.320 -0.5081  3.0189 -1.1236
   10DOPE  H14S 1230   2.126   0.352  15.308 -1.6306 -0.9471 -1.0378
   10DOPE  C215 1231   2.133   0.142  15.269 -0.0493 -0.8228 -0.1460
   10DOPE  H15R 1232   2.024   0.130  15.285  0.1712 -2.8025  0.0483
   10DOPE  H15S 1233   2.183   0.059  15.323 -1.3699 -0.6488  1.3983
   10DOPE  C216 1234   2.165   0.159  15.122 -0.3196  0.2071 -0.2159
   10DOPE  H16R 1235   2.261   0.215  15.120 -0.9212  1.2196 -1.0891
   10DOPE  H16S 1236   2.096   0.220  15.061  1.6744  2.1536 -0.6506
   10DOPE  C217 1237   2.182   0.023  15.049  0.0492 -0.3470 -0.8217
   10DOPE  H17R 1238   2.085  -0.031  15.048 -0.2060  0.0729 -0.1760
   10DOPE  H17S 1239   2.257  -0.036  15.107 -0.9100 -1.8035 -1.0110
   10DOPE  C218 1240   2.232   0.045  14.914 -0.4570  0.2205 -0.0838
   10DOPE  H18R 1241   2.317   0.116  14.913 -0.2654  0.0292  1.0727
   10DOPE  H18S 1242   2.151   0.096  14.857 -0.5905  0.4727  0.3288
   10DOPE  H18T 1243   2.268  -0.048  14.864  0.1297 -1.0219  2.4861
   10DOPE   C33 1244   1.482  -0.007  16.208  0.3727  0.1347 -0.2034
   10DOPE   H3X 1245   1.372  -0.003  16.224  0.3715  1.3040 -0.3991
   10DOPE   H3Y 1246   1.521  -0.103  16.248 -1.1642 -0.9977 -1.3271
   10DOPE   C34 1247   1.517   0.003  16.062  0.2833 -0.2365  0.4307
   10DOPE   H4X 1248   1.474  -0.089  16.018 -1.5921  0.6114  0.3683
   10DOPE   H4Y 1249   1.467   0.090  16.014  1.8609  0.2231 -0.4358
   10DOPE   C35 1250   1.665   0.034  16.020  0.4354  0.1980  0.0127
   10DOPE   H5X 1251   1.738  -0.030  16.075  0.2874 -0.2836 -0.3585
   10DOPE   H5Y 1252   1.674   0.137  16.062 -0.2002 -0.1335  0.9778
   10DOPE   C36 1253   1.678   0.038  15.867 -0.1906 -0.5326  0.2058
   10DOPE   H6X 1254   1.593   0.099  15.829 -1.3165 -1.8969  0.4226
   10DOPE   H6Y 1255   1.662  -0.065  15.827  0.9270 -0.1014 -1.4813
   10DOPE   C37 1256   1.809   0.097  15.801  0.0972 -0.6372 -0.6330
   10DOPE   H7X 1257   1.816   0.193  15.855 -0.1779 -0.7074 -0.4715
   10DOPE   H7Y 1258   1.894   0.035  15.837 -0.7799 -2.2696 -1.2086
   10DOPE   C38 1259   1.800   0.101  15.646  0.5795  0.1114  0.2203
   10DOPE   H8X 1260   1.880   0.171  15.614 -0.2536  1.6953  1.4811
   10DOPE   H8Y 1261   1.699   0.133  15.614  0.0952 -1.8958 -0.3993
   10DOPE   C39 1262   1.830  -0.033  15.589  0.0982 -0.3008  1.1890
   10DOPE   H9X 1263   1.925  -0.078  15.621  2.5944  1.9835 -2.2482
   10DOPE  C310 1264   1.771  -0.090  15.484  0.0978 -0.6039  0.3782
   10DOPE  H10X 1265   1.809  -0.188  15.451 -0.0066 -0.5399  0.0720
   10DOPE  C311 1266   1.662  -0.027  15.401 -0.5885  0.4896 -0.1215
   10DOPE  H11X 1267   1.582  -0.103  15.412  1.2639 -1.8544 -1.6607
   10DOPE  H11Y 1268   1.626   0.071  15.438  0.3533  1.7552 -2.3908
   10DOPE  C312 1269   1.700  -0.004  15.249  0.4695 -0.1593 -0.6573
   10DOPE  H12X 1270   1.777   0.075  15.239 -0.4385  0.5555 -2.2561
   10DOPE  H12Y 1271   1.610   0.025  15.192 -0.8051  0.8711  1.7247
   10DOPE  C313 1272   1.777  -0.121  15.187  0.4972  0.0185 -0.5879
   10DOPE  H13X 1273   1.881  -0.123  15.225  0.2791  1.6356  0.1833
   10DOPE  H13Y 1274   1.733  -0.223  15.190 -1.8352  0.9339 -1.2085
   10DOPE  C314 1275   1.792  -0.114  15.033 -0.2061  0.0742  0.0577
   10DOPE  H14X 1276   1.848  -0.019  15.018  1.7307 -0.9695  0.3659
   10DOPE  H14Y 1277   1.688  -0.108  14.992  0.4086  1.0818 -1.4495
   10DOPE  C315 1278   1.874  -0.232  14.975 -0.7945  0.4232 -0.6393
   10DOPE  H15X 1279   1.835  -0.316  15.036 -0.6734  0.1648 -0.9157
   10DOPE  H15Y 1280   1.981  -0.230  15.002 -1.1714  0.8244  0.9244
   10DOPE  C316 1281   1.854  -0.239  14.828  0.1769  0.0891 -0.4112
   10DOPE  H16X 1282   1.747  -0.221  14.808  0.2279  0.4747 -0.3552
   10DOPE  H16Y 1283   1.883  -0.341  14.794 -1.9052 -0.8061  0.3650
   10DOPE  C317 1284   1.937  -0.137  14.746 -0.0982  0.0896  0.0106
   10DOPE  H17X 1285   1.908  -0.036  14.781  1.5244  0.9225 -0.9265
   10DOPE  H17Y 1286   2.042  -0.151  14.780 -0.0784 -4.2972 -1.2606
   10DOPE  C318 1287   1.916  -0.135  14.597 -0.0084  0.1646  0.0972
   10DOPE  H18X 1288   1.926  -0.237  14.554 -0.7029  1.0355 -2.2702
   10DOPE  H18Y 1289   1.817  -0.093  14.571  0.8269  1.0184 -1.9773
   10DOPE  H18Z 1290   1.982  -0.061  14.547  0.6230 -1.1746 -1.1166
   11DOPE     N 1291   0.499   4.831  16.843  0.2114  0.0284 -0.0766
   11DOPE   HN1 1292   0.560   4.803  16.763 -2.0556  0.7110 -2.1347
   11DOPE   HN2 1293   0.405   4.847  16.802  0.3644  0.1437 -0.3862
   11DOPE   HN3 1294   0.523   4.919  16.892 -1.8018  0.3292  0.4413
   11DOPE   C12 1295   0.493   4.716  16.946  0.0727 -0.0344  0.2007
   11DOPE  H12A 1296   0.455   4.761  17.040  0.5676  1.0069 -0.0719
   11DOPE  H12B 1297   0.597   4.682  16.964 -0.0932 -0.1740  0.9076
   11DOPE   C11 1298   0.411   4.598  16.896  0.7212  0.8074  0.2742
   11DOPE  H11A 1299   0.394   4.527  16.979 -0.9705  0.5954 -0.2176
   11DOPE  H11B 1300   0.448   4.538  16.809  0.6465  0.2180  0.6442
   11DOPE     P 1301   0.167   4.577  16.791  0.0402  0.1456  0.0333
   11DOPE   O13 1302   0.048   4.665  16.799 -0.4355  0.3866 -1.0627
   11DOPE   O14 1303   0.151   4.447  16.859  0.1854  0.0199  0.4279
   11DOPE   O11 1304   0.209   4.557  16.639 -0.7502 -0.6573 -0.4076
   11DOPE   O12 1305   0.287   4.657  16.858  0.4264  0.0559  0.8975
   11DOPE    C1 1306   0.224   4.685  16.567 -0.2521  0.9737  0.5196
   11DOPE    HA 1307   0.321   4.733  16.588  0.0241  0.5837  0.1490
   11DOPE    HB 1308   0.139   4.754  16.588 -0.9072  0.5907 -0.7560
   11DOPE    C2 1309   0.213   4.665  16.415  0.3874 -0.1299 -0.2221
   11DOPE    HS 1310   0.145   4.737  16.365 -0.6520 -0.3645  0.8223
   11DOPE   O21 1311   0.180   4.532  16.371  0.1837 -0.3637  0.2203
   11DOPE   C21 1312   0.058   4.484  16.417 -0.5409 -0.5396  0.2655
   11DOPE   O22 1313  -0.025   4.561  16.458  0.0955  0.2375  0.1416
   11DOPE   C22 1314   0.057   4.334  16.410 -0.1911 -0.0823 -0.2632
   11DOPE   H2R 1315   0.075   4.303  16.515 -2.2877 -0.3112  0.0683
   11DOPE   H2S 1316   0.142   4.301  16.347 -0.0985 -0.6883  0.1715
   11DOPE    C3 1317   0.357   4.698  16.352  0.6276  0.5097  0.4238
   11DOPE    HX 1318   0.436   4.633  16.395  0.4935  0.0244 -0.0531
   11DOPE    HY 1319   0.386   4.799  16.387  0.5175  1.1074 -1.1314
   11DOPE   O31 1320   0.352   4.698  16.206 -0.6272  0.1663 -0.7574
   11DOPE   C31 1321   0.464   4.721  16.148 -0.1911  0.3532 -0.3881
   11DOPE   O32 1322   0.567   4.759  16.197  0.4677  0.2277 -0.4919
   11DOPE   C32 1323   0.451   4.707  16.001  0.3632 -0.5322  0.4892
   11DOPE   H2X 1324   0.431   4.598  15.986 -0.9917  0.0477 -2.6234
   11DOPE   H2Y 1325   0.359   4.757  15.965  1.0233  0.2896 -0.0820
   11DOPE   C23 1326  -0.067   4.270  16.349  0.0588  0.8595 -0.2251
   11DOPE   H3R 1327  -0.151   4.342  16.361  0.4449  1.5140 -1.3527
   11DOPE   H3S 1328  -0.102   4.183  16.409 -2.1058  1.6010 -0.3173
   11DOPE   C24 1329  -0.045   4.233  16.200  0.8135  0.0294  0.0817
   11DOPE   H4R 1330  -0.145   4.192  16.172  0.2718 -0.1201  2.0855
   11DOPE   H4S 1331   0.039   4.161  16.190  0.9656  0.3051 -0.6718
   11DOPE   C25 1332  -0.010   4.357  16.117  0.0152  0.4488  0.1786
   11DOPE   H5R 1333   0.098   4.383  16.124  0.0074  0.7437 -0.6710
   11DOPE   H5S 1334  -0.061   4.444  16.164 -0.4384  0.1923  0.1744
   11DOPE   C26 1335  -0.040   4.341  15.962  0.0486 -0.1179 -0.2754
   11DOPE   H6R 1336  -0.138   4.383  15.928 -0.1157 -0.6811 -0.5058
   11DOPE   H6S 1337  -0.044   4.233  15.936  1.8891  0.2749 -2.4678
   11DOPE   C27 1338   0.082   4.393  15.887  0.3384  0.4978  0.8962
   11DOPE   H7R 1339   0.170   4.348  15.937  0.7215  1.5434  1.1869
   11DOPE   H7S 1340   0.095   4.501  15.909  2.4939  0.7077 -0.9868
   11DOPE   C28 1341   0.058   4.385  15.735  0.5734  0.5865  0.2073
   11DOPE   H8R 1342  -0.037   4.440  15.715  0.4759 -0.1283 -1.3758
   11DOPE   H8S 1343   0.046   4.279  15.706  3.2091  0.1473  0.4642
   11DOPE   C29 1344   0.161   4.442  15.640  1.0251  0.0721  0.5951
   11DOPE   H9R 1345   0.206   4.537  15.673 -1.3242  1.2902  0.5283
   11DOPE  C210 1346   0.192   4.398  15.517  0.4572  0.2694 -0.1433
   11DOPE  H10R 1347   0.280   4.441  15.466  0.8493 -1.7016 -1.2410
   11DOPE  C211 1348   0.118   4.291  15.440 -0.3026 -0.4568 -0.2787
   11DOPE  H11R 1349   0.041   4.231  15.493 -1.0226  0.4496 -0.2650
   11DOPE  H11S 1350   0.190   4.224  15.388  1.3161  1.1081 -0.1426
   11DOPE  C212 1351   0.049   4.356  15.325  0.0058  0.4847 -0.5257
   11DOPE  H12R 1352  -0.010   4.443  15.360  2.7724  2.8631 -1.4114
   11DOPE  H12S 1353  -0.027   4.282  15.291  0.5441 -0.3804  0.1111
   11DOPE  C213 1354   0.151   4.402  15.218  0.1179  0.2255 -0.3267
   11DOPE  H13R 1355   0.232   4.327  15.202  0.2532  0.6808 -1.8874
   11DOPE  H13S 1356   0.190   4.500  15.254 -0.5402 -0.2561  1.8594
   11DOPE  C214 1357   0.088   4.424  15.080 -0.4657  0.4688 -0.1720
   11DOPE  H14R 1358   0.013   4.505  15.089 -0.5678  0.7001 -2.4653
   11DOPE  H14S 1359   0.041   4.327  15.056  0.0371  0.2637 -0.3483
   11DOPE  C215 1360   0.180   4.469  14.972 -0.7915  0.5937  0.6459
   11DOPE  H15R 1361   0.260   4.392  14.961 -1.3454  0.1625 -0.5471
   11DOPE  H15S 1362   0.235   4.553  15.019 -1.0058  2.2899 -1.9234
   11DOPE  C216 1363   0.107   4.514  14.840  0.1983  0.4436 -0.7500
   11DOPE  H16R 1364   0.027   4.589  14.857 -0.9806 -1.1991  1.6393
   11DOPE  H16S 1365   0.065   4.419  14.800 -2.3318  0.0746  2.3909
   11DOPE  C217 1366   0.213   4.563  14.744 -0.2527 -0.3480 -0.0121
   11DOPE  H17R 1367   0.271   4.472  14.717  0.6715 -0.2045  1.3691
   11DOPE  H17S 1368   0.276   4.634  14.803 -1.4995  1.1439 -0.4368
   11DOPE  C218 1369   0.161   4.629  14.618  0.3660  0.1892  0.1262
   11DOPE  H18R 1370   0.093   4.553  14.574  0.4664 -0.1598  0.5660
   11DOPE  H18S 1371   0.240   4.641  14.541  0.5699 -0.5257  0.2100
   11DOPE  H18T 1372   0.112   4.725  14.643  0.6483  0.8769 -1.7978
   11DOPE   C33 1373   0.581   4.756  15.924  0.0196  0.2500 -0.4813
   11DOPE   H3X 1374   0.677   4.712  15.959  0.6510  0.9821 -1.2659
   11DOPE   H3Y 1375   0.582   4.867  15.920  1.0053  0.2242 -1.7881
   11DOPE   C34 1376   0.584   4.725  15.778 -0.1801  0.0980  0.4694
   11DOPE   H4X 1377   0.504   4.781  15.725 -0.2603 -1.6302 -1.3563
   11DOPE   H4Y 1378   0.677   4.772  15.739 -1.0638  0.3769 -1.4218
   11DOPE   C35 1379   0.583   4.581  15.735 -0.5272  0.5040 -0.3384
   11DOPE   H5X 1380   0.498   4.525  15.779 -1.7208  1.9566 -0.7683
   11DOPE   H5Y 1381   0.682   4.534  15.755  0.7873  1.8466 -3.0783
   11DOPE   C36 1382   0.557   4.568  15.582  0.4202 -0.7791  0.0935
   11DOPE   H6X 1383   0.461   4.621  15.561  1.1661  1.2697  1.5349
   11DOPE   H6Y 1384   0.546   4.459  15.563 -1.0604 -0.2855 -2.2925
   11DOPE   C37 1385   0.672   4.615  15.489 -0.5977 -0.3291  0.4245
   11DOPE   H7X 1386   0.689   4.725  15.496  0.5669 -0.4221 -0.5445
   11DOPE   H7Y 1387   0.763   4.568  15.532  0.6359  1.4114 -0.1511
   11DOPE   C38 1388   0.666   4.567  15.343  0.0326 -0.5221  0.2884
   11DOPE   H8X 1389   0.656   4.456  15.347  3.4060 -0.9469  0.2943
   11DOPE   H8Y 1390   0.766   4.594  15.302 -0.8373  0.1218 -1.5301
   11DOPE   C39 1391   0.558   4.633  15.259 -0.3742  0.4188 -0.5490
   11DOPE   H9X 1392   0.459   4.600  15.294 -0.2741 -0.9374 -1.4575
   11DOPE  C310 1393   0.569   4.699  15.144 -0.6119 -0.9413 -0.0852
   11DOPE  H10X 1394   0.476   4.742  15.104 -0.2265  1.2273  1.2206
   11DOPE  C311 1395   0.696   4.728  15.074 -0.1447 -0.2960 -0.5375
   11DOPE  H11X 1396   0.673   4.796  14.989 -2.0031  0.6483  0.6619
   11DOPE  H11Y 1397   0.753   4.787  15.150 -1.9349 -0.4946  1.0228
   11DOPE  C312 1398   0.780   4.607  15.016  0.6621 -0.2080  0.2303
   11DOPE  H12X 1399   0.717   4.544  14.950 -2.7228 -1.2014  4.0376
   11DOPE  H12Y 1400   0.832   4.547  15.093  1.7045  0.0268 -0.2695
   11DOPE  C313 1401   0.901   4.675  14.940  0.5336  0.2148  0.3501
   11DOPE  H13X 1402   0.869   4.764  14.881  0.1575  2.6720  3.9489
   11DOPE  H13Y 1403   0.969   4.733  15.005 -0.1960  1.6290 -0.1035
   11DOPE  C314 1404   0.976   4.573  14.855  0.6612  0.3382 -0.3508
   11DOPE  H14X 1405   0.922   4.571  14.758  2.1436 -1.5108 -1.1925
   11DOPE  H14Y 1406   0.970   4.467  14.889  1.5433  0.7308  1.1094
   11DOPE  C315 1407   1.125   4.600  14.849 -0.5687 -0.3283 -0.0888
   11DOPE  H15X 1408   1.170   4.606  14.951 -1.4672 -0.6635  0.3417
   11DOPE  H15Y 1409   1.140   4.701  14.805 -0.9220  0.0903  0.7184
   11DOPE  C316 1410   1.193   4.503  14.754 -0.0116  0.5388 -0.0483
   11DOPE  H16X 1411   1.159   4.501  14.648  0.5996 -0.6943 -0.2330
   11DOPE  H16Y 1412   1.175   4.397  14.784  0.1102  0.8204  1.0775
   11DOPE  C317 1413   1.347   4.534  14.750  0.7274  1.1557 -0.5786
   11DOPE  H17X 1414   1.374   4.631  14.704  1.4435  0.6548 -1.2338
   11DOPE  H17Y 1415   1.387   4.535  14.854  0.0631 -0.0704 -0.2956
   11DOPE  C318 1416   1.430   4.428  14.675  0.1689  0.3202  0.3570
   11DOPE  H18X 1417   1.529   4.469  14.643 -0.0186 -0.3434 -1.1850
   11DOPE  H18Y 1418   1.439   4.333  14.731  1.5375  1.1333  1.5766
   11DOPE  H18Z 1419   1.377   4.411  14.579  0.8999 -0.3435  0.0617
   12DOPE     N 1420   3.252   0.617  17.003 -0.2325  0.3084 -0.1934
   12DOPE   HN1 1421   3.295   0.701  16.959  1.9697 -0.6661 -0.0045
   12DOPE   HN2 1422   3.183   0.645  17.076  0.1245  1.6456 -0.3458
   12DOPE   HN3 1423   3.333   0.557  17.028  0.5934  2.0591  1.6175
   12DOPE   C12 1424   3.182   0.549  16.888  0.5746 -0.0895 -0.4979
   12DOPE  H12A 1425   3.260   0.538  16.810  2.7956  5.1835  0.4924
   12DOPE  H12B 1426   3.115   0.630  16.853  1.5883  1.0838  0.1512
   12DOPE   C11 1427   3.099   0.416  16.919 -0.1686 -0.2142  0.0843
   12DOPE  H11A 1428   3.173   0.337  16.946  1.3983  1.4903  1.0700
   12DOPE  H11B 1429   3.050   0.396  16.822  1.5400 -1.9113 -0.4954
   12DOPE     P 1430   2.881   0.339  17.026 -0.3974  0.1581  0.1936
   12DOPE   O13 1431   2.777   0.410  17.109 -0.0282  0.3946 -0.0340
   12DOPE   O14 1432   2.941   0.210  17.072  0.4619 -0.2507 -0.0197
   12DOPE   O11 1433   2.818   0.323  16.880  0.0188  0.1326 -0.1845
   12DOPE   O12 1434   2.995   0.441  17.011 -0.2174 -0.0474  0.3602
   12DOPE    C1 1435   2.735   0.429  16.828  0.8307  0.1798  0.3692
   12DOPE    HA 1436   2.778   0.531  16.835  1.4097  0.0625 -0.9973
   12DOPE    HB 1437   2.634   0.433  16.874  0.6019 -0.4967 -0.0607
   12DOPE    C2 1438   2.726   0.398  16.674  0.4693 -0.2828  0.4451
   12DOPE    HS 1439   2.721   0.287  16.667  3.0516 -0.5230  1.4256
   12DOPE   O21 1440   2.845   0.446  16.609 -0.0014  0.0048  0.1214
   12DOPE   C21 1441   2.877   0.379  16.502 -0.8169 -0.3463 -0.3417
   12DOPE   O22 1442   2.827   0.280  16.459  0.0315  0.0200  0.2671
   12DOPE   C22 1443   2.989   0.459  16.426  0.6030  0.1872 -0.7149
   12DOPE   H2R 1444   3.070   0.461  16.502 -1.9200 -0.6403  2.2314
   12DOPE   H2S 1445   2.943   0.559  16.413 -1.2114 -0.5767 -0.4406
   12DOPE    C3 1446   2.601   0.480  16.611  0.5296 -0.0093 -0.4779
   12DOPE    HX 1447   2.591   0.581  16.656 -0.9899 -0.5206  0.4047
   12DOPE    HY 1448   2.519   0.418  16.652 -0.1631 -0.0800 -1.9171
   12DOPE   O31 1449   2.600   0.481  16.467  0.5071 -0.3698  0.1929
   12DOPE   C31 1450   2.537   0.386  16.403 -0.1132 -0.1326  0.7267
   12DOPE   O32 1451   2.470   0.299  16.456  0.4159 -0.1941  0.1589
   12DOPE   C32 1452   2.545   0.396  16.251 -0.2347  0.0934  0.7309
   12DOPE   H2X 1453   2.501   0.302  16.212  0.7528 -0.1265  0.1057
   12DOPE   H2Y 1454   2.487   0.482  16.213  0.3198 -0.5677 -1.8252
   12DOPE   C23 1455   3.034   0.407  16.291  0.0731 -0.2489  0.0490
   12DOPE   H3R 1456   2.959   0.434  16.214 -0.4317  0.8578  0.9111
   12DOPE   H3S 1457   3.054   0.298  16.282  3.0609  0.0550  1.7956
   12DOPE   C24 1458   3.168   0.476  16.251 -0.0570  0.0733 -0.3847
   12DOPE   H4R 1459   3.241   0.455  16.333 -1.7939 -0.0427  1.1969
   12DOPE   H4S 1460   3.146   0.584  16.239  2.8825  0.7189 -0.7763
   12DOPE   C25 1461   3.217   0.413  16.123 -0.8733  0.4557  0.1455
   12DOPE   H5R 1462   3.229   0.305  16.144  0.4989  0.5019 -0.2685
   12DOPE   H5S 1463   3.318   0.455  16.100 -0.5291 -1.1904 -1.6201
   12DOPE   C26 1464   3.130   0.426  15.998  0.1288 -0.2737  0.6435
   12DOPE   H6R 1465   3.095   0.531  15.982  0.5108 -0.2010  0.2845
   12DOPE   H6S 1466   3.051   0.350  16.015  0.9582 -0.7924  2.3821
   12DOPE   C27 1467   3.216   0.384  15.883  0.2342  0.6554 -0.0483
   12DOPE   H7R 1468   3.271   0.294  15.918 -0.3869  0.4411  0.4017
   12DOPE   H7S 1469   3.291   0.463  15.860  0.8961  0.1631  0.3994
   12DOPE   C28 1470   3.133   0.341  15.760 -0.4323 -0.6069  0.7288
   12DOPE   H8R 1471   3.055   0.266  15.786 -0.3575 -0.9735 -0.0540
   12DOPE   H8S 1472   3.201   0.285  15.693  1.5612  0.5905  1.6423
   12DOPE   C29 1473   3.062   0.460  15.691 -0.2733 -0.2888  0.5786
   12DOPE   H9R 1474   3.059   0.549  15.754 -1.4880  0.3920 -0.3941
   12DOPE  C210 1475   3.043   0.475  15.561  0.2533  0.9429  0.0898
   12DOPE  H10R 1476   2.990   0.568  15.532 -1.2632  0.4015  0.9898
   12DOPE  C211 1477   3.048   0.362  15.462 -0.0257 -0.7448  0.3985
   12DOPE  H11R 1478   2.969   0.365  15.384  0.1149 -1.0042  0.2444
   12DOPE  H11S 1479   3.033   0.261  15.506 -2.0981 -0.0540  1.3972
   12DOPE  C212 1480   3.170   0.369  15.374 -0.1359 -0.4712 -0.5053
   12DOPE  H12R 1481   3.257   0.353  15.441 -0.9742  1.5532  1.1816
   12DOPE  H12S 1482   3.188   0.472  15.339  0.1658  0.0879  1.1929
   12DOPE  C213 1483   3.167   0.264  15.274  0.1477 -0.1487  0.1704
   12DOPE  H13R 1484   3.063   0.252  15.238  0.1960 -1.2417  0.3485
   12DOPE  H13S 1485   3.191   0.166  15.323 -1.7470 -1.7000 -1.8160
   12DOPE  C214 1486   3.258   0.277  15.157  0.8859 -0.0313  0.3693
   12DOPE  H14R 1487   3.353   0.299  15.211  0.7002  1.6221  0.0741
   12DOPE  H14S 1488   3.224   0.364  15.097 -2.7213 -2.0553 -0.7942
   12DOPE  C215 1489   3.252   0.141  15.082 -0.5646  0.0368  0.2609
   12DOPE  H15R 1490   3.150   0.111  15.050 -0.3821 -0.7364  0.4051
   12DOPE  H15S 1491   3.280   0.064  15.156  1.2329 -0.7913 -1.2066
   12DOPE  C216 1492   3.334   0.140  14.953 -0.4535  0.0158 -0.2343
   12DOPE  H16R 1493   3.332   0.041  14.902  3.3740 -0.6391  0.5906
   12DOPE  H16S 1494   3.443   0.159  14.968 -0.7758  2.1275 -0.1836
   12DOPE  C217 1495   3.281   0.241  14.851 -0.2907  0.0903 -0.3815
   12DOPE  H17R 1496   3.310   0.345  14.881  0.6496 -0.2820  0.0403
   12DOPE  H17S 1497   3.170   0.243  14.853 -0.3296 -1.3209  1.3831
   12DOPE  C218 1498   3.345   0.222  14.711 -0.2902  0.8855 -0.2615
   12DOPE  H18R 1499   3.291   0.273  14.628  1.6014  1.0408 -1.4632
   12DOPE  H18S 1500   3.345   0.115  14.682  1.5106  0.4228  1.2575
   12DOPE  H18T 1501   3.453   0.248  14.706 -0.4979  1.5500 -2.5014
   12DOPE   C33 1502   2.691   0.419  16.196 -0.5319  0.1996 -0.2565
   12DOPE   H3X 1503   2.760   0.340  16.235 -0.9040  0.3062  0.6371
   12DOPE   H3Y 1504   2.726   0.516  16.236 -0.6716 -0.9378  2.8872
   12DOPE   C34 1505   2.700   0.413  16.045 -0.3760 -0.1671 -0.4890
   12DOPE   H4X 1506   2.624   0.479  16.001 -0.9109 -1.3151 -1.3315
   12DOPE   H4Y 1507   2.797   0.437  15.996 -0.9853 -0.4262 -1.8564
   12DOPE   C35 1508   2.670   0.269  15.987 -0.4197 -0.4766  0.0758
   12DOPE   H5X 1509   2.566   0.241  16.011 -0.2016 -0.6353  0.8787
   12DOPE   H5Y 1510   2.737   0.203  16.046 -1.2674 -1.6333 -0.2194
   12DOPE   C36 1511   2.696   0.248  15.839 -0.1306 -0.7430  0.3790
   12DOPE   H6X 1512   2.682   0.140  15.817 -2.3314 -1.0723  2.7681
   12DOPE   H6Y 1513   2.798   0.279  15.810 -0.4224 -1.2063 -1.2457
   12DOPE   C37 1514   2.595   0.324  15.746 -0.4497 -0.6202  0.2648
   12DOPE   H7X 1515   2.597   0.265  15.652  1.0029 -0.6081  0.2781
   12DOPE   H7Y 1516   2.495   0.325  15.795 -0.8785 -0.8263 -0.5901
   12DOPE   C38 1517   2.638   0.470  15.707 -0.7444 -0.2830  0.1637
   12DOPE   H8X 1518   2.743   0.464  15.669 -0.2977  3.5441  0.3496
   12DOPE   H8Y 1519   2.643   0.540  15.794 -0.2472 -0.2339  0.1025
   12DOPE   C39 1520   2.546   0.524  15.609  0.2180 -0.3834  0.4512
   12DOPE   H9X 1521   2.474   0.591  15.659  1.6913  0.4338  1.5573
   12DOPE  C310 1522   2.548   0.516  15.470  0.1605  0.0606 -0.0491
   12DOPE  H10X 1523   2.468   0.567  15.414 -1.0648 -0.0457  1.5418
   12DOPE  C311 1524   2.645   0.440  15.381 -0.1876 -0.6001 -0.3852
   12DOPE  H11X 1525   2.700   0.512  15.317 -1.4369 -1.7532 -2.9012
   12DOPE  H11Y 1526   2.715   0.380  15.444 -0.0102  0.3840  0.3727
   12DOPE  C312 1527   2.595   0.339  15.273 -0.3788 -0.0139 -0.7323
   12DOPE  H12X 1528   2.518   0.393  15.214 -0.4364 -1.1843 -1.7657
   12DOPE  H12Y 1529   2.552   0.253  15.328  1.2946 -0.0499  0.6086
   12DOPE  C313 1530   2.703   0.296  15.182  0.6511 -0.2568 -0.6775
   12DOPE  H13X 1531   2.743   0.380  15.121  2.8910 -0.9467 -0.2514
   12DOPE  H13Y 1532   2.788   0.253  15.239  0.0108  0.7508  1.1167
   12DOPE  C314 1533   2.647   0.189  15.084 -0.2766  0.8089  0.1268
   12DOPE  H14X 1534   2.561   0.232  15.029 -0.7525 -0.7728 -0.4377
   12DOPE  H14Y 1535   2.602   0.110  15.148 -0.2688  1.9738  1.6173
   12DOPE  C315 1536   2.747   0.131  14.984  0.1680  0.1950 -0.1574
   12DOPE  H15X 1537   2.692   0.062  14.917  0.8470 -1.2741  0.7397
   12DOPE  H15Y 1538   2.818   0.061  15.034  1.4262  0.4831 -1.4812
   12DOPE  C316 1539   2.834   0.237  14.904 -0.1739  0.6641  0.9580
   12DOPE  H16X 1540   2.930   0.257  14.956  0.6092  1.8788 -0.8167
   12DOPE  H16Y 1541   2.773   0.328  14.884 -2.3477 -0.8759  0.1788
   12DOPE  C317 1542   2.866   0.197  14.761 -1.1127 -0.3066  0.1644
   12DOPE  H17X 1543   2.942   0.116  14.760 -0.9773 -0.1924 -1.9158
   12DOPE  H17Y 1544   2.773   0.158  14.716 -0.6034 -0.1753 -1.0331
   12DOPE  C318 1545   2.931   0.309  14.687  0.5355  0.1077 -0.5687
   12DOPE  H18X 1546   3.041   0.299  14.701  0.3330 -0.0163  1.1699
   12DOPE  H18Y 1547   2.910   0.318  14.578 -0.5851  1.2146 -0.2819
   12DOPE  H18Z 1548   2.907   0.402  14.743  0.7254 -1.8962  3.1226
   13DOPE     N 1549   1.525   2.401  17.128 -0.6331 -0.3180 -0.2091
   13DOPE   HN1 1550   1.553   2.305  17.101  0.0462 -0.3551  0.5892
   13DOPE   HN2 1551   1.604   2.469  17.121 -0.4681  0.0889  3.6312
   13DOPE   HN3 1552   1.506   2.395  17.230  0.8202 -2.1112  0.0190
   13DOPE   C12 1553   1.416   2.441  17.041  1.0618 -0.6050 -0.7462
   13DOPE  H12A 1554   1.324   2.393  17.079  1.1470  0.5617  1.0448
   13DOPE  H12B 1555   1.432   2.403  16.938  2.0869 -3.3148  0.3240
   13DOPE   C11 1556   1.399   2.589  17.062 -0.4014  0.5833 -0.3506
   13DOPE  H11A 1557   1.420   2.630  17.163 -0.4406 -0.1711 -0.0292
   13DOPE  H11B 1558   1.295   2.613  17.032 -0.0540  1.3485 -0.9758
   13DOPE     P 1559   1.425   2.833  16.948  0.0296 -0.1582  0.2535
   13DOPE   O13 1560   1.516   2.894  16.847  0.9156  0.1138 -0.2289
   13DOPE   O14 1561   1.415   2.902  17.077  0.0379  0.8802  0.0642
   13DOPE   O11 1562   1.285   2.823  16.886  0.2030  0.0103 -0.1274
   13DOPE   O12 1563   1.474   2.681  16.973  0.0782 -0.3261  0.1771
   13DOPE    C1 1564   1.237   2.742  16.783  0.7525 -0.0502  0.2669
   13DOPE    HA 1565   1.169   2.669  16.831  0.9004  0.3736  1.1475
   13DOPE    HB 1566   1.321   2.685  16.736 -0.9844  0.4596 -3.8969
   13DOPE    C2 1567   1.171   2.837  16.685  0.3956  0.3668  0.5993
   13DOPE    HS 1568   1.099   2.904  16.736  0.3318  0.4119  0.4511
   13DOPE   O21 1569   1.091   2.763  16.589  0.7613  0.1583 -0.2382
   13DOPE   C21 1570   1.024   2.840  16.501 -0.3340 -0.3027 -0.3101
   13DOPE   O22 1571   1.014   2.961  16.508  0.3013  0.3360 -0.5632
   13DOPE   C22 1572   0.939   2.748  16.412 -0.2799 -0.3928  0.3378
   13DOPE   H2R 1573   0.839   2.793  16.391 -0.6774 -0.3637  2.1556
   13DOPE   H2S 1574   0.935   2.650  16.465 -0.9142  0.5163  2.0101
   13DOPE    C3 1575   1.287   2.919  16.616 -0.0728 -0.5468  0.4631
   13DOPE    HX 1576   1.331   2.983  16.696 -0.9940  1.0493 -0.2454
   13DOPE    HY 1577   1.253   2.993  16.540 -3.2356  0.7162  2.8573
   13DOPE   O31 1578   1.393   2.833  16.564 -0.2226 -0.9468  0.4960
   13DOPE   C31 1579   1.511   2.897  16.548  0.8041 -0.0633  0.2768
   13DOPE   O32 1580   1.533   3.014  16.562  0.2166 -0.4716  0.4252
   13DOPE   C32 1581   1.616   2.791  16.525 -0.3710  0.4735 -0.0113
   13DOPE   H2X 1582   1.712   2.841  16.501  0.4188 -1.5723 -1.2924
   13DOPE   H2Y 1583   1.619   2.743  16.625  0.5388  0.9085  0.1778
   13DOPE   C23 1584   0.998   2.726  16.270 -0.1388 -0.0930  0.4200
   13DOPE   H3R 1585   0.940   2.652  16.209 -1.6205  1.2869  0.0900
   13DOPE   H3S 1586   1.099   2.680  16.268 -0.2551 -0.4088 -2.1462
   13DOPE   C24 1587   1.018   2.852  16.182  0.9888  0.5067 -0.1232
   13DOPE   H4R 1588   1.075   2.924  16.244  1.7768  0.0598 -0.3149
   13DOPE   H4S 1589   0.915   2.889  16.162  0.9644 -0.5023 -2.1081
   13DOPE   C25 1590   1.081   2.801  16.054 -0.3024 -0.0861 -0.1242
   13DOPE   H5R 1591   1.052   2.695  16.035 -0.8174  0.0336 -0.0212
   13DOPE   H5S 1592   1.189   2.784  16.073 -0.5620 -0.2164  1.3536
   13DOPE   C26 1593   1.047   2.884  15.929  0.2485  0.4715 -0.2042
   13DOPE   H6R 1594   1.082   2.988  15.948  0.3504  0.0794  2.0090
   13DOPE   H6S 1595   0.939   2.877  15.904 -0.1441 -0.6205  1.6209
   13DOPE   C27 1596   1.130   2.838  15.805  1.3784 -0.3840 -0.6569
   13DOPE   H7R 1597   1.117   2.732  15.773 -1.2509  0.1334 -1.5706
   13DOPE   H7S 1598   1.231   2.842  15.850  0.2937  1.0858  1.8404
   13DOPE   C28 1599   1.126   2.932  15.684 -0.2835 -0.3287  0.5807
   13DOPE   H8R 1600   1.205   2.910  15.608 -1.5570  0.1114 -0.9144
   13DOPE   H8S 1601   1.145   3.033  15.726 -0.2378 -0.1584  0.1544
   13DOPE   C29 1602   0.989   2.926  15.621  0.5976  0.0525  0.2454
   13DOPE   H9R 1603   0.903   2.951  15.685  0.5297 -2.6689  1.3669
   13DOPE  C210 1604   0.964   2.900  15.490 -0.3470  0.1877  0.1509
   13DOPE  H10R 1605   0.862   2.907  15.449 -0.1028 -0.8175 -0.6552
   13DOPE  C211 1606   1.070   2.873  15.383  0.3056  0.1466 -0.5257
   13DOPE  H11R 1607   1.074   2.763  15.371 -1.9324 -0.3617  2.3886
   13DOPE  H11S 1608   1.170   2.919  15.399 -0.1950  0.7663  1.0891
   13DOPE  C212 1609   1.016   2.908  15.243  0.1825 -0.3406 -0.0030
   13DOPE  H12R 1610   0.977   3.012  15.237 -0.8045 -0.6712  0.4282
   13DOPE  H12S 1611   0.930   2.840  15.224  0.7928 -0.7677 -1.3372
   13DOPE  C213 1612   1.119   2.884  15.131  0.1479  0.7515  0.2066
   13DOPE  H13R 1613   1.132   2.774  15.124  1.6122  0.9841 -1.4716
   13DOPE  H13S 1614   1.221   2.924  15.152  0.5873  0.7218 -1.6635
   13DOPE  C214 1615   1.070   2.953  14.999 -0.1410  0.9643 -0.0697
   13DOPE  H14R 1616   1.032   3.056  15.015 -0.9847  1.2352 -3.2217
   13DOPE  H14S 1617   0.999   2.884  14.948  2.5000 -1.8089 -0.2938
   13DOPE  C215 1618   1.180   2.974  14.884 -0.4249 -0.6415  0.3295
   13DOPE  H15R 1619   1.251   3.037  14.941 -0.9398  1.2913 -1.0764
   13DOPE  H15S 1620   1.140   3.036  14.801 -0.0754  1.9876  1.9956
   13DOPE  C216 1621   1.240   2.848  14.825 -0.8413 -0.2251 -0.6254
   13DOPE  H16R 1622   1.171   2.789  14.761 -0.9123 -0.9796  0.1190
   13DOPE  H16S 1623   1.240   2.770  14.905  0.4914  1.6263  1.2835
   13DOPE  C217 1624   1.383   2.873  14.763 -0.1468  0.0549  0.2879
   13DOPE  H17R 1625   1.446   2.907  14.848  1.2128  0.2173 -0.7512
   13DOPE  H17S 1626   1.391   2.948  14.682 -0.5043  0.7085  0.8465
   13DOPE  C218 1627   1.440   2.743  14.701  1.1456  0.4459 -0.0879
   13DOPE  H18R 1628   1.360   2.711  14.630  0.7667  1.4437 -0.1177
   13DOPE  H18S 1629   1.456   2.659  14.773 -1.1634  0.6031  0.6882
   13DOPE  H18T 1630   1.537   2.768  14.654  2.6228 -1.6328  1.6484
   13DOPE   C33 1631   1.587   2.698  16.411 -0.6560  0.5215 -0.2152
   13DOPE   H3X 1632   1.517   2.615  16.436  0.5568 -1.0438 -1.8080
   13DOPE   H3Y 1633   1.686   2.650  16.395  0.9667  3.5935 -0.1618
   13DOPE   C34 1634   1.536   2.769  16.292  0.1349  0.1892 -0.1072
   13DOPE   H4X 1635   1.426   2.775  16.285  0.0644 -1.0929 -0.3588
   13DOPE   H4Y 1636   1.561   2.877  16.292 -1.4192  0.5958 -1.6698
   13DOPE   C35 1637   1.592   2.714  16.168 -0.3049 -0.0592  0.5862
   13DOPE   H5X 1638   1.545   2.617  16.143 -1.3369  0.3650  0.7979
   13DOPE   H5Y 1639   1.700   2.694  16.179 -0.3023 -1.6240 -1.5948
   13DOPE   C36 1640   1.575   2.810  16.047 -0.4093 -0.0027  0.3531
   13DOPE   H6X 1641   1.589   2.912  16.088 -2.1001  0.3297  0.1752
   13DOPE   H6Y 1642   1.467   2.802  16.023 -0.3621  1.8458 -0.6158
   13DOPE   C37 1643   1.665   2.781  15.928 -0.1678 -0.6321 -0.4551
   13DOPE   H7X 1644   1.773   2.773  15.952 -0.0487 -2.7250 -1.4373
   13DOPE   H7Y 1645   1.638   2.682  15.884  0.2060 -0.2694 -1.5500
   13DOPE   C38 1646   1.640   2.884  15.812 -0.3551 -0.5706  0.2716
   13DOPE   H8X 1647   1.726   2.882  15.742 -0.0038  1.9164  0.5389
   13DOPE   H8Y 1648   1.632   2.986  15.855 -0.0858  0.1358 -1.2862
   13DOPE   C39 1649   1.508   2.855  15.737 -0.4434 -0.5956  0.6122
   13DOPE   H9X 1650   1.433   2.788  15.783 -0.0873 -1.0299  0.5748
   13DOPE  C310 1651   1.491   2.903  15.605 -0.5749 -1.1692 -0.6650
   13DOPE  H10X 1652   1.416   2.857  15.539 -1.9077  2.0125 -1.5699
   13DOPE  C311 1653   1.584   2.995  15.526  0.0994  0.3010 -0.2249
   13DOPE  H11X 1654   1.534   3.089  15.492  5.1765  3.3922 -0.3289
   13DOPE  H11Y 1655   1.663   3.039  15.591 -0.8873  1.1583  0.4293
   13DOPE  C312 1656   1.652   2.920  15.411  0.0807 -0.7511  0.3435
   13DOPE  H12X 1657   1.681   2.818  15.444 -1.2242 -1.5033 -0.7293
   13DOPE  H12Y 1658   1.745   2.970  15.375 -0.5952  1.1777  1.1586
   13DOPE  C313 1659   1.568   2.921  15.278 -0.9095  0.0433  0.7096
   13DOPE  H13X 1660   1.485   2.848  15.287 -0.8310  0.0013  1.1349
   13DOPE  H13Y 1661   1.529   3.023  15.259 -0.8600 -0.1574 -0.5145
   13DOPE  C314 1662   1.646   2.888  15.151  0.4186  0.2933 -0.1407
   13DOPE  H14X 1663   1.571   2.855  15.076 -2.0538  3.7116  0.5242
   13DOPE  H14Y 1664   1.722   2.810  15.169  0.8602  0.7856  0.1539
   13DOPE  C315 1665   1.720   3.002  15.095  0.3011 -0.7908  0.7735
   13DOPE  H15X 1666   1.799   3.043  15.163  1.0768  3.0267 -2.0953
   13DOPE  H15Y 1667   1.654   3.087  15.068  0.4464 -1.4569 -1.9819
   13DOPE  C316 1668   1.792   2.967  14.961 -0.2155 -0.1379  0.4044
   13DOPE  H16X 1669   1.731   2.903  14.894 -0.5265  0.2123  0.3453
   13DOPE  H16Y 1670   1.884   2.911  14.987 -0.8692 -0.9709  0.9549
   13DOPE  C317 1671   1.841   3.096  14.889 -0.3977  0.4015 -0.6128
   13DOPE  H17X 1672   1.756   3.166  14.874 -1.8524 -1.3621 -0.8731
   13DOPE  H17Y 1673   1.915   3.135  14.963 -0.8832 -1.9237  1.2372
   13DOPE  C318 1674   1.914   3.072  14.757  0.5472 -0.0513 -0.5303
   13DOPE  H18X 1675   1.932   3.170  14.708  1.5203  0.5726  0.9869
   13DOPE  H18Y 1676   2.017   3.033  14.771  1.6077  2.3601 -1.1712
   13DOPE  H18Z 1677   1.856   3.003  14.692 -0.8649 -1.5483  2.1262
   14DOPE     N 1678   5.236   6.481  16.934 -0.4155  0.1892 -0.1122
   14DOPE   HN1 1679   5.188   6.539  16.862 -0.2583  0.6938  0.1873
   14DOPE   HN2 1680   5.196   6.387  16.951 -1.4094  0.6657  0.2802
   14DOPE   HN3 1681   5.226   6.539  17.019 -1.0580 -1.3457  0.9025
   14DOPE   C12 1682   5.381   6.465  16.895 -0.4907  0.1513  0.2626
   14DOPE  H12A 1683   5.430   6.412  16.979  0.1529  1.5517  0.8079
   14DOPE  H12B 1684   5.412   6.572  16.888 -1.3801  0.4605  0.9302
   14DOPE   C11 1685   5.394   6.384  16.766 -0.1093 -0.6132  0.0210
   14DOPE  H11A 1686   5.502   6.381  16.742 -0.5197 -1.6633 -1.8504
   14DOPE  H11B 1687   5.357   6.448  16.683  2.7899  0.1830 -0.7760
   14DOPE     P 1688   5.433   6.136  16.824  0.0628  0.5353  0.7490
   14DOPE   O13 1689   5.365   6.066  16.937  0.3076 -0.3738  0.5346
   14DOPE   O14 1690   5.572   6.182  16.854 -0.0040 -0.1622  0.5084
   14DOPE   O11 1691   5.430   6.040  16.699  0.6680 -0.2938  0.2261
   14DOPE   O12 1692   5.340   6.255  16.779  0.1978  0.1473 -0.0214
   14DOPE    C1 1693   5.310   6.012  16.630  0.0857  0.8736  1.0648
   14DOPE    HA 1694   5.238   6.097  16.630  0.5661  1.3041  2.7094
   14DOPE    HB 1695   5.259   5.924  16.673  1.8637 -0.6874  0.1111
   14DOPE    C2 1696   5.346   5.968  16.485 -0.1297 -0.4828  0.3894
   14DOPE    HS 1697   5.259   5.996  16.421  2.1234  2.1140 -1.7736
   14DOPE   O21 1698   5.364   5.833  16.475  0.3528 -0.3331  0.0786
   14DOPE   C21 1699   5.259   5.756  16.459  1.0935 -0.5835 -0.0553
   14DOPE   O22 1700   5.143   5.789  16.473  0.7054 -0.2369 -0.4534
   14DOPE   C22 1701   5.292   5.610  16.421  0.1680 -0.8137 -0.2718
   14DOPE   H2R 1702   5.347   5.568  16.507  2.6227 -2.2387 -2.4028
   14DOPE   H2S 1703   5.358   5.610  16.332 -1.7946  0.4831 -1.8450
   14DOPE    C3 1704   5.468   6.042  16.425 -0.3700 -0.5211 -0.0962
   14DOPE    HX 1705   5.567   6.036  16.475 -0.2498 -1.7325 -0.4519
   14DOPE    HY 1706   5.443   6.146  16.455  1.8855 -0.8459  3.5569
   14DOPE   O31 1707   5.468   6.027  16.281 -0.4698 -0.4550  0.4201
   14DOPE   C31 1708   5.573   5.946  16.241  0.9813 -0.5787 -0.7092
   14DOPE   O32 1709   5.663   5.906  16.312  0.5345 -0.0286 -0.4987
   14DOPE   C32 1710   5.558   5.908  16.097 -0.0285 -0.2324 -0.1055
   14DOPE   H2X 1711   5.477   5.967  16.051  2.0613  0.7777 -2.7116
   14DOPE   H2Y 1712   5.650   5.934  16.040 -0.1079 -1.5145 -0.8467
   14DOPE   C23 1713   5.161   5.520  16.407 -0.9148 -0.4778  0.1535
   14DOPE   H3R 1714   5.092   5.534  16.493 -0.1352 -0.9400  0.8759
   14DOPE   H3S 1715   5.199   5.416  16.407 -0.3111 -0.2700 -0.8488
   14DOPE   C24 1716   5.092   5.545  16.273  0.4777  0.3664  0.5648
   14DOPE   H4R 1717   5.072   5.654  16.265  0.0552  0.2348 -0.2145
   14DOPE   H4S 1718   4.995   5.490  16.277 -0.4193  1.9486  1.9457
   14DOPE   C25 1719   5.184   5.500  16.158  0.7845  0.0847  0.1191
   14DOPE   H5R 1720   5.230   5.403  16.184 -2.4884 -2.1549 -1.7191
   14DOPE   H5S 1721   5.266   5.571  16.134  1.2240 -0.9809 -1.7061
   14DOPE   C26 1722   5.110   5.481  16.023  0.6783 -0.1339 -0.0142
   14DOPE   H6R 1723   5.063   5.579  15.999  1.0521 -0.2628 -1.3510
   14DOPE   H6S 1724   5.025   5.409  16.030  0.7793 -0.4366 -1.5094
   14DOPE   C27 1725   5.199   5.439  15.904  0.5263 -0.1813  0.6774
   14DOPE   H7R 1726   5.242   5.339  15.925  1.0033 -0.1689 -0.2013
   14DOPE   H7S 1727   5.270   5.524  15.915  0.4469 -0.1068  0.6171
   14DOPE   C28 1728   5.111   5.432  15.781  0.0363 -0.2483 -0.6683
   14DOPE   H8R 1729   5.033   5.511  15.786  0.9801  0.6297  2.1756
   14DOPE   H8S 1730   5.063   5.334  15.802  0.9307 -0.9580 -1.7757
   14DOPE   C29 1731   5.181   5.435  15.645  0.8555  1.0176  0.4506
   14DOPE   H9R 1732   5.230   5.532  15.627 -0.1679  1.4831  0.1077
   14DOPE  C210 1733   5.171   5.344  15.546 -0.3255  0.0183 -0.3909
   14DOPE  H10R 1734   5.215   5.362  15.447  0.4692 -0.6401 -0.1693
   14DOPE  C211 1735   5.088   5.222  15.566  0.3810  0.9960 -0.0232
   14DOPE  H11R 1736   4.980   5.242  15.582  0.3467 -0.3696  1.6921
   14DOPE  H11S 1737   5.128   5.169  15.655  0.3680  0.9884 -0.0217
   14DOPE  C212 1738   5.086   5.120  15.453 -0.2421 -0.1603  0.9403
   14DOPE  H12R 1739   5.040   5.023  15.486  1.3656 -0.9801  0.8639
   14DOPE  H12S 1740   5.191   5.102  15.422 -0.9734 -0.2474 -1.6521
   14DOPE  C213 1741   5.014   5.179  15.331  0.4068  0.4033  1.0683
   14DOPE  H13R 1742   5.063   5.271  15.293 -1.1375  1.1321  0.7250
   14DOPE  H13S 1743   4.908   5.200  15.357 -0.5226 -2.0460 -0.4135
   14DOPE  C214 1744   5.005   5.075  15.213 -0.3448 -0.3873 -0.0936
   14DOPE  H14R 1745   4.964   4.981  15.255  2.7911 -1.4969  0.7270
   14DOPE  H14S 1746   5.107   5.050  15.177 -0.6125 -2.6611  0.5577
   14DOPE  C215 1747   4.908   5.121  15.106 -0.4640 -0.0340  0.3499
   14DOPE  H15R 1748   4.938   5.207  15.042  0.1081 -0.0905  0.5368
   14DOPE  H15S 1749   4.816   5.162  15.153 -1.4316 -0.0893 -1.4185
   14DOPE  C216 1750   4.867   5.007  15.014 -0.8269  0.1705 -0.9188
   14DOPE  H16R 1751   4.820   4.918  15.062 -0.4355  0.3698 -0.1499
   14DOPE  H16S 1752   4.968   4.970  14.984  0.1357  0.0571  2.0546
   14DOPE  C217 1753   4.784   5.051  14.900  0.0672 -0.2021  0.1748
   14DOPE  H17R 1754   4.836   5.128  14.840  2.2062 -0.2557  1.8428
   14DOPE  H17S 1755   4.684   5.091  14.928 -0.4430 -1.5484  0.3836
   14DOPE  C218 1756   4.760   4.934  14.799 -0.3494 -0.6059 -0.4907
   14DOPE  H18R 1757   4.680   4.869  14.841 -0.7344  0.0564 -0.1789
   14DOPE  H18S 1758   4.850   4.873  14.779 -1.6231 -2.0422 -2.1101
   14DOPE  H18T 1759   4.722   4.963  14.699  0.2104 -0.5191 -0.6793
   14DOPE   C33 1760   5.515   5.760  16.078  0.1652  0.3499  0.2462
   14DOPE   H3X 1761   5.406   5.745  16.097 -0.3412  2.5599 -0.5903
   14DOPE   H3Y 1762   5.560   5.697  16.157  0.4075 -1.8195 -1.5480
   14DOPE   C34 1763   5.555   5.695  15.947 -0.3704 -0.0924  0.0583
   14DOPE   H4X 1764   5.665   5.706  15.935 -0.3027  0.0922  0.7909
   14DOPE   H4Y 1765   5.521   5.590  15.933 -0.8144  0.2418 -1.5860
   14DOPE   C35 1766   5.491   5.757  15.828  0.1648  0.3292 -0.4475
   14DOPE   H5X 1767   5.517   5.860  15.798 -2.1537  0.9902 -0.4279
   14DOPE   H5Y 1768   5.382   5.752  15.849  0.7130  0.7512  3.2737
   14DOPE   C36 1769   5.524   5.673  15.698 -0.1166 -0.1619  0.5982
   14DOPE   H6X 1770   5.470   5.576  15.705 -0.2359 -0.1338  0.0711
   14DOPE   H6Y 1771   5.633   5.655  15.690  0.2209  1.7757  0.3638
   14DOPE   C37 1772   5.458   5.744  15.580 -0.3741 -1.0287  0.0621
   14DOPE   H7X 1773   5.349   5.721  15.589 -0.4046 -0.5846  0.9743
   14DOPE   H7Y 1774   5.474   5.852  15.602  0.9359 -0.8779 -1.4702
   14DOPE   C38 1775   5.504   5.691  15.441 -0.3267 -0.0696  0.2169
   14DOPE   H8X 1776   5.466   5.587  15.445 -0.5873 -0.0618 -1.3511
   14DOPE   H8Y 1777   5.614   5.683  15.423 -0.2290  0.9938  0.2744
   14DOPE   C39 1778   5.437   5.777  15.341 -0.0160 -0.2356 -0.0473
   14DOPE   H9X 1779   5.488   5.871  15.316 -1.4709  0.0737 -2.1621
   14DOPE  C310 1780   5.331   5.743  15.270  0.9177  0.8499  0.3011
   14DOPE  H10X 1781   5.283   5.812  15.199  1.4725  0.9175 -0.0057
   14DOPE  C311 1782   5.250   5.616  15.287  0.0605  0.3481 -0.5221
   14DOPE  H11X 1783   5.289   5.548  15.365  0.0105 -0.5379 -1.2591
   14DOPE  H11Y 1784   5.145   5.645  15.310  0.7040  2.0625  0.4299
   14DOPE  C312 1785   5.250   5.535  15.154  0.3915  0.1354  0.1196
   14DOPE  H12X 1786   5.188   5.445  15.173 -2.1036  1.7441  0.0346
   14DOPE  H12Y 1787   5.356   5.517  15.125 -0.1885 -0.4224 -1.7856
   14DOPE  C313 1788   5.181   5.607  15.035  0.1810  0.4869  0.3034
   14DOPE  H13X 1789   5.077   5.642  15.056 -0.0667 -0.4112  0.6271
   14DOPE  H13Y 1790   5.240   5.695  15.003 -1.2382  0.8135 -1.6577
   14DOPE  C314 1791   5.173   5.525  14.904  0.2603 -0.0518  0.1376
   14DOPE  H14X 1792   5.278   5.503  14.874  0.2315 -1.6121  1.0859
   14DOPE  H14Y 1793   5.125   5.593  14.830 -0.6888 -1.0980 -0.2295
   14DOPE  C315 1794   5.100   5.389  14.906  0.4239 -0.2114  0.8446
   14DOPE  H15X 1795   4.999   5.401  14.951 -1.1296 -2.4531 -1.7244
   14DOPE  H15Y 1796   5.155   5.317  14.971  1.0142 -1.5253 -1.0059
   14DOPE  C316 1797   5.084   5.337  14.759  0.4572 -0.5374 -0.1999
   14DOPE  H16X 1798   5.078   5.227  14.768  2.8249 -0.9511 -2.5571
   14DOPE  H16Y 1799   5.172   5.370  14.699 -0.3021 -0.4267 -1.2821
   14DOPE  C317 1800   4.949   5.385  14.697  0.1383  0.6044  0.4973
   14DOPE  H17X 1801   4.881   5.348  14.777 -0.5018 -1.0195 -0.7452
   14DOPE  H17Y 1802   4.942   5.496  14.693  1.7336  0.7390  0.9152
   14DOPE  C318 1803   4.915   5.323  14.557  0.3396  1.0907 -0.7135
   14DOPE  H18X 1804   4.924   5.214  14.571  0.2945  1.3431  1.7236
   14DOPE  H18Y 1805   4.819   5.354  14.512  0.1906  0.1089 -1.0895
   14DOPE  H18Z 1806   4.989   5.359  14.482  0.6023  2.0890 -0.0103
   15DOPE     N 1807   0.319   3.508  17.183  0.1523  0.2108  0.1750
   15DOPE   HN1 1808   0.248   3.439  17.151  0.6196  0.6272 -1.8790
   15DOPE   HN2 1809   0.290   3.608  17.171 -0.2576  0.6751  3.9162
   15DOPE   HN3 1810   0.411   3.501  17.136 -1.1840 -0.7923 -2.5304
   15DOPE   C12 1811   0.341   3.495  17.329 -0.0122  0.0904  0.1280
   15DOPE  H12A 1812   0.423   3.423  17.350  0.3871  0.5575  0.1821
   15DOPE  H12B 1813   0.252   3.440  17.369 -0.3836  1.4704  1.2794
   15DOPE   C11 1814   0.352   3.634  17.384 -0.0992  0.0886  0.1338
   15DOPE  H11A 1815   0.417   3.697  17.319 -0.5077  0.1521 -0.2149
   15DOPE  H11B 1816   0.403   3.641  17.483 -0.9464  1.7759  0.4947
   15DOPE     P 1817   0.178   3.808  17.304  0.0018  0.2662 -0.3602
   15DOPE   O13 1818   0.271   3.917  17.344  0.1957  0.2501  0.0342
   15DOPE   O14 1819   0.033   3.832  17.326  0.2796 -1.0678 -0.8725
   15DOPE   O11 1820   0.201   3.770  17.154 -0.3515 -0.3114  0.3899
   15DOPE   O12 1821   0.225   3.692  17.398  0.1271  0.3417  0.3842
   15DOPE    C1 1822   0.283   3.846  17.064 -0.2616 -0.6163  0.4115
   15DOPE    HA 1823   0.392   3.838  17.087  0.5085 -2.1786 -3.0874
   15DOPE    HB 1824   0.256   3.953  17.050 -1.3128 -0.9723 -0.4347
   15DOPE    C2 1825   0.264   3.797  16.914 -0.5355 -1.0059  0.2444
   15DOPE    HS 1826   0.162   3.835  16.889 -0.2054 -1.3746 -1.8485
   15DOPE   O21 1827   0.265   3.650  16.905  0.5375 -0.2131  0.0738
   15DOPE   C21 1828   0.197   3.604  16.798 -0.1103  0.1364 -0.0414
   15DOPE   O22 1829   0.105   3.661  16.751  0.7829  0.2105 -0.0225
   15DOPE   C22 1830   0.251   3.462  16.763 -0.0146 -0.1257  0.3696
   15DOPE   H2R 1831   0.202   3.382  16.823  0.6272 -3.4714 -3.1403
   15DOPE   H2S 1832   0.359   3.479  16.782  0.0961  0.7024 -0.9317
   15DOPE    C3 1833   0.365   3.860  16.807 -0.0860 -0.0356  0.2018
   15DOPE    HX 1834   0.453   3.793  16.805 -0.5834 -0.6916 -0.0945
   15DOPE    HY 1835   0.390   3.961  16.845 -3.1959  1.6484 -1.7941
   15DOPE   O31 1836   0.305   3.864  16.671  1.0004  0.2300  0.7303
   15DOPE   C31 1837   0.246   3.983  16.627  0.0275  0.3033  0.2859
   15DOPE   O32 1838   0.229   4.078  16.699  0.5907 -0.1606 -0.3478
   15DOPE   C32 1839   0.223   3.988  16.474 -0.7035 -0.3550 -0.0304
   15DOPE   H2X 1840   0.168   3.901  16.431  0.1560 -1.2798  0.6669
   15DOPE   H2Y 1841   0.150   4.070  16.457  1.0238  1.0889 -0.8196
   15DOPE   C23 1842   0.229   3.414  16.622 -0.0446 -0.7660  0.3627
   15DOPE   H3R 1843   0.125   3.380  16.600 -0.1972 -1.2293  1.7156
   15DOPE   H3S 1844   0.298   3.327  16.621  0.7495 -0.1653  1.2135
   15DOPE   C24 1845   0.277   3.509  16.514 -0.3325 -0.2745 -0.3432
   15DOPE   H4R 1846   0.384   3.533  16.533  0.0491 -0.1359 -2.3886
   15DOPE   H4S 1847   0.210   3.598  16.512  2.7194  2.2045  0.1434
   15DOPE   C25 1848   0.285   3.452  16.369  0.2990  0.4922  0.2555
   15DOPE   H5R 1849   0.184   3.439  16.324  0.4185  1.8622 -0.4538
   15DOPE   H5S 1850   0.334   3.352  16.376 -1.7875 -0.6539 -0.5670
   15DOPE   C26 1851   0.352   3.547  16.267  0.0664 -0.3868  0.6915
   15DOPE   H6R 1852   0.451   3.570  16.311 -0.4777  1.8035  0.8610
   15DOPE   H6S 1853   0.292   3.640  16.260 -0.9973 -0.8207  2.9635
   15DOPE   C27 1854   0.367   3.478  16.131  0.0684 -0.1489  0.4301
   15DOPE   H7R 1855   0.263   3.477  16.090  0.2428  0.2297 -0.0237
   15DOPE   H7S 1856   0.400   3.372  16.138 -1.0567 -0.4453  1.8006
   15DOPE   C28 1857   0.458   3.573  16.047  0.4268  0.5321 -0.2714
   15DOPE   H8R 1858   0.489   3.509  15.962 -1.0319 -0.6866  0.0824
   15DOPE   H8S 1859   0.553   3.592  16.103  0.1530  0.4185  0.2392
   15DOPE   C29 1860   0.408   3.709  15.999 -0.8953  0.1423 -0.2544
   15DOPE   H9R 1861   0.335   3.750  16.069 -1.4604  0.9364 -1.2733
   15DOPE  C210 1862   0.436   3.776  15.884  0.2909  0.2575 -1.0778
   15DOPE  H10R 1863   0.408   3.882  15.881  0.3236  0.4854  2.2945
   15DOPE  C211 1864   0.534   3.728  15.776  0.2136 -0.4938 -0.3684
   15DOPE  H11R 1865   0.588   3.635  15.803  1.4284 -0.2997 -1.9770
   15DOPE  H11S 1866   0.613   3.806  15.778 -0.5626  0.2951  1.4396
   15DOPE  C212 1867   0.479   3.715  15.630 -0.4720 -0.0349  0.0510
   15DOPE  H12R 1868   0.413   3.799  15.600 -0.3919 -0.3953 -1.2143
   15DOPE  H12S 1869   0.403   3.635  15.618 -0.9815  0.0872  2.0826
   15DOPE  C213 1870   0.590   3.699  15.525  0.1963 -0.3430  0.2986
   15DOPE  H13R 1871   0.626   3.596  15.547 -0.3772 -1.2105 -2.4403
   15DOPE  H13S 1872   0.674   3.769  15.546  0.1586  0.4384 -1.9400
   15DOPE  C214 1873   0.541   3.708  15.374  0.0841  0.3074  0.2760
   15DOPE  H14R 1874   0.480   3.800  15.366  0.5372  0.4821 -1.6857
   15DOPE  H14S 1875   0.474   3.620  15.360  1.3532 -0.4307 -1.4703
   15DOPE  C215 1876   0.662   3.733  15.276 -0.2798  0.5119 -0.8658
   15DOPE  H15R 1877   0.746   3.661  15.288 -0.1226  1.0261  1.4525
   15DOPE  H15S 1878   0.706   3.832  15.302 -0.3313 -0.5374  4.1111
   15DOPE  C216 1879   0.609   3.733  15.128 -0.2482 -0.1432 -0.2755
   15DOPE  H16R 1880   0.689   3.770  15.060  0.9613 -1.8404  0.1492
   15DOPE  H16S 1881   0.525   3.806  15.129 -1.8194 -1.8867  1.6376
   15DOPE  C217 1882   0.572   3.596  15.082  0.2377 -0.7085  0.4220
   15DOPE  H17R 1883   0.487   3.562  15.146  0.0937 -0.6873  0.2425
   15DOPE  H17S 1884   0.662   3.533  15.100 -0.7893 -1.4571  3.7489
   15DOPE  C218 1885   0.529   3.595  14.931 -0.1706 -0.0094 -0.1494
   15DOPE  H18R 1886   0.607   3.621  14.857  0.6562  2.0356  1.3192
   15DOPE  H18S 1887   0.448   3.668  14.907  0.5288  0.4736 -1.0857
   15DOPE  H18T 1888   0.503   3.488  14.918 -0.6274 -0.3838  2.9640
   15DOPE   C33 1889   0.357   4.003  16.390  0.3766  0.2321  0.6590
   15DOPE   H3X 1890   0.398   3.902  16.368  2.1300  1.3101 -1.4203
   15DOPE   H3Y 1891   0.437   4.052  16.450  0.0650  0.1729  1.1315
   15DOPE   C34 1892   0.342   4.076  16.249  0.0698  0.5984 -0.0438
   15DOPE   H4X 1893   0.254   4.028  16.200 -0.8802  1.4380  0.7806
   15DOPE   H4Y 1894   0.324   4.184  16.268  2.8492  1.5670 -2.2753
   15DOPE   C35 1895   0.466   4.057  16.162  0.1582 -0.2075 -0.1766
   15DOPE   H5X 1896   0.483   3.948  16.162  0.1982 -0.2077  0.4288
   15DOPE   H5Y 1897   0.556   4.095  16.216  0.0655 -0.8718  0.4632
   15DOPE   C36 1898   0.461   4.121  16.018  0.4309 -0.0160  0.6014
   15DOPE   H6X 1899   0.446   4.230  16.034  1.6435  0.1676  0.5493
   15DOPE   H6Y 1900   0.368   4.083  15.970  0.4504 -0.2626  0.7569
   15DOPE   C37 1901   0.580   4.101  15.927 -0.1048 -0.2982 -0.9275
   15DOPE   H7X 1902   0.669   4.152  15.969  0.3152  1.4257 -3.6229
   15DOPE   H7Y 1903   0.608   3.994  15.915 -0.0361 -0.4315  0.3008
   15DOPE   C38 1904   0.562   4.176  15.795  0.6813  0.3584 -0.1315
   15DOPE   H8X 1905   0.661   4.170  15.746  0.7515 -0.8148  0.1034
   15DOPE   H8Y 1906   0.540   4.282  15.817 -1.3208 -0.1690  0.6329
   15DOPE   C39 1907   0.449   4.119  15.709 -0.1142 -0.0001  0.2373
   15DOPE   H9X 1908   0.363   4.094  15.773  0.8042  0.8909  1.9206
   15DOPE  C310 1909   0.458   4.085  15.578 -0.6906 -0.2404 -0.5577
   15DOPE  H10X 1910   0.362   4.062  15.530 -1.6326 -0.4142  1.3561
   15DOPE  C311 1911   0.560   4.110  15.475 -0.2103  0.9035  1.0128
   15DOPE  H11X 1912   0.629   4.194  15.496  0.9852  0.4736 -0.9814
   15DOPE  H11Y 1913   0.622   4.018  15.461 -1.3874 -0.1574  2.4024
   15DOPE  C312 1914   0.493   4.149  15.344  0.1266 -0.0164 -0.0843
   15DOPE  H12X 1915   0.438   4.244  15.359 -1.4405 -0.8305 -0.5324
   15DOPE  H12Y 1916   0.412   4.084  15.306 -0.9311  1.6782 -0.8362
   15DOPE  C313 1917   0.593   4.179  15.228  0.5563 -0.0923  0.3196
   15DOPE  H13X 1918   0.665   4.258  15.257  0.8522  0.0861 -0.8589
   15DOPE  H13Y 1919   0.649   4.085  15.212  0.3632  0.2251 -2.8967
   15DOPE  C314 1920   0.529   4.215  15.090  0.0854 -0.0634  0.0003
   15DOPE  H14X 1921   0.479   4.314  15.095 -2.3487 -1.2235  0.3383
   15DOPE  H14Y 1922   0.446   4.149  15.057 -0.2377 -0.7126  1.9322
   15DOPE  C315 1923   0.631   4.213  14.978 -0.3361 -0.3377 -1.0032
   15DOPE  H15X 1924   0.641   4.105  14.953  1.1534 -0.7757  1.1500
   15DOPE  H15Y 1925   0.732   4.234  15.019 -0.5531 -1.9402  0.4914
   15DOPE  C316 1926   0.599   4.313  14.864 -0.7713  0.7171  0.4193
   15DOPE  H16X 1927   0.588   4.418  14.899 -0.8374  0.2776  1.7548
   15DOPE  H16Y 1928   0.500   4.282  14.824 -1.9463  1.8475  2.3244
   15DOPE  C317 1929   0.707   4.317  14.754 -0.1339 -1.0996  0.8228
   15DOPE  H17X 1930   0.806   4.323  14.805 -0.7855 -0.3278  2.0395
   15DOPE  H17Y 1931   0.720   4.222  14.697  4.5793  0.4914 -1.2692
   15DOPE  C318 1932   0.675   4.431  14.656 -0.2411 -0.2313 -0.1512
   15DOPE  H18X 1933   0.676   4.525  14.717 -1.9914  0.5439 -1.2265
   15DOPE  H18Y 1934   0.742   4.429  14.568  0.0601 -0.8407  0.0886
   15DOPE  H18Z 1935   0.571   4.428  14.619 -0.5592  1.2454  0.5275
   16DOPE     N 1936   6.520   5.506  16.580 -1.1360 -0.2380 -0.7042
   16DOPE   HN1 1937   6.548   5.589  16.638 -1.2676  0.5569 -1.7491
   16DOPE   HN2 1938   6.511   5.535  16.481 -1.0305  0.3304 -0.5506
   16DOPE   HN3 1939   6.428   5.476  16.617 -1.8570  0.4867 -1.8511
   16DOPE   C12 1940   6.630   5.404  16.587 -0.7764  0.0904  0.3105
   16DOPE  H12A 1941   6.668   5.395  16.691 -0.1058 -1.2805 -0.0281
   16DOPE  H12B 1942   6.717   5.440  16.527 -1.6893  1.1441 -0.4179
   16DOPE   C11 1943   6.576   5.266  16.537 -0.0018 -0.5257  0.0978
   16DOPE  H11A 1944   6.561   5.264  16.427  0.7056 -3.7536 -0.0316
   16DOPE  H11B 1945   6.475   5.257  16.583  0.2276  1.3329  1.0413
   16DOPE     P 1946   6.623   5.040  16.644 -0.4514  0.0042  0.1034
   16DOPE   O13 1947   6.531   5.090  16.745  0.4095 -0.1388  0.0572
   16DOPE   O14 1948   6.739   4.961  16.695 -0.0451 -0.5238 -0.4617
   16DOPE   O11 1949   6.549   4.941  16.547 -0.1057  0.0976  0.1725
   16DOPE   O12 1950   6.663   5.162  16.559 -0.2078 -0.1639 -0.3168
   16DOPE    C1 1951   6.449   4.986  16.453  0.3078 -0.0921 -0.4565
   16DOPE    HA 1952   6.428   5.094  16.471  2.3228  0.6779 -2.2262
   16DOPE    HB 1953   6.348   4.942  16.464 -0.4375  1.7567  0.6455
   16DOPE    C2 1954   6.509   4.979  16.311  0.2402 -0.4214 -0.1415
   16DOPE    HS 1955   6.571   5.070  16.301 -1.0380  0.4081 -0.8384
   16DOPE   O21 1956   6.416   4.983  16.198 -0.2433  0.3282  0.2340
   16DOPE   C21 1957   6.352   5.098  16.186  0.1317  0.4395 -0.4574
   16DOPE   O22 1958   6.365   5.192  16.266 -0.4409  0.4914  0.2677
   16DOPE   C22 1959   6.261   5.088  16.070  0.0994 -0.0799 -0.0860
   16DOPE   H2R 1960   6.163   5.062  16.114  0.3159 -0.6922  0.0455
   16DOPE   H2S 1961   6.290   5.002  16.006  0.7544 -0.2635  0.4456
   16DOPE    C3 1962   6.591   4.851  16.304 -0.4241  0.0686  0.1839
   16DOPE    HX 1963   6.539   4.762  16.346 -2.8426  2.3241  2.3005
   16DOPE    HY 1964   6.679   4.867  16.370 -1.9525  3.4595  1.6232
   16DOPE   O31 1965   6.635   4.828  16.170 -0.3268  0.0719 -0.2615
   16DOPE   C31 1966   6.734   4.896  16.123 -0.6803 -0.1870 -0.6252
   16DOPE   O32 1967   6.809   4.969  16.189  0.2740 -0.0766 -0.2820
   16DOPE   C32 1968   6.743   4.885  15.970 -0.0106  0.4533  0.1496
   16DOPE   H2X 1969   6.777   4.784  15.942  0.2343  1.3327 -3.1230
   16DOPE   H2Y 1970   6.638   4.897  15.936  0.0755  0.4322 -0.1219
   16DOPE   C23 1971   6.235   5.217  15.982  0.3242 -0.1412 -0.8120
   16DOPE   H3R 1972   6.217   5.305  16.048  1.7900 -0.3019 -0.1497
   16DOPE   H3S 1973   6.136   5.193  15.939 -0.4733  2.2201 -0.4379
   16DOPE   C24 1974   6.357   5.247  15.889 -0.1542  0.3367  0.3199
   16DOPE   H4R 1975   6.458   5.239  15.934  1.5050  1.5100 -2.8785
   16DOPE   H4S 1976   6.351   5.355  15.863 -0.5202  0.2636  0.0864
   16DOPE   C25 1977   6.354   5.156  15.762 -0.3294 -0.4678 -0.9799
   16DOPE   H5R 1978   6.259   5.170  15.707  1.0386  0.0870 -3.3461
   16DOPE   H5S 1979   6.368   5.051  15.794 -0.4640 -0.4368 -0.8192
   16DOPE   C26 1980   6.470   5.197  15.669  0.0025 -0.3313  0.4772
   16DOPE   H6R 1981   6.567   5.166  15.712  0.0203  0.2267  0.8545
   16DOPE   H6S 1982   6.468   5.306  15.646 -0.0629 -0.3038  0.6094
   16DOPE   C27 1983   6.464   5.114  15.542 -0.2386 -0.5093  0.4589
   16DOPE   H7R 1984   6.359   5.126  15.506 -0.6397 -2.2754  0.9754
   16DOPE   H7S 1985   6.483   5.007  15.562 -0.5838 -0.4610  1.0550
   16DOPE   C28 1986   6.561   5.167  15.434 -0.3249  0.4411  0.1294
   16DOPE   H8R 1987   6.664   5.135  15.460 -0.8350 -0.7050  0.7836
   16DOPE   H8S 1988   6.554   5.278  15.422 -2.7154  0.1593 -1.7218
   16DOPE   C29 1989   6.536   5.101  15.294  0.1835  0.1149  0.1710
   16DOPE   H9R 1990   6.606   5.020  15.267 -2.3870 -1.5689 -2.0639
   16DOPE  C210 1991   6.444   5.147  15.207 -0.6868  0.7110  0.1086
   16DOPE  H10R 1992   6.435   5.092  15.112  0.1243 -0.5335  0.7221
   16DOPE  C211 1993   6.355   5.269  15.226  0.1914  0.3387  0.2521
   16DOPE  H11R 1994   6.398   5.328  15.310 -1.4302 -1.4555  2.4628
   16DOPE  H11S 1995   6.252   5.239  15.256 -0.4311  0.7499 -1.3497
   16DOPE  C212 1996   6.354   5.354  15.090  0.1051  0.5344  0.5766
   16DOPE  H12R 1997   6.450   5.396  15.055  0.1612 -0.1092 -0.0622
   16DOPE  H12S 1998   6.281   5.435  15.111  0.0091  0.4284  0.6603
   16DOPE  C213 1999   6.283   5.273  14.971  0.5528  0.4769  0.2165
   16DOPE  H13R 2000   6.330   5.173  14.959  1.8028  1.1337 -0.5584
   16DOPE  H13S 2001   6.315   5.332  14.883  3.2206 -0.0662  0.7290
   16DOPE  C214 2002   6.128   5.262  14.970  0.2319 -0.0898 -0.2695
   16DOPE  H14R 2003   6.078   5.361  14.975 -1.1589 -0.7429 -0.6088
   16DOPE  H14S 2004   6.087   5.195  15.049 -0.9271 -0.8267 -1.4500
   16DOPE  C215 2005   6.075   5.195  14.839  0.4322 -0.2370  0.0524
   16DOPE  H15R 2006   6.133   5.101  14.822  0.2616 -0.3489  0.0830
   16DOPE  H15S 2007   6.106   5.256  14.752 -1.3918  1.3964  0.4855
   16DOPE  C216 2008   5.924   5.178  14.825 -0.3167 -0.3299  0.5971
   16DOPE  H16R 2009   5.871   5.275  14.836  1.2401  0.4454  1.6513
   16DOPE  H16S 2010   5.890   5.107  14.903  0.6970 -1.7814 -0.2292
   16DOPE  C217 2011   5.884   5.101  14.699  0.0309 -0.0220  0.0557
   16DOPE  H17R 2012   5.776   5.075  14.704 -0.3193  1.4920  1.0764
   16DOPE  H17S 2013   5.943   5.007  14.696  2.3725  1.2192  2.7063
   16DOPE  C218 2014   5.912   5.176  14.562  0.3401  0.0430 -0.0214
   16DOPE  H18R 2015   5.831   5.246  14.536 -0.5220 -1.2081 -0.7803
   16DOPE  H18S 2016   5.907   5.100  14.482 -2.9474 -0.6076  0.6814
   16DOPE  H18T 2017   6.012   5.223  14.574  0.0652  0.2569  1.7232
   16DOPE   C33 2018   6.817   5.004  15.906 -0.2418  0.1415  0.2078
   16DOPE   H3X 2019   6.923   5.003  15.940  1.3436 -1.8321 -4.0513
   16DOPE   H3Y 2020   6.771   5.102  15.930  0.3925  0.4953  0.0104
   16DOPE   C34 2021   6.822   4.997  15.751 -0.1423 -0.7229 -0.1681
   16DOPE   H4X 2022   6.718   4.982  15.715  0.3551 -1.2468 -1.4382
   16DOPE   H4Y 2023   6.875   5.083  15.706 -1.2347 -0.1921 -0.4833
   16DOPE   C35 2024   6.911   4.875  15.720 -0.4295  0.3640  0.4451
   16DOPE   H5X 2025   6.855   4.782  15.744 -0.7728  0.3032 -0.5634
   16DOPE   H5Y 2026   6.999   4.877  15.787 -0.6516  0.8591  0.7341
   16DOPE   C36 2027   6.961   4.868  15.574  0.0022  0.3164  0.0212
   16DOPE   H6X 2028   7.039   4.792  15.550  0.7518  1.3458 -0.9433
   16DOPE   H6Y 2029   6.996   4.971  15.552  2.2877  0.0047  1.7989
   16DOPE   C37 2030   6.839   4.849  15.482  0.1053  0.2558  0.0509
   16DOPE   H7X 2031   6.764   4.777  15.521  0.5033  0.2977  0.9064
   16DOPE   H7Y 2032   6.784   4.945  15.471  0.7971  0.7656  0.9218
   16DOPE   C38 2033   6.878   4.802  15.344  0.5467  0.1170  0.2840
   16DOPE   H8X 2034   6.785   4.785  15.286 -0.6511  1.5686  1.7028
   16DOPE   H8Y 2035   6.926   4.702  15.351 -0.9413 -0.6814 -0.4886
   16DOPE   C39 2036   6.959   4.898  15.263 -0.1869  0.5274  0.1491
   16DOPE   H9X 2037   7.032   4.951  15.327  0.8388 -0.4627 -0.1731
   16DOPE  C310 2038   6.964   4.913  15.128 -0.2685  0.2602 -0.1714
   16DOPE  H10X 2039   7.029   4.994  15.090  1.7567 -0.5354  1.3934
   16DOPE  C311 2040   6.886   4.847  15.020 -0.8374 -0.6351 -0.5866
   16DOPE  H11X 2041   6.951   4.819  14.935  0.4506 -0.5344  0.3368
   16DOPE  H11Y 2042   6.831   4.754  15.045 -3.8990  0.7791 -1.5241
   16DOPE  C312 2043   6.769   4.937  14.971 -0.4769 -0.7218 -0.2551
   16DOPE  H12X 2044   6.713   4.983  15.055 -0.8910 -1.6632 -0.0074
   16DOPE  H12Y 2045   6.700   4.863  14.926 -0.3547 -0.8172 -0.2889
   16DOPE  C313 2046   6.825   5.037  14.874 -0.5092  0.0771 -0.3981
   16DOPE  H13X 2047   6.872   5.128  14.917 -1.2139 -0.4716  1.6529
   16DOPE  H13Y 2048   6.898   4.986  14.807  0.1474 -0.6387  0.8373
   16DOPE  C314 2049   6.702   5.084  14.782 -0.1308  0.4449 -0.7041
   16DOPE  H14X 2050   6.631   5.148  14.838  1.0675  0.8233  0.4322
   16DOPE  H14Y 2051   6.641   4.993  14.762  0.1821 -0.3454  1.6124
   16DOPE  C315 2052   6.749   5.152  14.654  0.2053 -0.9243 -0.1201
   16DOPE  H15X 2053   6.819   5.081  14.605 -0.3959 -2.1922  0.8101
   16DOPE  H15Y 2054   6.804   5.241  14.693 -2.1045 -0.4022  2.1684
   16DOPE  C316 2055   6.642   5.201  14.559  0.1481 -0.6022  0.7616
   16DOPE  H16X 2056   6.569   5.262  14.617  1.5828  2.1491 -0.1742
   16DOPE  H16Y 2057   6.599   5.108  14.516 -1.7195  1.3959 -2.0878
   16DOPE  C317 2058   6.702   5.290  14.442 -0.3407  0.9759 -1.2601
   16DOPE  H17X 2059   6.610   5.315  14.384 -2.7216  0.5464  2.0776
   16DOPE  H17Y 2060   6.740   5.382  14.490  1.6243 -1.0579  1.4251
   16DOPE  C318 2061   6.807   5.210  14.358  0.3365 -0.5064 -0.4020
   16DOPE  H18X 2062   6.768   5.126  14.297 -1.1903  1.2799 -2.0072
   16DOPE  H18Y 2063   6.870   5.265  14.286 -1.7731  0.3714 -1.6779
   16DOPE  H18Z 2064   6.882   5.162  14.424  0.3950  0.0828 -0.0335
   17DOPE     N 2065   2.020   1.036  17.386 -0.5932  0.0184  0.0865
   17DOPE   HN1 2066   2.109   1.019  17.438  0.0126  2.1371 -0.1560
   17DOPE   HN2 2067   2.060   1.019  17.291  0.9140 -0.3622  0.7448
   17DOPE   HN3 2068   1.981   1.133  17.383  0.3806  0.4191 -0.2549
   17DOPE   C12 2069   1.927   0.926  17.420 -0.3801 -0.1488  0.1824
   17DOPE  H12A 2070   1.904   0.931  17.529  1.3778 -2.6875  0.7837
   17DOPE  H12B 2071   1.986   0.834  17.401 -1.7264 -1.0647  0.3068
   17DOPE   C11 2072   1.801   0.935  17.331  1.1085  0.1594  0.9110
   17DOPE  H11A 2073   1.749   1.018  17.383  1.0467  0.0820  0.9731
   17DOPE  H11B 2074   1.741   0.842  17.345 -0.0044  0.7254  0.1333
   17DOPE     P 2075   1.842   0.829  17.092 -0.1441 -0.0184 -0.0982
   17DOPE   O13 2076   1.944   0.736  17.154  0.5774  0.4629 -0.4541
   17DOPE   O14 2077   1.867   0.888  16.959  0.1555  0.1939 -0.0549
   17DOPE   O11 2078   1.699   0.766  17.091  0.3975  0.5773  0.3196
   17DOPE   O12 2079   1.833   0.956  17.192  0.1571 -0.0922 -0.0139
   17DOPE    C1 2080   1.582   0.829  17.032 -0.2628 -0.8802  0.0147
   17DOPE    HA 2081   1.596   0.915  16.963 -0.4407 -0.1346  0.8832
   17DOPE    HB 2082   1.533   0.867  17.124  1.4497  3.5781 -0.6496
   17DOPE    C2 2083   1.491   0.736  16.944 -0.3376 -0.6442 -0.1649
   17DOPE    HS 2084   1.456   0.661  17.018  0.9230  0.1327  1.2822
   17DOPE   O21 2085   1.579   0.710  16.827 -0.3617  0.2933 -0.2613
   17DOPE   C21 2086   1.530   0.602  16.766  0.3193 -0.2379  0.7847
   17DOPE   O22 2087   1.445   0.529  16.813  0.0134 -0.0694  0.0971
   17DOPE   C22 2088   1.614   0.575  16.642  0.0635 -0.1223  0.3167
   17DOPE   H2R 2089   1.689   0.495  16.659 -0.0149 -0.2224  0.1963
   17DOPE   H2S 2090   1.690   0.652  16.621 -0.9691  0.6928 -0.5440
   17DOPE    C3 2091   1.359   0.824  16.894 -0.6064 -0.4524 -0.3154
   17DOPE    HX 2092   1.401   0.902  16.827  1.2493 -0.5207  0.7014
   17DOPE    HY 2093   1.311   0.866  16.984 -0.5790  0.6950 -0.8115
   17DOPE   O31 2094   1.258   0.741  16.828  0.3001 -0.1598  0.2069
   17DOPE   C31 2095   1.220   0.779  16.710 -0.2330  0.4567  0.1790
   17DOPE   O32 2096   1.266   0.876  16.650  0.1264  0.5227  0.5091
   17DOPE   C32 2097   1.127   0.668  16.661 -0.4039  0.2658  0.1115
   17DOPE   H2X 2098   1.189   0.577  16.645  1.2939  1.4054 -0.1844
   17DOPE   H2Y 2099   1.044   0.641  16.729  0.5270 -1.1275  0.7513
   17DOPE   C23 2100   1.527   0.557  16.517  0.4864  0.0117 -0.6526
   17DOPE   H3R 2101   1.467   0.649  16.500 -0.6573 -0.8977 -1.8254
   17DOPE   H3S 2102   1.463   0.468  16.536  0.6693 -0.0328 -0.2535
   17DOPE   C24 2103   1.621   0.529  16.400 -0.0564  0.6744  0.4189
   17DOPE   H4R 2104   1.668   0.428  16.398  0.0204  0.7012  0.8104
   17DOPE   H4S 2105   1.701   0.606  16.394  1.6685 -1.1390 -1.0320
   17DOPE   C25 2106   1.548   0.537  16.266 -0.0985 -0.1788 -0.4316
   17DOPE   H5R 2107   1.479   0.623  16.257 -1.0023 -0.9410 -0.9709
   17DOPE   H5S 2108   1.476   0.453  16.279  1.0266 -1.0646  0.2560
   17DOPE   C26 2109   1.634   0.514  16.141 -0.3206  0.0916 -0.3526
   17DOPE   H6R 2110   1.686   0.416  16.138 -1.0776 -0.3369  0.4630
   17DOPE   H6S 2111   1.714   0.592  16.149 -0.5008  0.0800  3.4568
   17DOPE   C27 2112   1.551   0.512  16.013  0.3188  0.6675 -0.4465
   17DOPE   H7R 2113   1.522   0.617  15.991 -0.2603  0.5622 -0.2085
   17DOPE   H7S 2114   1.461   0.449  16.031 -0.0519  1.3545  0.1490
   17DOPE   C28 2115   1.619   0.431  15.903  0.2671  0.4665 -0.3084
   17DOPE   H8R 2116   1.543   0.421  15.822  1.0275  1.9015 -1.2571
   17DOPE   H8S 2117   1.644   0.328  15.937 -0.7702  0.4412  0.4210
   17DOPE   C29 2118   1.751   0.501  15.859 -0.2310  0.1288  0.8059
   17DOPE   H9R 2119   1.826   0.531  15.933 -0.3355  1.3478  0.4528
   17DOPE  C210 2120   1.766   0.544  15.731  0.5330 -0.1674 -0.1752
   17DOPE  H10R 2121   1.854   0.603  15.701 -0.3554  0.5583 -1.4384
   17DOPE  C211 2122   1.664   0.528  15.618  0.0852  0.5940 -0.4821
   17DOPE  H11R 2123   1.585   0.606  15.624  0.0576  0.6677 -1.6491
   17DOPE  H11S 2124   1.620   0.428  15.633  1.3747  0.0834  0.1032
   17DOPE  C212 2125   1.709   0.542  15.468 -1.0739  0.2588  0.0516
   17DOPE  H12R 2126   1.771   0.634  15.462 -0.8677  0.0699 -0.8744
   17DOPE  H12S 2127   1.619   0.553  15.403  0.2270  4.2948 -1.3335
   17DOPE  C213 2128   1.781   0.421  15.432 -0.4188  0.0002  0.4159
   17DOPE  H13R 2129   1.721   0.328  15.435 -1.7968  0.6657 -2.7375
   17DOPE  H13S 2130   1.881   0.411  15.480  0.4217  2.3049 -0.6846
   17DOPE  C214 2131   1.817   0.421  15.280  0.0400 -0.6252 -0.1486
   17DOPE  H14R 2132   1.723   0.433  15.222  0.9191  0.8943 -1.3434
   17DOPE  H14S 2133   1.874   0.326  15.266  2.4846  0.7446 -0.1615
   17DOPE  C215 2134   1.914   0.533  15.232 -0.1789  0.6663  1.1231
   17DOPE  H15R 2135   1.997   0.532  15.306  0.8529  2.6351  0.0766
   17DOPE  H15S 2136   1.871   0.635  15.239  2.3922  2.0768 -1.5382
   17DOPE  C216 2137   1.973   0.511  15.088  0.0592 -0.3029 -0.3281
   17DOPE  H16R 2138   1.899   0.495  15.006  0.7712  1.4903 -1.3768
   17DOPE  H16S 2139   2.040   0.423  15.093  0.8858  0.3729  1.0756
   17DOPE  C217 2140   2.052   0.638  15.032  0.0172  1.0626 -0.6740
   17DOPE  H17R 2141   2.138   0.680  15.088  1.1009 -0.6121 -0.9966
   17DOPE  H17S 2142   1.975   0.718  15.024 -1.1692  0.1496  1.1433
   17DOPE  C218 2143   2.103   0.604  14.895  0.3320 -0.2125  0.1165
   17DOPE  H18R 2144   2.171   0.516  14.902 -1.8724 -2.0930 -0.6093
   17DOPE  H18S 2145   2.164   0.687  14.855  0.3443 -1.0479 -1.7203
   17DOPE  H18T 2146   2.022   0.577  14.824 -1.1518 -1.7821  2.2495
   17DOPE   C33 2147   1.073   0.690  16.517  0.6271 -0.4527  0.5748
   17DOPE   H3X 2148   1.005   0.777  16.508  0.3954 -0.6717  0.1710
   17DOPE   H3Y 2149   1.007   0.603  16.500  0.5943 -0.4508  0.6941
   17DOPE   C34 2150   1.178   0.688  16.401 -0.2806 -0.2499  0.3103
   17DOPE   H4X 2151   1.241   0.779  16.413 -0.1899 -0.1742 -0.6801
   17DOPE   H4Y 2152   1.242   0.598  16.406 -0.5226 -0.3804  1.1982
   17DOPE   C35 2153   1.105   0.695  16.266 -1.1064 -0.0354 -0.7274
   17DOPE   H5X 2154   1.023   0.771  16.275 -2.7018 -1.8863  1.9089
   17DOPE   H5Y 2155   1.049   0.603  16.242 -1.4998  0.1917 -0.6948
   17DOPE   C36 2156   1.201   0.727  16.151 -0.7507  0.0124 -0.0333
   17DOPE   H6X 2157   1.280   0.650  16.138 -1.1574 -1.2119  3.5071
   17DOPE   H6Y 2158   1.255   0.820  16.178 -1.5772  0.3290  0.6073
   17DOPE   C37 2159   1.120   0.743  16.017  0.0676  0.5325  0.2458
   17DOPE   H7X 2160   1.088   0.638  15.999 -0.1289  0.3781  1.4188
   17DOPE   H7Y 2161   1.034   0.811  16.030  0.0849  1.1756 -2.4911
   17DOPE   C38 2162   1.198   0.797  15.898 -0.0350  0.5231 -0.1457
   17DOPE   H8X 2163   1.286   0.734  15.875  1.1671  2.1879 -0.3124
   17DOPE   H8Y 2164   1.244   0.895  15.924 -0.1309  1.1499 -2.1054
   17DOPE   C39 2165   1.118   0.822  15.775 -0.1602  0.2812  0.0367
   17DOPE   H9X 2166   1.011   0.842  15.787 -0.4191 -1.5695  1.2028
   17DOPE  C310 2167   1.162   0.819  15.651  0.2495  0.0395  0.3452
   17DOPE  H10X 2168   1.081   0.823  15.576 -0.5120 -1.7672  1.0049
   17DOPE  C311 2169   1.294   0.781  15.592 -0.6187 -0.6448 -0.5879
   17DOPE  H11X 2170   1.363   0.758  15.675  0.2067  1.5953 -0.5907
   17DOPE  H11Y 2171   1.286   0.692  15.526 -0.3005  0.3814 -2.0545
   17DOPE  C312 2172   1.361   0.898  15.519  0.2893 -0.3444  0.2384
   17DOPE  H12X 2173   1.463   0.866  15.488 -0.7056 -2.6191 -0.9356
   17DOPE  H12Y 2174   1.372   0.995  15.571 -1.5870 -0.6662  1.3071
   17DOPE  C313 2175   1.292   0.935  15.389 -0.5900  0.0651  0.0567
   17DOPE  H13X 2176   1.275   0.848  15.323  4.1209 -1.2316  0.1690
   17DOPE  H13Y 2177   1.192   0.973  15.420 -0.7273  0.3155 -0.6811
   17DOPE  C314 2178   1.353   1.043  15.296 -0.3007 -0.1139 -0.3397
   17DOPE  H14X 2179   1.447   1.006  15.249 -0.4385 -0.2185 -0.5352
   17DOPE  H14Y 2180   1.372   1.139  15.349 -1.3588  0.6467 -1.2867
   17DOPE  C315 2181   1.253   1.057  15.178  0.5043  0.8242 -0.0205
   17DOPE  H15X 2182   1.163   1.109  15.215 -0.6858 -0.1556 -1.3942
   17DOPE  H15Y 2183   1.225   0.952  15.153  0.2952  1.4800 -2.9482
   17DOPE  C316 2184   1.302   1.136  15.056 -0.2926 -0.1439 -0.1878
   17DOPE  H16X 2185   1.388   1.197  15.091 -0.2641 -1.0406  1.3957
   17DOPE  H16Y 2186   1.226   1.207  15.016  0.1306  0.4525  0.0517
   17DOPE  C317 2187   1.353   1.041  14.941  1.4520 -0.0986 -0.1765
   17DOPE  H17X 2188   1.417   1.095  14.868  0.5610 -0.9382 -1.6389
   17DOPE  H17Y 2189   1.422   0.970  14.991 -1.4273 -2.0965  1.3089
   17DOPE  C318 2190   1.239   0.979  14.860 -0.4118  0.1431  0.0972
   17DOPE  H18X 2191   1.275   0.893  14.801 -1.9471  0.9118 -2.0646
   17DOPE  H18Y 2192   1.163   0.952  14.937  0.1821 -0.2840  0.5466
   17DOPE  H18Z 2193   1.194   1.060  14.798  0.3858  0.2170 -0.4032
   18DOPE     N 2194   6.547   4.679  16.654  0.3372 -0.1542  0.2218
   18DOPE   HN1 2195   6.601   4.674  16.742 -0.4043 -1.5347  0.6132
   18DOPE   HN2 2196   6.606   4.628  16.585 -0.7462 -0.5319 -0.4396
   18DOPE   HN3 2197   6.523   4.778  16.631  1.4425 -0.0018 -0.3460
   18DOPE   C12 2198   6.432   4.580  16.671  0.0634  0.0923  0.4606
   18DOPE  H12A 2199   6.468   4.494  16.732 -0.9819 -0.3654  0.4447
   18DOPE  H12B 2200   6.403   4.553  16.568  0.5779  0.7530  0.1313
   18DOPE   C11 2201   6.312   4.648  16.730  0.0267  0.3972  0.1251
   18DOPE  H11A 2202   6.329   4.673  16.837 -0.6349 -0.7696  0.5235
   18DOPE  H11B 2203   6.229   4.574  16.725 -2.0291  2.5708  0.5736
   18DOPE     P 2204   6.170   4.873  16.728 -0.0420  0.0190  0.3376
   18DOPE   O13 2205   6.156   4.997  16.647 -0.3689  0.1497 -0.1829
   18DOPE   O14 2206   6.212   4.897  16.867  0.6000  0.3316  0.3518
   18DOPE   O11 2207   6.030   4.796  16.748  0.3435 -0.0261 -0.2213
   18DOPE   O12 2208   6.267   4.765  16.655 -0.1521 -0.2717 -0.2860
   18DOPE    C1 2209   5.922   4.805  16.657 -0.1416  0.4539 -0.4406
   18DOPE    HA 2210   5.923   4.896  16.592 -0.2131  0.5690 -0.2810
   18DOPE    HB 2211   5.834   4.819  16.723  0.9108  1.4190  0.8343
   18DOPE    C2 2212   5.923   4.687  16.560 -0.4403  0.5447 -0.0785
   18DOPE    HS 2213   5.946   4.592  16.613 -0.0706 -0.0803 -1.3286
   18DOPE   O21 2214   6.016   4.721  16.453 -0.1075  0.4181  0.0160
   18DOPE   C21 2215   6.098   4.622  16.419 -0.6574  0.0100  0.0186
   18DOPE   O22 2216   6.096   4.508  16.456  0.5122 -0.5063  0.2867
   18DOPE   C22 2217   6.209   4.683  16.319 -0.5284 -0.2317 -0.5746
   18DOPE   H2R 2218   6.287   4.727  16.385 -0.9682 -0.5004  0.1417
   18DOPE   H2S 2219   6.163   4.767  16.263  1.1973  1.9815  1.1568
   18DOPE    C3 2220   5.778   4.678  16.505  0.3158  0.0457  0.5640
   18DOPE    HX 2221   5.752   4.783  16.478  0.2455 -0.2859 -0.6951
   18DOPE    HY 2222   5.713   4.631  16.582  0.5612 -1.0008  0.1446
   18DOPE   O31 2223   5.771   4.601  16.382  0.6409  0.0372  0.2854
   18DOPE   C31 2224   5.791   4.466  16.410 -0.1171  0.1795 -0.4465
   18DOPE   O32 2225   5.792   4.424  16.524  0.5912 -0.2529 -0.1335
   18DOPE   C32 2226   5.796   4.391  16.284 -0.1849  0.0439  0.3210
   18DOPE   H2X 2227   5.845   4.292  16.298 -1.3525 -0.7932 -1.1883
   18DOPE   H2Y 2228   5.691   4.376  16.250 -0.7769  2.6593  0.8259
   18DOPE   C23 2229   6.269   4.582  16.225 -0.0346  0.1664  0.6227
   18DOPE   H3R 2230   6.196   4.504  16.195  1.3782 -0.5831 -1.0939
   18DOPE   H3S 2231   6.356   4.541  16.280  0.2094 -0.4679 -0.2134
   18DOPE   C24 2232   6.321   4.652  16.105  0.2854  0.0064 -0.1519
   18DOPE   H4R 2233   6.384   4.743  16.119  2.4406 -1.4714  0.1870
   18DOPE   H4S 2234   6.233   4.688  16.047 -0.4757  0.5146  1.2876
   18DOPE   C25 2235   6.416   4.562  16.023  0.6791  0.2818 -0.0443
   18DOPE   H5R 2236   6.380   4.457  16.023 -1.8670  0.8743  4.5413
   18DOPE   H5S 2237   6.517   4.551  16.068  1.3108 -1.1009 -1.7009
   18DOPE   C26 2238   6.438   4.622  15.883  0.0834 -0.7543 -0.2039
   18DOPE   H6R 2239   6.519   4.572  15.825 -0.3016 -1.9350  0.2496
   18DOPE   H6S 2240   6.469   4.728  15.896 -0.3773 -0.5324 -0.8985
   18DOPE   C27 2241   6.321   4.634  15.790 -1.1454  0.3472 -0.1951
   18DOPE   H7R 2242   6.242   4.689  15.845  1.0518  1.4216  2.1333
   18DOPE   H7S 2243   6.278   4.533  15.778 -1.0129  0.4808 -2.0974
   18DOPE   C28 2244   6.373   4.682  15.650 -0.1239 -0.6540  0.1967
   18DOPE   H8R 2245   6.466   4.628  15.623  2.8826  3.6567  0.9934
   18DOPE   H8S 2246   6.398   4.790  15.651  1.5716 -0.9616 -1.9738
   18DOPE   C29 2247   6.269   4.661  15.540  0.4300  0.1136 -0.7575
   18DOPE   H9R 2248   6.166   4.683  15.570  0.5836  0.9325 -0.8017
   18DOPE  C210 2249   6.299   4.616  15.417 -0.1922 -0.3265  0.0898
   18DOPE  H10R 2250   6.216   4.606  15.346 -0.3482 -1.8301  0.4439
   18DOPE  C211 2251   6.438   4.596  15.366  0.1044  0.0096  0.1443
   18DOPE  H11R 2252   6.474   4.504  15.417  0.6020  0.4580  0.6213
   18DOPE  H11S 2253   6.494   4.686  15.399 -1.7320  1.3849 -0.3831
   18DOPE  C212 2254   6.440   4.569  15.214  0.5477 -0.5892 -0.2906
   18DOPE  H12R 2255   6.364   4.490  15.196  0.4465 -0.2989 -1.1593
   18DOPE  H12S 2256   6.535   4.522  15.180  0.6678  0.5816 -1.6540
   18DOPE  C213 2257   6.411   4.694  15.131  0.2542 -0.0033  0.1082
   18DOPE  H13R 2258   6.488   4.767  15.164  0.9556 -0.9235  0.5225
   18DOPE  H13S 2259   6.312   4.738  15.158  0.0436 -1.3377  1.6794
   18DOPE  C214 2260   6.414   4.682  14.975 -0.1851 -0.5372 -0.1663
   18DOPE  H14R 2261   6.361   4.585  14.966  0.9648 -1.1179 -0.7149
   18DOPE  H14S 2262   6.515   4.657  14.937  0.1501  0.0083  0.3358
   18DOPE  C215 2263   6.348   4.795  14.905  0.4354 -0.5448  0.0988
   18DOPE  H15R 2264   6.389   4.896  14.931  3.8199 -1.6272 -0.4979
   18DOPE  H15S 2265   6.244   4.789  14.943  0.1582  0.9433 -0.3445
   18DOPE  C216 2266   6.330   4.784  14.760 -0.3076 -0.8167  0.3202
   18DOPE  H16R 2267   6.429   4.785  14.709  0.5306 -2.5304  1.8131
   18DOPE  H16S 2268   6.279   4.871  14.712  1.3962 -0.5373 -1.0990
   18DOPE  C217 2269   6.243   4.664  14.710 -0.4430  0.1009  0.4608
   18DOPE  H17R 2270   6.139   4.686  14.742 -0.2118  1.0605  0.5766
   18DOPE  H17S 2271   6.298   4.578  14.754  2.9509  1.2325 -1.1983
   18DOPE  C218 2272   6.248   4.644  14.557  0.2451  1.5399 -0.4292
   18DOPE  H18R 2273   6.186   4.555  14.533  1.9942  0.4611 -1.1371
   18DOPE  H18S 2274   6.352   4.617  14.531 -0.3160 -1.2133 -0.1734
   18DOPE  H18T 2275   6.216   4.737  14.506 -0.7712  0.5781 -1.6199
   18DOPE   C33 2276   5.878   4.465  16.178  0.4556  0.0767 -0.8113
   18DOPE   H3X 2277   5.973   4.496  16.229 -0.6869  0.3638  1.2456
   18DOPE   H3Y 2278   5.820   4.556  16.152 -1.2791 -1.4880 -2.7497
   18DOPE   C34 2279   5.900   4.390  16.052  0.3825 -0.1332 -0.7923
   18DOPE   H4X 2280   5.961   4.301  16.076  2.2153  1.5213  1.0836
   18DOPE   H4Y 2281   5.800   4.361  16.012 -0.2688  1.9755 -0.8422
   18DOPE   C35 2282   5.986   4.446  15.943 -0.9044  0.3338 -0.0708
   18DOPE   H5X 2283   6.094   4.440  15.972 -0.7555  1.4065 -0.3858
   18DOPE   H5Y 2284   5.962   4.554  15.941 -1.9818  0.1433  1.1477
   18DOPE   C36 2285   5.971   4.378  15.810  0.1697 -0.2858 -0.2912
   18DOPE   H6X 2286   5.873   4.324  15.806  0.7299 -1.2671 -3.1640
   18DOPE   H6Y 2287   6.041   4.291  15.804 -1.7705 -1.9843  0.3491
   18DOPE   C37 2288   5.982   4.472  15.690  0.5035  0.1378 -0.1441
   18DOPE   H7X 2289   6.027   4.568  15.724  1.7339 -0.7083  0.6980
   18DOPE   H7Y 2290   6.050   4.430  15.613  0.1238 -0.1610 -0.3170
   18DOPE   C38 2291   5.838   4.502  15.635 -0.3448  0.4237  0.2186
   18DOPE   H8X 2292   5.784   4.560  15.713  0.7688  2.0895 -0.1768
   18DOPE   H8Y 2293   5.783   4.411  15.604  0.2139 -0.8360  2.6210
   18DOPE   C39 2294   5.848   4.594  15.513 -0.1517 -0.5911  0.1285
   18DOPE   H9X 2295   5.867   4.699  15.541 -0.3696 -0.5443  0.1002
   18DOPE  C310 2296   5.865   4.556  15.383  0.5515 -0.0007 -0.9232
   18DOPE  H10X 2297   5.886   4.638  15.313 -1.1710 -0.6337 -2.2503
   18DOPE  C311 2298   5.872   4.419  15.319  0.1173  0.4545 -0.7239
   18DOPE  H11X 2299   5.841   4.337  15.387  0.3729 -1.5225 -2.8658
   18DOPE  H11Y 2300   5.803   4.419  15.232 -0.5324  0.1979 -0.2157
   18DOPE  C312 2301   6.009   4.388  15.252  0.9468 -0.4305  0.5905
   18DOPE  H12X 2302   6.069   4.343  15.334  0.1126 -2.3479  0.2184
   18DOPE  H12Y 2303   6.062   4.473  15.205  0.2714 -0.0163  0.5728
   18DOPE  C313 2304   5.995   4.275  15.141 -0.4330  0.3642  0.1385
   18DOPE  H13X 2305   6.083   4.208  15.150 -0.6774  0.0016 -0.1278
   18DOPE  H13Y 2306   5.901   4.221  15.163 -0.6241  0.4765 -0.3873
   18DOPE  C314 2307   5.983   4.332  15.004  0.3160  0.5096 -0.6025
   18DOPE  H14X 2308   6.063   4.403  14.974 -0.5353  0.6856 -2.6147
   18DOPE  H14Y 2309   5.885   4.383  15.002 -0.9028 -1.7087 -1.4151
   18DOPE  C315 2310   5.991   4.217  14.902 -0.8958 -0.8490  0.4145
   18DOPE  H15X 2311   6.095   4.177  14.906  0.1613  1.7676  1.6649
   18DOPE  H15Y 2312   5.969   4.263  14.803  0.7275 -4.1602 -1.7035
   18DOPE  C316 2313   5.881   4.118  14.926 -0.1984  0.2762 -0.4761
   18DOPE  H16X 2314   5.796   4.174  14.969 -0.1270  0.3222 -0.3942
   18DOPE  H16Y 2315   5.910   4.053  15.011  0.3897  0.8125 -0.2545
   18DOPE  C317 2316   5.844   4.045  14.798  0.0161  0.0325  0.3488
   18DOPE  H17X 2317   5.824   4.114  14.712 -0.4284  0.0855  0.4916
   18DOPE  H17Y 2318   5.937   3.992  14.769 -0.7333 -0.5735 -1.0394
   18DOPE  C318 2319   5.727   3.945  14.805 -0.0222 -0.1683 -0.5039
   18DOPE  H18X 2320   5.634   3.996  14.774 -0.4297  0.9420  2.2378
   18DOPE  H18Y 2321   5.733   3.854  14.742  0.1113 -0.1225 -0.5588
   18DOPE  H18Z 2322   5.716   3.915  14.912 -1.5997  0.8102 -0.3563
   19DOPE     N 2323   6.126   5.089  17.027  0.2226 -0.6150 -0.5116
   19DOPE   HN1 2324   6.162   5.016  16.963  0.3955 -1.6770  0.7542
   19DOPE   HN2 2325   6.131   5.186  16.990  2.4559 -1.2076 -1.9188
   19DOPE   HN3 2326   6.164   5.079  17.123 -1.4048 -0.8124  0.1465
   19DOPE   C12 2327   5.981   5.065  17.043 -0.3932 -0.1463 -0.2296
   19DOPE  H12A 2328   5.956   5.096  17.147  1.0638  0.5062 -0.0498
   19DOPE  H12B 2329   5.955   4.958  17.032 -0.1887 -0.2357  0.1493
   19DOPE   C11 2330   5.911   5.129  16.921 -0.8171 -0.2521 -0.2354
   19DOPE  H11A 2331   5.804   5.141  16.949 -1.2040  3.0824 -2.5616
   19DOPE  H11B 2332   5.915   5.052  16.841 -2.2826 -0.0880 -0.5054
   19DOPE     P 2333   5.885   5.369  16.806  0.0857  0.0275 -0.4085
   19DOPE   O13 2334   5.979   5.481  16.770 -0.7319 -0.5867 -0.2709
   19DOPE   O14 2335   5.773   5.405  16.899  0.6677  0.3577 -0.4206
   19DOPE   O11 2336   5.818   5.306  16.674 -0.6385 -0.3576 -0.0755
   19DOPE   O12 2337   5.974   5.254  16.872  0.0638  0.0830 -0.2618
   19DOPE    C1 2338   5.897   5.222  16.590  0.4076  0.3702 -0.3415
   19DOPE    HA 2339   5.834   5.148  16.536  1.5490 -0.5559 -0.4303
   19DOPE    HB 2340   5.971   5.161  16.646  1.5143  1.2770 -0.7711
   19DOPE    C2 2341   5.968   5.296  16.468  0.4231 -0.2614 -0.3692
   19DOPE    HS 2342   6.037   5.373  16.508 -0.2565  0.1400  0.0629
   19DOPE   O21 2343   5.875   5.365  16.376  0.5995  0.3032  0.2032
   19DOPE   C21 2344   5.931   5.452  16.291  0.3949  0.7102 -0.6649
   19DOPE   O22 2345   6.049   5.481  16.290 -0.2720  0.1251 -0.2534
   19DOPE   C22 2346   5.829   5.518  16.203 -0.5819 -0.1113  0.9090
   19DOPE   H2R 2347   5.752   5.567  16.267  0.9036  1.2285  1.7508
   19DOPE   H2S 2348   5.788   5.450  16.126  1.6053  1.1787 -1.5469
   19DOPE    C3 2349   6.065   5.196  16.392 -0.3900  1.0030 -0.8835
   19DOPE    HX 2350   6.140   5.167  16.468 -2.4549 -0.5515  0.7092
   19DOPE    HY 2351   6.113   5.241  16.303  1.8971 -1.3596 -0.9473
   19DOPE   O31 2352   5.991   5.080  16.350 -0.7007 -0.7084  0.0476
   19DOPE   C31 2353   5.922   5.085  16.233 -1.0968 -0.0649  0.1403
   19DOPE   O32 2354   5.918   5.184  16.159  0.9726 -0.1673  0.5077
   19DOPE   C32 2355   5.869   4.946  16.204  0.4496 -0.3107  0.6414
   19DOPE   H2X 2356   5.891   4.880  16.291  4.0035 -0.1119  0.0305
   19DOPE   H2Y 2357   5.759   4.956  16.191  0.2683 -3.9499 -2.2722
   19DOPE   C23 2358   5.904   5.618  16.120 -0.6262  0.1566 -0.0659
   19DOPE   H3R 2359   5.965   5.689  16.181 -0.6376  0.3104 -0.2304
   19DOPE   H3S 2360   5.832   5.682  16.064  0.0786  2.0434  1.0770
   19DOPE   C24 2361   5.992   5.556  16.010 -0.2178 -0.1829  0.8716
   19DOPE   H4R 2362   6.061   5.484  16.058  0.5008  1.8876  3.1918
   19DOPE   H4S 2363   6.057   5.636  15.967  0.5420 -0.8103  0.8332
   19DOPE   C25 2364   5.914   5.492  15.889  0.3376 -0.0820  0.5992
   19DOPE   H5R 2365   5.862   5.577  15.841  0.2020 -1.3259 -1.6258
   19DOPE   H5S 2366   5.849   5.407  15.919  1.2126 -0.0527  2.7080
   19DOPE   C26 2367   6.000   5.434  15.774 -0.2752 -0.0937  0.0062
   19DOPE   H6R 2368   5.940   5.390  15.692  1.2093  1.0061 -1.7513
   19DOPE   H6S 2369   6.063   5.348  15.806  1.7767  1.5091  0.4830
   19DOPE   C27 2370   6.096   5.539  15.707  0.6386 -0.0513  0.0291
   19DOPE   H7R 2371   6.160   5.578  15.789  0.0443 -2.2489  1.6224
   19DOPE   H7S 2372   6.033   5.622  15.668  0.6722  0.4400  0.9898
   19DOPE   C28 2373   6.191   5.490  15.595  0.2723 -0.1973  0.2512
   19DOPE   H8R 2374   6.230   5.387  15.610  0.7589  0.2182  2.0779
   19DOPE   H8S 2375   6.280   5.557  15.597 -0.0636  0.2451  2.0735
   19DOPE   C29 2376   6.121   5.485  15.465 -0.0602 -0.5832  0.0921
   19DOPE   H9R 2377   6.050   5.404  15.444 -0.5604 -0.3222  0.7515
   19DOPE  C210 2378   6.126   5.588  15.372 -0.5096  0.0498 -0.3583
   19DOPE  H10R 2379   6.075   5.567  15.277  1.2936 -0.7437 -1.1993
   19DOPE  C211 2380   6.214   5.714  15.356 -0.2175 -0.3463 -0.0395
   19DOPE  H11R 2381   6.293   5.705  15.433 -0.0555 -1.4980 -0.3161
   19DOPE  H11S 2382   6.150   5.801  15.380  2.4921  2.0412 -0.9481
   19DOPE  C212 2383   6.289   5.728  15.226 -0.3142 -0.0502 -0.0380
   19DOPE  H12R 2384   6.370   5.652  15.220 -0.0643  0.1441  0.7201
   19DOPE  H12S 2385   6.345   5.825  15.224  1.5030 -0.9610  2.2441
   19DOPE  C213 2386   6.201   5.727  15.100  0.1269  0.8898  0.2987
   19DOPE  H13R 2387   6.115   5.798  15.097 -1.8626 -1.4218  0.0939
   19DOPE  H13S 2388   6.171   5.621  15.088  1.6758  0.2979  1.3619
   19DOPE  C214 2389   6.288   5.778  14.977 -0.4153  0.4218 -1.0303
   19DOPE  H14R 2390   6.380   5.718  14.964  0.2305  1.3562 -0.8596
   19DOPE  H14S 2391   6.328   5.878  15.005  1.5482 -0.4030 -0.7552
   19DOPE  C215 2392   6.218   5.791  14.838 -0.2264  0.2465  0.3216
   19DOPE  H15R 2393   6.292   5.822  14.761 -0.2459 -2.1773 -0.7670
   19DOPE  H15S 2394   6.136   5.866  14.834 -0.6977 -0.2880 -0.2532
   19DOPE  C216 2395   6.157   5.657  14.792  0.1988  0.5767  0.1354
   19DOPE  H16R 2396   6.106   5.603  14.875  0.5264 -0.6511 -0.4336
   19DOPE  H16S 2397   6.237   5.584  14.767 -0.9574 -0.3987 -0.8833
   19DOPE  C217 2398   6.062   5.687  14.681 -0.4211  0.6512 -0.2424
   19DOPE  H17R 2399   6.110   5.750  14.603 -1.4131 -0.3469 -1.7227
   19DOPE  H17S 2400   5.969   5.734  14.718 -0.9843 -1.0248  0.5960
   19DOPE  C218 2401   6.014   5.554  14.621  0.1268  0.2755 -0.5421
   19DOPE  H18R 2402   6.094   5.476  14.621 -0.3084 -0.2327 -2.4452
   19DOPE  H18S 2403   5.973   5.576  14.520 -0.8541  0.3387 -0.1402
   19DOPE  H18T 2404   5.932   5.509  14.681  1.0799  0.3323  0.8519
   19DOPE   C33 2405   5.932   4.877  16.076 -0.5628  0.4750  0.0610
   19DOPE   H3X 2406   5.906   4.769  16.081 -1.0377  0.6374  2.2070
   19DOPE   H3Y 2407   6.042   4.878  16.090 -0.3039  2.4100 -1.6233
   19DOPE   C34 2408   5.887   4.932  15.944  0.2604 -0.0304 -0.2021
   19DOPE   H4X 2409   5.785   4.889  15.929  0.1718  0.9020 -2.7367
   19DOPE   H4Y 2410   5.883   5.043  15.956 -0.6015  0.0325 -0.9303
   19DOPE   C35 2411   5.975   4.902  15.827 -0.1885 -0.1513 -0.7813
   19DOPE   H5X 2412   5.972   4.797  15.793 -1.7388  0.0986 -1.5070
   19DOPE   H5Y 2413   6.080   4.924  15.857 -0.1462 -0.6771 -0.5428
   19DOPE   C36 2414   5.950   4.992  15.700 -0.7314  0.5305  0.1366
   19DOPE   H6X 2415   5.976   5.096  15.728  1.1544 -0.4401  2.3385
   19DOPE   H6Y 2416   5.843   4.982  15.674 -0.6248 -0.4395  0.0339
   19DOPE   C37 2417   6.028   4.947  15.574  0.0896 -0.2713  0.5471
   19DOPE   H7X 2418   6.135   4.967  15.596  0.2695 -0.8276  0.2051
   19DOPE   H7Y 2419   6.016   4.838  15.554  0.3182 -0.0593 -0.9275
   19DOPE   C38 2420   5.989   5.026  15.450 -0.3976  0.0377 -0.9937
   19DOPE   H8X 2421   5.988   5.132  15.483 -1.2134  0.4901 -2.3832
   19DOPE   H8Y 2422   5.888   4.996  15.413 -0.1310 -1.6804 -0.4178
   19DOPE   C39 2423   6.088   5.003  15.338 -0.3369  0.9276  0.4123
   19DOPE   H9X 2424   6.195   5.030  15.342 -0.4298  2.1754 -2.5878
   19DOPE  C310 2425   6.066   4.963  15.212 -0.0850  0.1688  0.0921
   19DOPE  H10X 2426   6.140   4.977  15.132 -0.4467 -1.0318 -0.4628
   19DOPE  C311 2427   5.936   4.905  15.165 -0.5284 -0.4172  0.6476
   19DOPE  H11X 2428   5.880   4.864  15.252  0.1533  0.3020  1.4476
   19DOPE  H11Y 2429   5.873   4.986  15.123  1.3942  0.4318 -0.7487
   19DOPE  C312 2430   5.948   4.795  15.057 -0.1819 -0.1588  0.8240
   19DOPE  H12X 2431   6.017   4.715  15.089  2.1108  1.6726  0.7726
   19DOPE  H12Y 2432   5.990   4.843  14.966  1.3506  1.3525  2.2730
   19DOPE  C313 2433   5.806   4.732  15.041 -0.3370 -0.4101 -0.0155
   19DOPE  H13X 2434   5.785   4.655  15.117  0.5614 -0.0833  0.5801
   19DOPE  H13Y 2435   5.730   4.810  15.061 -0.8922 -0.9191 -0.1337
   19DOPE  C314 2436   5.780   4.690  14.896  0.1582 -0.2798  0.3952
   19DOPE  H14X 2437   5.834   4.597  14.868 -2.3933 -2.1619  1.3626
   19DOPE  H14Y 2438   5.800   4.761  14.814  1.2042 -1.5374 -0.4747
   19DOPE  C315 2439   5.632   4.670  14.875  0.7629 -0.2667 -0.1791
   19DOPE  H15X 2440   5.594   4.771  14.853  2.9082 -0.0383 -3.4123
   19DOPE  H15Y 2441   5.587   4.638  14.972 -1.9954 -1.2890 -1.6862
   19DOPE  C316 2442   5.590   4.586  14.754 -0.3252 -0.0733  0.1998
   19DOPE  H16X 2443   5.627   4.626  14.657  1.4964 -3.1092 -0.4893
   19DOPE  H16Y 2444   5.479   4.586  14.745 -0.1637  0.2886 -4.9024
   19DOPE  C317 2445   5.635   4.445  14.746 -0.4801  0.7685 -0.4104
   19DOPE  H17X 2446   5.570   4.396  14.671 -0.8697  2.5025 -1.2327
   19DOPE  H17Y 2447   5.744   4.442  14.728 -0.4645  0.2536 -0.2688
   19DOPE  C318 2448   5.608   4.372  14.882  0.0561 -0.2095  0.2674
   19DOPE  H18X 2449   5.501   4.368  14.912  0.5660 -1.9313  2.0357
   19DOPE  H18Y 2450   5.635   4.265  14.876  0.1883 -0.2738  1.5622
   19DOPE  H18Z 2451   5.665   4.416  14.967  0.6058 -1.3442  0.4991
   20DOPE     N 2452   4.168   1.573  16.928 -0.0083  0.4036  0.4427
   20DOPE   HN1 2453   4.132   1.584  16.831  1.9069  2.0786 -0.1342
   20DOPE   HN2 2454   4.169   1.672  16.961  4.3385  0.0616  1.9750
   20DOPE   HN3 2455   4.261   1.529  16.915  0.6569  1.7602  0.4073
   20DOPE   C12 2456   4.064   1.486  17.005 -0.2512 -0.1483  0.3295
   20DOPE  H12A 2457   4.029   1.551  17.088  0.8278  0.1801  0.5366
   20DOPE  H12B 2458   4.119   1.394  17.035  1.1408  0.4378 -0.3305
   20DOPE   C11 2459   3.942   1.455  16.909 -0.1583 -0.4075  0.2882
   20DOPE  H11A 2460   3.925   1.535  16.833  1.3281 -0.4310 -0.0901
   20DOPE  H11B 2461   3.843   1.429  16.953 -0.7264  1.4295  0.1886
   20DOPE     P 2462   3.965   1.203  16.847 -0.3976  0.0149  0.5449
   20DOPE   O13 2463   3.820   1.180  16.875 -0.2113 -0.3045 -0.0579
   20DOPE   O14 2464   4.067   1.148  16.936 -0.6274 -0.5216 -0.0961
   20DOPE   O11 2465   3.989   1.140  16.704  0.0712  0.0970  0.3115
   20DOPE   O12 2466   3.990   1.362  16.821  0.5427 -0.5811 -0.0687
   20DOPE    C1 2467   4.049   1.223  16.602 -0.7424 -0.1856  0.4595
   20DOPE    HA 2468   4.153   1.251  16.632 -1.0534  0.0464  1.3593
   20DOPE    HB 2469   3.986   1.311  16.576 -0.6383 -0.4523 -0.7330
   20DOPE    C2 2470   4.057   1.144  16.466 -0.6686 -0.1410  0.1989
   20DOPE    HS 2471   4.085   1.214  16.384  1.1898 -0.7351  0.2736
   20DOPE   O21 2472   3.930   1.087  16.425 -0.2660 -0.1901 -0.1103
   20DOPE   C21 2473   3.839   1.180  16.403  0.2108 -0.2799 -0.5239
   20DOPE   O22 2474   3.848   1.302  16.398  0.2353  0.3189  0.5648
   20DOPE   C22 2475   3.704   1.103  16.405 -0.2072  0.2764 -0.0619
   20DOPE   H2R 2476   3.667   1.083  16.508 -1.0578 -0.0363 -0.4127
   20DOPE   H2S 2477   3.719   1.015  16.338 -0.0421  0.6578 -0.5327
   20DOPE    C3 2478   4.161   1.028  16.477 -0.0635  0.7517  0.2352
   20DOPE    HX 2479   4.122   0.957  16.553  0.2708 -0.0557 -0.3241
   20DOPE    HY 2480   4.259   1.056  16.521 -0.4332 -0.9091  2.2646
   20DOPE   O31 2481   4.169   0.955  16.355  0.4195 -0.2044  0.3074
   20DOPE   C31 2482   4.251   1.000  16.262 -0.8517 -0.6729  0.3056
   20DOPE   O32 2483   4.326   1.099  16.279 -0.8281 -0.0873  0.2159
   20DOPE   C32 2484   4.242   0.934  16.129  0.4129 -0.1452 -0.6909
   20DOPE   H2X 2485   4.316   0.851  16.122 -0.5754 -0.9647 -1.8635
   20DOPE   H2Y 2486   4.139   0.894  16.115  0.0827  1.1617 -2.2796
   20DOPE   C23 2487   3.600   1.178  16.312  0.0105 -0.0595 -0.0170
   20DOPE   H3R 2488   3.591   1.287  16.332  1.6501  0.4248 -1.6413
   20DOPE   H3S 2489   3.511   1.118  16.343 -0.7417  0.5548 -0.9204
   20DOPE   C24 2490   3.611   1.155  16.155 -0.0039  0.0432  0.0244
   20DOPE   H4R 2491   3.512   1.182  16.114 -0.5637  0.0511  1.3409
   20DOPE   H4S 2492   3.630   1.046  16.144  0.8118  0.0140  1.4169
   20DOPE   C25 2493   3.708   1.250  16.077 -0.2582 -0.2141  0.8582
   20DOPE   H5R 2494   3.812   1.224  16.106  0.1486  0.5603  0.1364
   20DOPE   H5S 2495   3.686   1.354  16.111  1.6177  0.8374 -0.8830
   20DOPE   C26 2496   3.688   1.252  15.920 -0.9233 -0.5016 -0.8362
   20DOPE   H6R 2497   3.768   1.317  15.878 -1.3851  0.1998 -0.6551
   20DOPE   H6S 2498   3.590   1.297  15.892 -2.0155 -3.2273 -1.7508
   20DOPE   C27 2499   3.705   1.120  15.851  0.1585 -0.5161  0.1610
   20DOPE   H7R 2500   3.613   1.059  15.867 -0.1202  0.2495  1.5914
   20DOPE   H7S 2501   3.786   1.063  15.900 -1.3350 -0.9738  2.2161
   20DOPE   C28 2502   3.744   1.142  15.701  0.5736  0.1269  0.3239
   20DOPE   H8R 2503   3.801   1.052  15.668  1.1111  1.2571 -2.0174
   20DOPE   H8S 2504   3.815   1.225  15.679 -0.8080  0.9792 -1.1242
   20DOPE   C29 2505   3.613   1.159  15.622 -0.4606  0.8238 -0.1333
   20DOPE   H9R 2506   3.515   1.157  15.673 -1.3465  0.4221 -1.7862
   20DOPE  C210 2507   3.606   1.149  15.493 -0.2916 -0.0458 -0.1691
   20DOPE  H10R 2508   3.505   1.153  15.448 -0.9777 -3.2740  0.8179
   20DOPE  C211 2509   3.720   1.134  15.399  0.1189 -0.6282 -0.0140
   20DOPE  H11R 2510   3.733   1.028  15.371  1.3256 -0.5345  0.1719
   20DOPE  H11S 2511   3.808   1.181  15.447  0.2733 -2.3241  1.4513
   20DOPE  C212 2512   3.686   1.216  15.272  0.2327  0.3605  0.4735
   20DOPE  H12R 2513   3.785   1.213  15.221 -0.2785 -1.0606 -0.4936
   20DOPE  H12S 2514   3.663   1.323  15.292 -1.8056  0.0086  0.2077
   20DOPE  C213 2515   3.571   1.158  15.185  0.8635 -0.3957  0.5266
   20DOPE  H13R 2516   3.482   1.119  15.239 -2.5360  1.3419 -3.2683
   20DOPE  H13S 2517   3.596   1.071  15.120 -2.0031  0.8546 -2.5691
   20DOPE  C214 2518   3.518   1.272  15.094 -0.8359  0.4786  0.1239
   20DOPE  H14R 2519   3.612   1.286  15.036  0.0903 -0.7026  1.2782
   20DOPE  H14S 2520   3.499   1.365  15.152 -2.4432  1.2447 -1.5446
   20DOPE  C215 2521   3.394   1.229  15.011  0.4930 -0.6663  0.5768
   20DOPE  H15R 2522   3.307   1.204  15.075 -1.0885 -0.2664 -1.3108
   20DOPE  H15S 2523   3.430   1.138  14.958 -1.6549 -0.4533 -1.4064
   20DOPE  C216 2524   3.357   1.332  14.907  0.1293  0.4760  0.1970
   20DOPE  H16R 2525   3.444   1.351  14.840 -0.2366 -0.2990 -0.5097
   20DOPE  H16S 2526   3.325   1.424  14.960 -0.6503 -0.9084  2.2083
   20DOPE  C217 2527   3.250   1.285  14.801 -0.1215 -0.5358 -0.1217
   20DOPE  H17R 2528   3.218   1.373  14.741 -1.8080 -0.9027  0.1894
   20DOPE  H17S 2529   3.157   1.251  14.853  0.7266 -1.0479  1.1043
   20DOPE  C218 2530   3.297   1.175  14.703  0.0850  0.6234 -0.2074
   20DOPE  H18R 2531   3.334   1.087  14.760  0.1532  0.5993 -0.2895
   20DOPE  H18S 2532   3.379   1.217  14.641 -0.1555 -0.4880 -1.3164
   20DOPE  H18T 2533   3.213   1.146  14.637  0.2469 -0.3653  0.0118
   20DOPE   C33 2534   4.251   1.029  16.004 -0.6177 -0.3960 -0.0405
   20DOPE   H3X 2535   4.283   0.956  15.926 -0.7420 -0.7781  0.2595
   20DOPE   H3Y 2536   4.332   1.104  16.014  1.3172 -2.4559  0.6848
   20DOPE   C34 2537   4.117   1.095  15.969  0.2769  1.2062 -0.4119
   20DOPE   H4X 2538   4.043   1.014  15.951 -0.3801  1.8466 -0.6956
   20DOPE   H4Y 2539   4.083   1.154  16.057  1.5647  0.6404  0.4862
   20DOPE   C35 2540   4.118   1.185  15.849  0.1985 -0.4677 -0.4220
   20DOPE   H5X 2541   4.182   1.273  15.873 -0.4533 -0.0755 -0.0712
   20DOPE   H5Y 2542   4.015   1.219  15.822  0.6026  0.7133 -0.5417
   20DOPE   C36 2543   4.156   1.115  15.717 -0.1691 -0.1746  0.4760
   20DOPE   H6X 2544   4.088   1.029  15.700 -1.7258  1.4420 -2.0217
   20DOPE   H6Y 2545   4.261   1.080  15.729 -0.5130 -0.6673  2.5225
   20DOPE   C37 2546   4.136   1.208  15.595 -0.2430  0.0143 -0.0135
   20DOPE   H7X 2547   4.032   1.247  15.587 -0.3687 -0.3732 -0.3468
   20DOPE   H7Y 2548   4.198   1.295  15.623  0.0842 -0.5369  1.0233
   20DOPE   C38 2549   4.178   1.148  15.461  0.1691 -0.0886 -0.1664
   20DOPE   H8X 2550   4.270   1.085  15.463  1.4250  1.5788 -2.1562
   20DOPE   H8Y 2551   4.213   1.229  15.393 -0.9363  1.8412  1.4590
   20DOPE   C39 2552   4.076   1.060  15.400 -0.7027 -0.4098  0.3646
   20DOPE   H9X 2553   4.023   0.985  15.461  2.5576 -1.8819  1.6369
   20DOPE  C310 2554   4.050   1.064  15.274  0.1692  0.0927  0.1190
   20DOPE  H10X 2555   3.962   1.010  15.235 -0.5699 -1.3272  3.3687
   20DOPE  C311 2556   4.130   1.136  15.166 -0.5143  0.0589  0.2548
   20DOPE  H11X 2557   4.073   1.222  15.126 -0.6747 -0.1215  0.0881
   20DOPE  H11Y 2558   4.233   1.155  15.201 -0.2970 -2.8079  1.4323
   20DOPE  C312 2559   4.151   1.042  15.045 -0.0294  0.3107 -0.6989
   20DOPE  H12X 2560   4.059   0.990  15.012 -1.9261  1.4431  2.4723
   20DOPE  H12Y 2561   4.216   0.954  15.068 -0.9477 -0.8304 -2.2497
   20DOPE  C313 2562   4.214   1.118  14.921 -0.2995 -0.1967  0.4989
   20DOPE  H13X 2563   4.155   1.211  14.911  0.8274  0.5301  0.5357
   20DOPE  H13Y 2564   4.315   1.157  14.947 -0.2424 -0.0475  0.0695
   20DOPE  C314 2565   4.217   1.031  14.791 -0.1576  0.7219 -0.5864
   20DOPE  H14X 2566   4.112   1.011  14.759 -0.6358  1.3405  0.5562
   20DOPE  H14Y 2567   4.259   0.933  14.821 -1.5805  0.3226  0.1770
   20DOPE  C315 2568   4.295   1.092  14.677  1.0264 -0.3737 -0.4946
   20DOPE  H15X 2569   4.399   1.116  14.709  1.1469 -1.1281 -0.3071
   20DOPE  H15Y 2570   4.253   1.193  14.658 -1.9109 -0.7211  3.1142
   20DOPE  C316 2571   4.295   1.013  14.541  0.3448  0.0379 -0.2649
   20DOPE  H16X 2572   4.193   1.028  14.499  0.7987  2.9535 -0.5548
   20DOPE  H16Y 2573   4.316   0.905  14.552  0.0970  0.0570  0.4958
   20DOPE  C317 2574   4.400   1.077  14.446 -0.1949  0.1852  0.0096
   20DOPE  H17X 2575   4.498   1.099  14.493  0.7716  0.3193 -1.9747
   20DOPE  H17Y 2576   4.416   1.006  14.363  1.4577 -0.7176  1.0599
   20DOPE  C318 2577   4.356   1.207  14.374 -0.4284  0.8270 -0.4832
   20DOPE  H18X 2578   4.443   1.266  14.337 -0.3063  1.2577  0.4488
   20DOPE  H18Y 2579   4.292   1.191  14.285  1.3656 -1.7785 -1.4435
   20DOPE  H18Z 2580   4.302   1.269  14.449 -0.9730 -1.3877  1.0742
   21DOPE     N 2581   1.687   1.317  17.084 -0.5519  0.2471  0.2101
   21DOPE   HN1 2582   1.683   1.400  17.147 -1.6845  1.5171 -1.4304
   21DOPE   HN2 2583   1.701   1.353  16.988 -0.0605 -0.6750 -0.0710
   21DOPE   HN3 2584   1.594   1.269  17.083  0.0918 -1.0279 -0.1616
   21DOPE   C12 2585   1.805   1.227  17.111 -0.8609  0.2669 -0.1244
   21DOPE  H12A 2586   1.792   1.135  17.051 -1.3404  0.6600 -0.6296
   21DOPE  H12B 2587   1.825   1.211  17.220  2.1227  0.0729 -0.6035
   21DOPE   C11 2588   1.939   1.290  17.060  0.0806  0.7184 -0.3414
   21DOPE  H11A 2589   1.944   1.315  16.952 -1.0335 -0.2618 -0.6459
   21DOPE  H11B 2590   2.015   1.211  17.077 -0.9787 -0.4736 -1.0106
   21DOPE     P 2591   1.968   1.552  17.099  0.0957 -0.0454  0.0939
   21DOPE   O13 2592   2.034   1.632  17.212 -0.3732  0.4402 -0.4673
   21DOPE   O14 2593   1.824   1.566  17.068 -0.6021  0.2855 -0.3162
   21DOPE   O11 2594   2.054   1.568  16.964 -0.1044  0.5934  0.4902
   21DOPE   O12 2595   1.981   1.400  17.143 -0.4540  0.4121  0.3689
   21DOPE    C1 2596   2.187   1.516  16.964 -0.3224 -0.0597 -0.0560
   21DOPE    HA 2597   2.199   1.421  17.021  0.4912 -0.5670 -1.0366
   21DOPE    HB 2598   2.250   1.600  16.999  0.8669  0.1987 -2.6148
   21DOPE    C2 2599   2.237   1.491  16.820 -1.0085 -0.0778 -0.1451
   21DOPE    HS 2600   2.341   1.455  16.813 -0.9221  0.2420 -0.5215
   21DOPE   O21 2601   2.222   1.613  16.745  0.3816 -0.4434 -0.0283
   21DOPE   C21 2602   2.337   1.686  16.748  0.1441 -0.6365 -0.8935
   21DOPE   O22 2603   2.443   1.652  16.801  0.2998  0.1534 -0.6669
   21DOPE   C22 2604   2.313   1.808  16.662  0.6114  0.7144  0.4245
   21DOPE   H2R 2605   2.319   1.901  16.723  1.4397  2.2679 -1.8615
   21DOPE   H2S 2606   2.211   1.793  16.622  0.7003 -2.0091  1.0431
   21DOPE    C3 2607   2.149   1.372  16.764  0.0562 -0.4520  0.3604
   21DOPE    HX 2608   2.045   1.410  16.777  1.2268  3.2102  0.2455
   21DOPE    HY 2609   2.162   1.288  16.835  0.6536  0.1583  0.9943
   21DOPE   O31 2610   2.192   1.338  16.630 -0.1554  0.9019  0.0364
   21DOPE   C31 2611   2.141   1.408  16.530  1.2739  0.1814  0.2691
   21DOPE   O32 2612   2.054   1.492  16.533  0.1317 -0.8070  0.1232
   21DOPE   C32 2613   2.218   1.362  16.399  0.2449  0.3479  0.0067
   21DOPE   H2X 2614   2.321   1.391  16.426  0.5766  0.3307 -1.1604
   21DOPE   H2Y 2615   2.203   1.252  16.409 -2.6578  0.7061  0.5517
   21DOPE   C23 2616   2.419   1.833  16.551 -0.3336 -0.2319 -0.4276
   21DOPE   H3R 2617   2.518   1.822  16.600 -0.6433  0.4286  0.3746
   21DOPE   H3S 2618   2.413   1.939  16.517  1.8549 -0.2598 -1.0654
   21DOPE   C24 2619   2.391   1.747  16.429 -0.4337 -0.1899  0.4038
   21DOPE   H4R 2620   2.291   1.775  16.389 -0.6002  0.1071  1.0090
   21DOPE   H4S 2621   2.382   1.641  16.460  0.5715 -0.4061 -0.0066
   21DOPE   C25 2622   2.495   1.753  16.318 -0.2052 -0.1808 -0.9517
   21DOPE   H5R 2623   2.598   1.723  16.347  0.2848  1.1433 -1.2106
   21DOPE   H5S 2624   2.503   1.862  16.296  0.5502  0.0295  0.2664
   21DOPE   C26 2625   2.451   1.663  16.203  0.0623 -0.0183  0.4096
   21DOPE   H6R 2626   2.344   1.665  16.174 -0.2518  1.4752  1.5819
   21DOPE   H6S 2627   2.480   1.558  16.228 -1.5006 -1.0633 -1.8153
   21DOPE   C27 2628   2.529   1.702  16.074  0.0461 -0.1391 -0.0453
   21DOPE   H7R 2629   2.637   1.683  16.086  0.3408 -0.2296 -2.4555
   21DOPE   H7S 2630   2.507   1.810  16.061  2.6748  0.3942 -0.5570
   21DOPE   C28 2631   2.478   1.630  15.952  0.0737  0.3246 -0.1774
   21DOPE   H8R 2632   2.369   1.651  15.939 -0.8287 -3.1517  0.5848
   21DOPE   H8S 2633   2.468   1.520  15.962 -3.9905 -0.0034 -4.2452
   21DOPE   C29 2634   2.557   1.641  15.824  0.2409 -0.1042  0.3530
   21DOPE   H9R 2635   2.664   1.622  15.839  0.4402  1.4068  1.1068
   21DOPE  C210 2636   2.524   1.697  15.706 -0.6641 -0.3140 -0.4223
   21DOPE  H10R 2637   2.602   1.699  15.628  0.7311 -1.6474  0.8665
   21DOPE  C211 2638   2.396   1.769  15.666 -0.5676  0.1248 -0.2120
   21DOPE  H11R 2639   2.390   1.870  15.712 -0.3561 -1.2309  3.0271
   21DOPE  H11S 2640   2.309   1.711  15.704 -1.7422  1.0999 -1.3140
   21DOPE  C212 2641   2.379   1.776  15.516 -0.4559 -0.5885 -0.1835
   21DOPE  H12R 2642   2.277   1.817  15.502 -1.1085 -1.9000  0.5204
   21DOPE  H12S 2643   2.382   1.681  15.457 -0.0507  0.2243 -1.5260
   21DOPE  C213 2644   2.470   1.882  15.439  0.5167 -0.0583 -0.0675
   21DOPE  H13R 2645   2.573   1.847  15.461  0.6684  0.1483 -0.4355
   21DOPE  H13S 2646   2.458   1.979  15.492  0.0410 -0.5871  0.8260
   21DOPE  C214 2647   2.446   1.901  15.290 -0.0700  0.1284 -0.0954
   21DOPE  H14R 2648   2.514   1.983  15.260  0.8004  0.2564  2.0414
   21DOPE  H14S 2649   2.346   1.942  15.263 -0.0089  0.1312 -0.3215
   21DOPE  C215 2650   2.484   1.772  15.216  0.4757  0.3984  0.1204
   21DOPE  H15R 2651   2.421   1.688  15.250 -0.6697  0.6802 -1.2004
   21DOPE  H15S 2652   2.590   1.747  15.238 -0.4088 -3.4506  0.6101
   21DOPE  C216 2653   2.469   1.783  15.057  0.0275 -0.2529 -0.1552
   21DOPE  H16R 2654   2.366   1.813  15.031  0.1276  1.2477  0.9946
   21DOPE  H16S 2655   2.477   1.680  15.015  1.0560 -0.0299 -0.5375
   21DOPE  C217 2656   2.571   1.876  14.975  0.1663 -0.4000  0.4523
   21DOPE  H17R 2657   2.675   1.874  15.013 -0.0658  2.3014  1.4322
   21DOPE  H17S 2658   2.540   1.981  14.993  1.2489  0.0932 -0.5022
   21DOPE  C218 2659   2.573   1.866  14.826 -0.2370  0.2266 -0.2041
   21DOPE  H18R 2660   2.629   1.948  14.777 -3.5589  1.7129 -1.8145
   21DOPE  H18S 2661   2.468   1.868  14.790  0.3514 -1.0058 -2.2017
   21DOPE  H18T 2662   2.619   1.771  14.792  0.6339  0.3710  0.5136
   21DOPE   C33 2663   2.165   1.424  16.271 -0.1612  0.2854  1.3154
   21DOPE   H3X 2664   2.175   1.534  16.281 -2.9500  0.5144  2.8488
   21DOPE   H3Y 2665   2.056   1.405  16.258 -0.7824  2.4815  2.7313
   21DOPE   C34 2666   2.235   1.381  16.142  0.1040  0.9279  0.3993
   21DOPE   H4X 2667   2.333   1.430  16.122 -0.4533  0.9995 -2.5454
   21DOPE   H4Y 2668   2.270   1.276  16.147  1.6336  1.4148  0.5268
   21DOPE   C35 2669   2.135   1.399  16.023 -0.7419  0.5981  0.5440
   21DOPE   H5X 2670   2.101   1.505  16.019  1.7098  1.4919  1.4480
   21DOPE   H5Y 2671   2.049   1.330  16.035 -1.0542  0.6176 -1.3787
   21DOPE   C36 2672   2.200   1.353  15.888  0.1708 -0.5464 -0.3232
   21DOPE   H6X 2673   2.195   1.242  15.891 -0.1766 -0.5177  2.2638
   21DOPE   H6Y 2674   2.306   1.385  15.878  0.7329 -2.3364 -0.5823
   21DOPE   C37 2675   2.122   1.421  15.773 -0.2192 -0.0704  0.3802
   21DOPE   H7X 2676   2.022   1.372  15.777  0.0167 -0.4769  2.2691
   21DOPE   H7Y 2677   2.108   1.529  15.795  2.1515  0.1935  0.9116
   21DOPE   C38 2678   2.183   1.417  15.630  0.5832 -0.2227  0.4479
   21DOPE   H8X 2679   2.288   1.451  15.635  0.5378 -0.2262  2.3524
   21DOPE   H8Y 2680   2.131   1.497  15.573 -0.2909 -3.4763 -3.8306
   21DOPE   C39 2681   2.180   1.284  15.554 -0.3257  0.3732  0.1769
   21DOPE   H9X 2682   2.199   1.193  15.614 -1.1060  1.5848  2.3998
   21DOPE  C310 2683   2.157   1.268  15.423 -0.1536  0.2810 -0.1323
   21DOPE  H10X 2684   2.189   1.171  15.383  0.9594  0.3610  0.5149
   21DOPE  C311 2685   2.110   1.373  15.334 -0.1076  0.6551  0.1455
   21DOPE  H11X 2686   2.016   1.336  15.290 -0.1713  0.6377  0.2941
   21DOPE  H11Y 2687   2.078   1.465  15.389  0.2015  0.5312  0.5326
   21DOPE  C312 2688   2.212   1.415  15.220  0.6933 -0.0110 -0.2380
   21DOPE  H12X 2689   2.312   1.400  15.266  1.1662  0.4027 -1.1277
   21DOPE  H12Y 2690   2.194   1.524  15.231  0.3582 -0.0531 -0.3313
   21DOPE  C313 2691   2.191   1.348  15.075 -0.4207  0.0556 -0.2082
   21DOPE  H13X 2692   2.217   1.241  15.065  1.7142  0.3530  1.5128
   21DOPE  H13Y 2693   2.083   1.363  15.052 -0.7211 -1.5594  0.0585
   21DOPE  C314 2694   2.271   1.417  14.968  0.3336  0.2342  0.2894
   21DOPE  H14X 2695   2.376   1.382  14.980 -0.1862 -0.4762  3.8780
   21DOPE  H14Y 2696   2.256   1.526  14.979  2.7628  0.6124  0.4645
   21DOPE  C315 2697   2.211   1.360  14.831 -0.1394 -0.2091  0.0244
   21DOPE  H15X 2698   2.112   1.309  14.840 -0.0620 -0.0146  2.5633
   21DOPE  H15Y 2699   2.287   1.285  14.799  1.8971  1.8218 -0.1294
   21DOPE  C316 2700   2.191   1.481  14.729 -0.0705  0.7174 -0.7325
   21DOPE  H16X 2701   2.114   1.553  14.763 -1.6829 -1.0136 -0.5056
   21DOPE  H16Y 2702   2.149   1.433  14.637 -0.0504  0.4054 -0.5817
   21DOPE  C317 2703   2.318   1.561  14.689 -0.0800  0.1351 -0.1596
   21DOPE  H17X 2704   2.293   1.615  14.595 -2.1358 -0.8698 -0.2604
   21DOPE  H17Y 2705   2.351   1.631  14.769  1.1039 -0.1175 -0.4088
   21DOPE  C318 2706   2.437   1.464  14.672 -0.0431 -0.4394  0.2349
   21DOPE  H18X 2707   2.426   1.403  14.580 -0.0998  0.7399 -0.5607
   21DOPE  H18Y 2708   2.528   1.527  14.660 -0.0572 -0.1815  1.3341
   21DOPE  H18Z 2709   2.459   1.407  14.765 -2.5853 -0.5538  0.8413
   22DOPE     N 2710   6.137   5.899  16.490  0.9677  0.2625 -0.2547
   22DOPE   HN1 2711   6.038   5.885  16.459  0.7076 -0.3442  0.8056
   22DOPE   HN2 2712   6.151   5.985  16.548  0.6070 -0.5715  1.1314
   22DOPE   HN3 2713   6.195   5.909  16.405 -0.5183 -0.5530 -1.4178
   22DOPE   C12 2714   6.169   5.782  16.580  0.4947 -0.3193  0.4501
   22DOPE  H12A 2715   6.177   5.703  16.502 -2.7219 -0.5988  0.2610
   22DOPE  H12B 2716   6.094   5.758  16.658 -0.2205  2.1966  0.6463
   22DOPE   C11 2717   6.300   5.813  16.652  0.2003  0.1558 -0.7831
   22DOPE  H11A 2718   6.322   5.726  16.718  0.3255  1.1225  0.4799
   22DOPE  H11B 2719   6.274   5.902  16.713 -1.2621 -0.3050 -0.7107
   22DOPE     P 2720   6.548   5.872  16.616  0.3364  0.1319 -0.3934
   22DOPE   O13 2721   6.586   5.752  16.692 -0.0166 -0.5055  0.5428
   22DOPE   O14 2722   6.550   6.005  16.685 -0.4255  0.1467 -0.5213
   22DOPE   O11 2723   6.634   5.879  16.483 -0.2380  0.5559  0.3828
   22DOPE   O12 2724   6.400   5.846  16.563 -0.6099  0.5182  0.0337
   22DOPE    C1 2725   6.622   5.996  16.403 -0.0933 -0.4067  0.2461
   22DOPE    HA 2726   6.712   6.020  16.344 -1.6662  2.3036 -1.2551
   22DOPE    HB 2727   6.609   6.092  16.458 -0.1783 -0.0984 -0.3140
   22DOPE    C2 2728   6.499   5.989  16.308 -0.3084  0.0831  0.5959
   22DOPE    HS 2729   6.405   5.993  16.368  0.2497  1.2081  1.4349
   22DOPE   O21 2730   6.509   5.856  16.252  0.4773  0.0444  0.2950
   22DOPE   C21 2731   6.385   5.809  16.216 -0.2662 -0.5417 -0.8776
   22DOPE   O22 2732   6.278   5.851  16.255  0.3256  0.0088 -0.0882
   22DOPE   C22 2733   6.411   5.692  16.122  1.0015  0.2337  0.1558
   22DOPE   H2R 2734   6.347   5.611  16.163  1.5626 -0.8014 -0.9521
   22DOPE   H2S 2735   6.516   5.659  16.132  0.9651 -0.1823 -0.7067
   22DOPE    C3 2736   6.500   6.103  16.201  0.3934 -0.6158 -0.5682
   22DOPE    HX 2737   6.608   6.105  16.174  0.5597  1.8059  0.0164
   22DOPE    HY 2738   6.484   6.200  16.253  1.3732 -0.6520 -0.1735
   22DOPE   O31 2739   6.424   6.084  16.081 -0.8271 -0.2716  0.5660
   22DOPE   C31 2740   6.288   6.123  16.091 -0.9738 -0.2002 -0.7050
   22DOPE   O32 2741   6.242   6.188  16.186  1.0004  0.2571  0.1252
   22DOPE   C32 2742   6.211   6.077  15.969 -0.7696  0.0314  0.2820
   22DOPE   H2X 2743   6.275   6.102  15.882  1.0881 -2.9334  0.6551
   22DOPE   H2Y 2744   6.187   5.968  15.973  0.3014 -0.2152  0.2928
   22DOPE   C23 2745   6.364   5.715  15.983 -0.0546 -0.2030  0.4372
   22DOPE   H3R 2746   6.270   5.774  15.982  1.3592  2.2148  1.4444
   22DOPE   H3S 2747   6.347   5.622  15.925 -2.8871 -0.2935  1.2667
   22DOPE   C24 2748   6.465   5.801  15.895 -0.3389 -0.0387  0.1394
   22DOPE   H4R 2749   6.562   5.748  15.884 -0.2705  0.4219 -1.7948
   22DOPE   H4S 2750   6.477   5.898  15.948  0.5377 -0.4289  0.6720
   22DOPE   C25 2751   6.412   5.825  15.756 -0.1152  0.1636  0.1950
   22DOPE   H5R 2752   6.312   5.871  15.767 -0.1237  0.6001 -1.4209
   22DOPE   H5S 2753   6.413   5.730  15.698  0.1954  0.0952  0.3111
   22DOPE   C26 2754   6.477   5.944  15.680  0.7302 -0.4367 -0.2238
   22DOPE   H6R 2755   6.576   5.905  15.647 -0.1326 -1.7164 -1.4435
   22DOPE   H6S 2756   6.495   6.029  15.749 -1.9052  0.5027 -0.5853
   22DOPE   C27 2757   6.382   5.991  15.569  0.0789 -0.3708 -0.2503
   22DOPE   H7R 2758   6.281   6.007  15.611  0.6633 -2.0009  1.9665
   22DOPE   H7S 2759   6.376   5.913  15.490 -0.8869 -0.3817 -0.1743
   22DOPE   C28 2760   6.423   6.129  15.513  0.2808 -0.4471  0.5798
   22DOPE   H8R 2761   6.448   6.200  15.594  1.2000 -1.0379  0.8242
   22DOPE   H8S 2762   6.331   6.179  15.474 -1.2472 -1.1858  2.9937
   22DOPE   C29 2763   6.528   6.112  15.406 -0.7685 -0.0169 -0.6210
   22DOPE   H9R 2764   6.624   6.073  15.442 -0.3389  1.1491 -0.4711
   22DOPE  C210 2765   6.528   6.174  15.285 -0.4093  0.1468 -0.1862
   22DOPE  H10R 2766   6.606   6.144  15.213 -0.1609 -1.3450  0.6711
   22DOPE  C211 2767   6.408   6.243  15.224  0.1907 -0.2017 -0.6542
   22DOPE  H11R 2768   6.403   6.344  15.272 -0.8952 -0.1858 -0.7787
   22DOPE  H11S 2769   6.316   6.183  15.237 -0.2674  0.7406  0.6549
   22DOPE  C212 2770   6.415   6.257  15.075  0.2847 -0.4667  0.3654
   22DOPE  H12R 2771   6.315   6.280  15.034  0.5976  3.2275  1.3073
   22DOPE  H12S 2772   6.441   6.156  15.036  1.2872 -1.6267  3.7172
   22DOPE  C213 2773   6.512   6.363  15.030 -0.5112 -0.0330 -0.2775
   22DOPE  H13R 2774   6.618   6.336  15.044 -0.7875 -3.0265 -2.8734
   22DOPE  H13S 2775   6.483   6.457  15.080  0.0326  0.3914 -0.7509
   22DOPE  C214 2776   6.497   6.397  14.875  0.4987  0.3185  0.3023
   22DOPE  H14R 2777   6.389   6.397  14.850  0.7232  1.0744 -0.7602
   22DOPE  H14S 2778   6.536   6.320  14.806 -0.9902 -1.1930  1.0822
   22DOPE  C215 2779   6.544   6.543  14.840 -0.2530  0.3251 -0.0685
   22DOPE  H15R 2780   6.654   6.555  14.848 -0.2936  1.4769 -1.0130
   22DOPE  H15S 2781   6.512   6.610  14.923 -0.0253  0.2469  0.0831
   22DOPE  C216 2782   6.501   6.590  14.705  0.3338  0.2165  0.0831
   22DOPE  H16R 2783   6.520   6.700  14.699  0.3103  0.2502  0.5416
   22DOPE  H16S 2784   6.395   6.566  14.685 -0.1487  3.3008 -1.7648
   22DOPE  C217 2785   6.576   6.502  14.598 -0.4685  0.0858 -0.4340
   22DOPE  H17R 2786   6.561   6.394  14.620  1.7572 -0.4954 -1.4285
   22DOPE  H17S 2787   6.686   6.517  14.588 -0.4618 -0.9844 -2.7523
   22DOPE  C218 2788   6.510   6.523  14.459 -0.1948  0.4503  0.2463
   22DOPE  H18R 2789   6.400   6.521  14.472 -0.2545  0.7712 -0.1576
   22DOPE  H18S 2790   6.553   6.454  14.383 -1.3385 -0.3750  0.3220
   22DOPE  H18T 2791   6.538   6.624  14.421 -2.3150  1.4165  1.0872
   22DOPE   C33 2792   6.063   6.136  15.955 -0.1904 -0.1348 -0.1859
   22DOPE   H3X 2793   6.068   6.245  15.978 -1.0470 -0.8357  3.9335
   22DOPE   H3Y 2794   5.992   6.084  16.021 -0.0013  0.9954  0.9418
   22DOPE   C34 2795   6.016   6.135  15.807 -0.6186 -0.5005 -0.1453
   22DOPE   H4X 2796   5.921   6.190  15.792 -2.2211 -2.7143  1.3253
   22DOPE   H4Y 2797   6.096   6.195  15.758 -0.8394  0.6405  0.8367
   22DOPE   C35 2798   5.996   5.999  15.744 -0.4477 -0.1930 -0.6114
   22DOPE   H5X 2799   5.960   5.926  15.819 -2.3978 -0.0750 -1.3718
   22DOPE   H5Y 2800   6.097   5.961  15.720 -0.9092 -0.9093 -1.4781
   22DOPE   C36 2801   5.889   5.986  15.640  0.1441  1.0932  0.1904
   22DOPE   H6X 2802   5.784   5.995  15.678 -0.1347 -0.2942 -0.1896
   22DOPE   H6Y 2803   5.904   5.888  15.590 -0.0735  2.7273 -3.4500
   22DOPE   C37 2804   5.914   6.094  15.535  0.5515  0.2910 -0.1808
   22DOPE   H7X 2805   5.918   6.197  15.576 -0.5289  0.0596  0.5765
   22DOPE   H7Y 2806   6.016   6.074  15.497  0.2092 -0.6456 -0.6426
   22DOPE   C38 2807   5.820   6.090  15.410  0.3673  0.2407 -0.5806
   22DOPE   H8X 2808   5.835   6.184  15.351 -0.0245  0.2652 -0.6419
   22DOPE   H8Y 2809   5.715   6.097  15.444  0.6648 -1.9537  0.9207
   22DOPE   C39 2810   5.845   5.965  15.333  0.1244  0.2041  0.1166
   22DOPE   H9X 2811   5.845   5.875  15.397  1.9462  0.6172  0.7615
   22DOPE  C310 2812   5.862   5.948  15.203 -0.7200 -0.0554  0.3845
   22DOPE  H10X 2813   5.869   5.847  15.160  2.4106  0.7320 -1.2137
   22DOPE  C311 2814   5.881   6.060  15.103 -0.8189  0.3353 -0.2407
   22DOPE  H11X 2815   5.924   6.148  15.155 -0.1644  0.7821 -1.5183
   22DOPE  H11Y 2816   5.960   6.024  15.033 -1.1426 -0.8793 -0.0108
   22DOPE  C312 2817   5.760   6.108  15.026  0.3430  0.9977  0.0318
   22DOPE  H12X 2818   5.675   6.137  15.092  1.2638  1.5037  1.0117
   22DOPE  H12Y 2819   5.725   6.017  14.971  2.3067  0.1582  0.0959
   22DOPE  C313 2820   5.790   6.216  14.929  0.0758  0.0757 -0.6560
   22DOPE  H13X 2821   5.786   6.312  14.985  0.0211 -0.1704 -0.2367
   22DOPE  H13Y 2822   5.892   6.198  14.888 -0.6065  1.8989 -3.4572
   22DOPE  C314 2823   5.685   6.227  14.819 -0.6258 -0.1078 -0.5527
   22DOPE  H14X 2824   5.586   6.246  14.866 -0.8209  0.0090 -1.0055
   22DOPE  H14Y 2825   5.673   6.143  14.748  0.8561 -0.2012 -0.7178
   22DOPE  C315 2826   5.724   6.354  14.743 -0.1187  0.3858 -0.0126
   22DOPE  H15X 2827   5.798   6.322  14.666 -1.1309  0.9909 -1.2823
   22DOPE  H15Y 2828   5.773   6.431  14.806 -1.2960  1.2105 -0.0636
   22DOPE  C316 2829   5.599   6.415  14.674 -0.2071 -0.7911  0.4438
   22DOPE  H16X 2830   5.628   6.507  14.619 -3.0902 -0.2248 -0.2675
   22DOPE  H16Y 2831   5.522   6.445  14.748 -1.2968 -1.3674 -0.4260
   22DOPE  C317 2832   5.523   6.322  14.584  0.1462 -0.5400  0.0547
   22DOPE  H17X 2833   5.596   6.286  14.508  0.5943  1.6473 -0.6071
   22DOPE  H17Y 2834   5.493   6.236  14.649 -1.9977 -1.0153 -1.4349
   22DOPE  C318 2835   5.408   6.389  14.525 -0.0679 -0.3988  0.7542
   22DOPE  H18X 2836   5.329   6.313  14.507  0.8972 -0.8114 -2.4699
   22DOPE  H18Y 2837   5.361   6.460  14.596  1.2640  1.4435 -0.1209
   22DOPE  H18Z 2838   5.432   6.442  14.430  0.4848  1.1825  1.7514
   23DOPE     N 2839   2.708   1.866  17.482  0.2019 -0.5329 -0.1485
   23DOPE   HN1 2840   2.798   1.816  17.467 -0.0397 -0.9063 -0.3925
   23DOPE   HN2 2841   2.726   1.968  17.487 -0.4308 -0.3804 -0.7726
   23DOPE   HN3 2842   2.667   1.831  17.571  0.1556 -0.5320 -0.1684
   23DOPE   C12 2843   2.616   1.839  17.364 -0.4000  0.0141  0.7957
   23DOPE  H12A 2844   2.523   1.892  17.392 -0.7850  0.7770 -1.7329
   23DOPE  H12B 2845   2.595   1.730  17.362  1.1247 -0.2939 -0.4717
   23DOPE   C11 2846   2.657   1.918  17.237 -0.5609  1.0008  0.4300
   23DOPE  H11A 2847   2.666   2.020  17.279  3.0674  0.4429  1.3875
   23DOPE  H11B 2848   2.585   1.908  17.153  0.3813 -0.4742 -0.2365
   23DOPE     P 2849   2.862   1.955  17.082 -0.2702 -0.0064  0.3229
   23DOPE   O13 2850   2.993   1.892  17.052 -0.3349 -0.3317  0.9420
   23DOPE   O14 2851   2.866   2.099  17.120  0.1487 -0.0856 -0.2205
   23DOPE   O11 2852   2.774   1.937  16.954  0.2325 -0.1747  0.3539
   23DOPE   O12 2853   2.785   1.867  17.191  0.3166  0.4863  0.1000
   23DOPE    C1 2854   2.756   1.817  16.873  0.1325 -0.2599  0.1976
   23DOPE    HA 2855   2.648   1.805  16.854 -0.1297  2.2037 -0.2006
   23DOPE    HB 2856   2.798   1.723  16.914 -0.5333 -0.9076 -0.5792
   23DOPE    C2 2857   2.812   1.846  16.727 -0.3095  0.2149 -0.6880
   23DOPE    HS 2858   2.923   1.849  16.735 -0.0965  0.1174 -2.9675
   23DOPE   O21 2859   2.755   1.965  16.670  0.2701 -0.1433 -0.1206
   23DOPE   C21 2860   2.830   2.071  16.668  0.2182  0.1127 -0.0292
   23DOPE   O22 2861   2.946   2.076  16.706  0.0591 -0.1281 -0.0956
   23DOPE   C22 2862   2.753   2.190  16.605  0.8782  0.3948 -0.2951
   23DOPE   H2R 2863   2.836   2.263  16.594  0.5265  0.8849  0.2842
   23DOPE   H2S 2864   2.685   2.235  16.680 -0.1582 -0.9646 -0.3961
   23DOPE    C3 2865   2.787   1.715  16.642  0.7631  0.3318 -0.3271
   23DOPE    HX 2866   2.680   1.695  16.667  0.7413  1.2096  0.3398
   23DOPE    HY 2867   2.843   1.627  16.679 -0.8100 -0.6018 -0.0830
   23DOPE   O31 2868   2.802   1.753  16.503 -0.4610  0.2011 -0.3122
   23DOPE   C31 2869   2.925   1.759  16.461 -0.0596  0.0065  0.1801
   23DOPE   O32 2870   3.025   1.712  16.517  0.0523 -0.9389 -0.6545
   23DOPE   C32 2871   2.927   1.805  16.309 -0.1951  0.4141 -0.1356
   23DOPE   H2X 2872   2.823   1.814  16.270  0.5510 -0.3072 -2.4984
   23DOPE   H2Y 2873   2.966   1.909  16.306 -1.4712  0.9153  0.1509
   23DOPE   C23 2874   2.664   2.163  16.485 -0.2738 -0.2157  0.6684
   23DOPE   H3R 2875   2.595   2.249  16.464 -2.2150 -1.6753  0.7864
   23DOPE   H3S 2876   2.592   2.079  16.495 -2.4129  1.4640  0.1002
   23DOPE   C24 2877   2.755   2.138  16.366 -0.1890 -0.4354  0.2826
   23DOPE   H4R 2878   2.828   2.058  16.390 -1.4753 -1.9866 -0.7493
   23DOPE   H4S 2879   2.807   2.236  16.358 -0.8840  0.0523  1.4400
   23DOPE   C25 2880   2.678   2.119  16.233 -0.6180 -0.3770 -0.3242
   23DOPE   H5R 2881   2.615   2.210  16.228  0.9978  0.8337  0.5778
   23DOPE   H5S 2882   2.613   2.029  16.243 -5.2619  2.7300  0.6606
   23DOPE   C26 2883   2.765   2.113  16.106 -0.0547 -0.4403  0.8396
   23DOPE   H6R 2884   2.849   2.040  16.107  1.3496  0.9776 -2.0651
   23DOPE   H6S 2885   2.805   2.212  16.077 -0.6265 -0.4514 -0.0211
   23DOPE   C27 2886   2.680   2.081  15.979 -0.3071 -0.4110 -0.7427
   23DOPE   H7R 2887   2.588   2.143  15.972 -1.1689 -1.2120  2.1922
   23DOPE   H7S 2888   2.637   1.981  16.002  2.4837 -1.0225  2.7453
   23DOPE   C28 2889   2.760   2.076  15.851  0.0739  0.0208 -0.0309
   23DOPE   H8R 2890   2.701   2.005  15.790 -1.7878  0.5754  1.0242
   23DOPE   H8S 2891   2.861   2.033  15.867 -1.7475 -5.1151 -0.4453
   23DOPE   C29 2892   2.766   2.204  15.778 -0.7382 -0.3852  0.2088
   23DOPE   H9R 2893   2.792   2.291  15.840 -2.4839 -0.2186  0.7499
   23DOPE  C210 2894   2.742   2.238  15.648 -0.6334 -0.4826  0.6651
   23DOPE  H10R 2895   2.770   2.340  15.617  0.1860 -0.3296  1.8483
   23DOPE  C211 2896   2.686   2.144  15.546 -0.0545  0.1627  0.2470
   23DOPE  H11R 2897   2.581   2.179  15.530  0.3582  1.2264 -0.2288
   23DOPE  H11S 2898   2.681   2.037  15.576 -3.5331  0.3025  0.5424
   23DOPE  C212 2899   2.757   2.146  15.406 -0.4964 -0.3934  0.0643
   23DOPE  H12R 2900   2.717   2.058  15.351 -3.0555  0.5304  0.3159
   23DOPE  H12S 2901   2.864   2.121  15.422  0.0599  2.4356  1.3842
   23DOPE  C213 2902   2.749   2.273  15.323 -0.2042  0.0014 -0.5708
   23DOPE  H13R 2903   2.812   2.352  15.368 -1.2910  0.3918  0.3028
   23DOPE  H13S 2904   2.644   2.308  15.326 -0.5657 -1.0390 -0.6985
   23DOPE  C214 2905   2.784   2.257  15.177  0.1132  0.9485 -0.6008
   23DOPE  H14R 2906   2.725   2.165  15.157  2.8559 -1.0472  0.0937
   23DOPE  H14S 2907   2.889   2.228  15.159  0.1948  0.9877 -0.1825
   23DOPE  C215 2908   2.743   2.377  15.089  0.0929 -0.1132  0.5952
   23DOPE  H15R 2909   2.807   2.465  15.109 -0.9567  0.8311 -0.0750
   23DOPE  H15S 2910   2.636   2.403  15.104 -0.5827 -0.3023 -2.9847
   23DOPE  C216 2911   2.747   2.346  14.942 -0.5491 -0.2107 -0.1600
   23DOPE  H16R 2912   2.693   2.251  14.922  0.0426 -0.6229  0.1655
   23DOPE  H16S 2913   2.849   2.322  14.906 -0.2663  0.9677 -0.1537
   23DOPE  C217 2914   2.680   2.449  14.856  0.0584  0.7985 -0.3457
   23DOPE  H17R 2915   2.755   2.532  14.854 -0.5613  1.3952  0.5747
   23DOPE  H17S 2916   2.583   2.487  14.894 -0.3749 -0.3518 -0.2789
   23DOPE  C218 2917   2.663   2.409  14.711 -0.0683 -0.7737 -0.9470
   23DOPE  H18R 2918   2.759   2.394  14.657  0.8273 -0.1352  0.4140
   23DOPE  H18S 2919   2.611   2.485  14.648  0.1270  0.5456  0.4242
   23DOPE  H18T 2920   2.610   2.313  14.695 -2.6440  0.7113 -2.0517
   23DOPE   C33 2921   3.005   1.715  16.211 -0.4721  0.2317 -0.2303
   23DOPE   H3X 2922   2.976   1.608  16.217 -2.4244  0.6405 -1.4039
   23DOPE   H3Y 2923   3.113   1.725  16.233 -0.3267  0.4189 -1.0102
   23DOPE   C34 2924   2.993   1.749  16.063  0.4583 -0.0509 -0.2394
   23DOPE   H4X 2925   2.885   1.752  16.040  0.3355  2.8164  0.3526
   23DOPE   H4Y 2926   3.030   1.851  16.038  0.9339 -0.1442  0.0591
   23DOPE   C35 2927   3.071   1.658  15.968 -0.3179 -0.2017  0.7246
   23DOPE   H5X 2928   3.039   1.553  15.983 -1.5727  0.2273  1.1592
   23DOPE   H5Y 2929   3.179   1.654  15.993  0.0238 -0.2994 -0.6575
   23DOPE   C36 2930   3.074   1.711  15.824 -0.3171 -0.0801  0.5333
   23DOPE   H6X 2931   3.143   1.648  15.764 -1.0406 -2.0117  1.6195
   23DOPE   H6Y 2932   3.110   1.815  15.813 -1.6714  0.6297  2.3478
   23DOPE   C37 2933   2.945   1.702  15.743 -0.6922 -0.6923  0.0102
   23DOPE   H7X 2934   2.911   1.597  15.754 -1.2678 -1.2327 -4.7512
   23DOPE   H7Y 2935   2.870   1.764  15.797 -2.1786 -1.7707 -0.7579
   23DOPE   C38 2936   2.988   1.740  15.602  0.4186 -0.2429  0.2696
   23DOPE   H8X 2937   3.069   1.676  15.562  1.6594  2.8277 -2.6886
   23DOPE   H8Y 2938   3.051   1.832  15.596  1.2378 -0.8703 -1.6988
   23DOPE   C39 2939   2.869   1.752  15.506 -0.5925  0.8855  0.1627
   23DOPE   H9X 2940   2.780   1.809  15.536 -0.4440  0.7346  0.9136
   23DOPE  C310 2941   2.870   1.706  15.382  0.2025  0.6206  0.3144
   23DOPE  H10X 2942   2.772   1.718  15.333 -0.5844 -0.7018  1.4858
   23DOPE  C311 2943   2.978   1.631  15.310  0.2941 -0.3830  0.4239
   23DOPE  H11X 2944   3.080   1.648  15.352 -0.3968  1.2277  1.5485
   23DOPE  H11Y 2945   2.963   1.522  15.323  0.0185 -0.5337 -1.0233
   23DOPE  C312 2946   2.985   1.668  15.162 -0.0931 -0.7617  0.4168
   23DOPE  H12X 2947   3.065   1.605  15.118 -1.3266 -0.4326 -2.5505
   23DOPE  H12Y 2948   3.012   1.776  15.153  1.2114 -0.9493  1.6621
   23DOPE  C313 2949   2.856   1.652  15.084 -0.1220 -0.3220 -0.2139
   23DOPE  H13X 2950   2.819   1.550  15.105  1.3018 -0.5849  1.1830
   23DOPE  H13Y 2951   2.771   1.713  15.120  1.2174  1.5339 -0.0528
   23DOPE  C314 2952   2.886   1.647  14.931 -0.3255 -0.0782  0.5437
   23DOPE  H14X 2953   2.995   1.636  14.914  0.1381 -0.3999  3.3595
   23DOPE  H14Y 2954   2.844   1.739  14.884 -1.2573 -0.5786  0.3797
   23DOPE  C315 2955   2.822   1.532  14.846 -0.1673 -0.3094 -0.5122
   23DOPE  H15X 2956   2.714   1.538  14.869 -0.1520 -2.8132  0.5785
   23DOPE  H15Y 2957   2.857   1.433  14.883  1.4902  0.0336 -1.0540
   23DOPE  C316 2958   2.834   1.532  14.694  0.3333 -0.3906 -0.5369
   23DOPE  H16X 2959   2.939   1.555  14.669  0.3066  1.5076  0.9126
   23DOPE  H16Y 2960   2.757   1.602  14.655 -0.3024 -0.8810 -0.1819
   23DOPE  C317 2961   2.803   1.400  14.616  0.0563 -0.2737 -0.1882
   23DOPE  H17X 2962   2.876   1.329  14.660  1.6619  1.0737 -0.5639
   23DOPE  H17Y 2963   2.700   1.370  14.641 -0.2853  1.7084  1.0086
   23DOPE  C318 2964   2.812   1.415  14.464 -1.8129  0.6720  0.1100
   23DOPE  H18X 2965   2.914   1.403  14.422 -2.9230 -0.9205 -2.3637
   23DOPE  H18Y 2966   2.742   1.340  14.421 -2.1685  0.4548  1.0465
   23DOPE  H18Z 2967   2.773   1.513  14.431 -0.4243  1.6245  1.1504
   24DOPE     N 2968   4.725   6.264  16.872 -0.0934 -0.7124  0.3788
   24DOPE   HN1 2969   4.622   6.275  16.876 -0.0568 -0.1232 -0.1487
   24DOPE   HN2 2970   4.758   6.295  16.778 -1.8672 -0.7736 -0.3008
   24DOPE   HN3 2971   4.725   6.162  16.849  1.1974 -0.3386 -1.5536
   24DOPE   C12 2972   4.803   6.320  16.989 -0.0535 -0.7862 -0.4265
   24DOPE  H12A 2973   4.910   6.295  16.973  0.7087  1.0532  1.4959
   24DOPE  H12B 2974   4.773   6.264  17.080 -1.5632  0.0309 -0.3897
   24DOPE   C11 2975   4.795   6.470  16.994  0.6749  0.0974 -0.6953
   24DOPE  H11A 2976   4.836   6.512  16.900 -2.6987  0.7042 -2.0458
   24DOPE  H11B 2977   4.850   6.509  17.083  0.8443  0.2056 -0.8462
   24DOPE     P 2978   4.592   6.603  16.903  0.1583  0.1061 -0.0083
   24DOPE   O13 2979   4.655   6.734  16.926  0.5057  0.1194 -0.4397
   24DOPE   O14 2980   4.444   6.599  16.909 -0.7762 -0.1840 -0.1510
   24DOPE   O11 2981   4.643   6.548  16.766 -0.2387 -0.1307 -0.3679
   24DOPE   O12 2982   4.657   6.507  17.009  0.4878 -0.0701  0.1846
   24DOPE    C1 2983   4.696   6.625  16.661 -0.0901  0.0371  0.2412
   24DOPE    HA 2984   4.794   6.662  16.696 -0.6887  1.4630  0.5027
   24DOPE    HB 2985   4.633   6.715  16.645  0.1535  0.6629  2.5129
   24DOPE    C2 2986   4.723   6.542  16.532  0.3667  0.2448  0.1533
   24DOPE    HS 2987   4.673   6.443  16.544  0.9529  0.1549  2.1964
   24DOPE   O21 2988   4.861   6.521  16.503 -0.5812  0.4299 -0.3916
   24DOPE   C21 2989   4.908   6.425  16.580  0.6423  0.3395 -0.1324
   24DOPE   O22 2990   4.856   6.352  16.656 -0.4221  0.2079  0.4999
   24DOPE   C22 2991   5.066   6.435  16.589  0.6546 -0.4082 -1.0945
   24DOPE   H2R 2992   5.088   6.409  16.695 -0.4421 -2.6538 -1.3586
   24DOPE   H2S 2993   5.102   6.537  16.564  0.3434  0.1056  0.4823
   24DOPE    C3 2994   4.646   6.618  16.418  0.5735  0.5207  1.1340
   24DOPE    HX 2995   4.659   6.726  16.440  0.2103  0.7546  0.2324
   24DOPE    HY 2996   4.536   6.600  16.419  0.8631 -1.6297 -0.0997
   24DOPE   O31 2997   4.693   6.594  16.286  0.1705 -0.4926  0.0259
   24DOPE   C31 2998   4.660   6.478  16.231 -0.1019 -0.0057 -0.6149
   24DOPE   O32 2999   4.582   6.399  16.286 -0.6263  0.0160  0.0840
   24DOPE   C32 3000   4.734   6.467  16.102 -0.2072 -0.0970  0.2090
   24DOPE   H2X 3001   4.708   6.562  16.052 -2.9081 -1.4039 -1.0588
   24DOPE   H2Y 3002   4.842   6.444  16.118 -0.7183 -2.8261  0.3649
   24DOPE   C23 3003   5.147   6.349  16.484  1.2422 -0.4941  0.0050
   24DOPE   H3R 3004   5.101   6.248  16.489  0.2861 -0.0277  1.0381
   24DOPE   H3S 3005   5.247   6.338  16.532  0.5774 -0.7641  1.3784
   24DOPE   C24 3006   5.154   6.393  16.342  0.0932 -0.9762  0.0885
   24DOPE   H4R 3007   5.198   6.493  16.325 -0.8659 -0.4669  0.5203
   24DOPE   H4S 3008   5.046   6.401  16.316 -0.6479 -0.2303  3.0359
   24DOPE   C25 3009   5.223   6.290  16.255  0.1927  0.7341 -0.4831
   24DOPE   H5R 3010   5.157   6.203  16.236  0.9270 -0.0200  0.3210
   24DOPE   H5S 3011   5.313   6.257  16.311  1.5724  2.1667 -1.7638
   24DOPE   C26 3012   5.272   6.347  16.121  0.3001  0.2323  0.2342
   24DOPE   H6R 3013   5.322   6.443  16.146 -0.2910  0.2594  1.3775
   24DOPE   H6S 3014   5.182   6.368  16.059 -0.1357 -2.0839 -0.0128
   24DOPE   C27 3015   5.356   6.241  16.053 -0.0049  0.0287  0.6135
   24DOPE   H7R 3016   5.287   6.155  16.039 -0.6590  0.7640 -0.9671
   24DOPE   H7S 3017   5.427   6.207  16.131 -0.8408  1.5940  2.1155
   24DOPE   C28 3018   5.441   6.281  15.928 -0.1848  0.1025 -0.2833
   24DOPE   H8R 3019   5.525   6.335  15.977 -0.7763  1.0589 -0.3030
   24DOPE   H8S 3020   5.393   6.364  15.872  0.4241 -0.3395 -1.4833
   24DOPE   C29 3021   5.500   6.166  15.849 -0.3507 -0.0072 -0.5167
   24DOPE   H9R 3022   5.568   6.101  15.905 -2.7282 -1.5248  0.7872
   24DOPE  C210 3023   5.488   6.157  15.714 -0.4313  0.1842 -0.3717
   24DOPE  H10R 3024   5.533   6.068  15.667  0.8434  0.2111  0.7590
   24DOPE  C211 3025   5.413   6.244  15.614 -0.0005  0.8430 -0.7022
   24DOPE  H11R 3026   5.468   6.338  15.592  3.0017 -0.8440 -0.8804
   24DOPE  H11S 3027   5.307   6.270  15.638  0.2616  1.3605 -0.0728
   24DOPE  C212 3028   5.401   6.174  15.482 -0.1327  0.9268 -0.4101
   24DOPE  H12R 3029   5.335   6.085  15.479  1.9030 -0.6272 -1.3044
   24DOPE  H12S 3030   5.503   6.143  15.451 -0.2077 -1.7092  1.6739
   24DOPE  C213 3031   5.338   6.271  15.379  0.1835 -0.1067  0.2684
   24DOPE  H13R 3032   5.391   6.368  15.380  0.9501 -0.5201  0.1435
   24DOPE  H13S 3033   5.233   6.288  15.412  0.3079  0.8747  0.1665
   24DOPE  C214 3034   5.347   6.198  15.244  0.0259 -0.1730  0.3811
   24DOPE  H14R 3035   5.283   6.107  15.245  0.3702 -0.4295 -0.2843
   24DOPE  H14S 3036   5.452   6.170  15.222  0.4301  1.0258  0.6915
   24DOPE  C215 3037   5.287   6.276  15.123  0.1723 -0.5627 -0.1043
   24DOPE  H15R 3038   5.330   6.379  15.116  0.0873 -0.6298 -1.9826
   24DOPE  H15S 3039   5.178   6.285  15.141 -0.4808 -2.4485 -2.7198
   24DOPE  C216 3040   5.317   6.219  14.978  0.1329  0.1722 -0.3650
   24DOPE  H16R 3041   5.409   6.158  14.974 -0.7961 -1.2185 -2.1817
   24DOPE  H16S 3042   5.341   6.304  14.911  1.5141  2.2265  2.5285
   24DOPE  C217 3043   5.201   6.122  14.928  0.3835  0.4921  0.3070
   24DOPE  H17R 3044   5.102   6.171  14.938 -0.0405 -0.3309  0.2669
   24DOPE  H17S 3045   5.197   6.042  15.004  0.7352  0.4698  0.3028
   24DOPE  C218 3046   5.226   6.059  14.788 -0.0295  0.3507 -0.2411
   24DOPE  H18R 3047   5.328   6.014  14.789 -0.8709 -1.6148 -0.0803
   24DOPE  H18S 3048   5.233   6.139  14.711  2.4520  0.0531 -0.4265
   24DOPE  H18T 3049   5.146   5.984  14.768 -3.2420  3.2757  0.6743
   24DOPE   C33 3050   4.687   6.339  16.019 -0.2780 -0.0183 -0.0092
   24DOPE   H3X 3051   4.576   6.333  16.030 -0.2385 -0.4034  0.1999
   24DOPE   H3Y 3052   4.743   6.254  16.063  1.4565  0.7950 -0.5623
   24DOPE   C34 3053   4.735   6.353  15.880 -0.1950  0.8057  0.3118
   24DOPE   H4X 3054   4.707   6.453  15.840 -1.9144  0.5408  0.7702
   24DOPE   H4Y 3055   4.845   6.339  15.878 -0.1955  0.5602  1.5642
   24DOPE   C35 3056   4.675   6.246  15.786 -0.5097  0.5534  0.1053
   24DOPE   H5X 3057   4.668   6.143  15.825 -0.1879 -1.4578 -4.4319
   24DOPE   H5Y 3058   4.728   6.257  15.688 -0.7923  1.0755  0.0085
   24DOPE   C36 3059   4.531   6.281  15.740 -0.3035  0.2553  0.4815
   24DOPE   H6X 3060   4.530   6.380  15.688  0.1937 -0.3062 -0.6099
   24DOPE   H6Y 3061   4.466   6.286  15.830 -0.8880  0.5697  0.0501
   24DOPE   C37 3062   4.467   6.178  15.646 -0.1089 -0.2612  0.0463
   24DOPE   H7X 3063   4.503   6.075  15.663 -0.6377 -0.5799 -0.7354
   24DOPE   H7Y 3064   4.356   6.182  15.652 -0.1459 -0.4638 -0.4644
   24DOPE   C38 3065   4.503   6.206  15.499 -0.3943  0.3344 -0.4831
   24DOPE   H8X 3066   4.502   6.112  15.440 -1.8967 -0.5979  0.9290
   24DOPE   H8Y 3067   4.605   6.249  15.496 -1.1534  2.2895 -0.1385
   24DOPE   C39 3068   4.393   6.290  15.431  0.3611  0.1153 -1.0218
   24DOPE   H9X 3069   4.302   6.319  15.486 -0.5063 -2.6930 -0.7924
   24DOPE  C310 3070   4.417   6.329  15.308  0.0576 -0.5981  0.1450
   24DOPE  H10X 3071   4.340   6.394  15.263 -0.7453 -1.8495 -0.3511
   24DOPE  C311 3072   4.522   6.278  15.214 -0.4523  0.1509 -0.2643
   24DOPE  H11X 3073   4.540   6.171  15.235 -3.1257  0.1300  2.7018
   24DOPE  H11Y 3074   4.477   6.286  15.113 -0.8092  0.5943 -0.0740
   24DOPE  C312 3075   4.647   6.369  15.211 -0.3406 -0.2147  0.5879
   24DOPE  H12X 3076   4.699   6.367  15.309  1.1590  0.9414 -0.1384
   24DOPE  H12Y 3077   4.623   6.472  15.174  0.5652  0.0709  0.7609
   24DOPE  C313 3078   4.739   6.313  15.111  0.4714  0.9697 -0.0874
   24DOPE  H13X 3079   4.834   6.276  15.154  0.1510 -0.5255 -0.5982
   24DOPE  H13Y 3080   4.695   6.226  15.058  1.8517  0.4129 -0.3390
   24DOPE  C314 3081   4.773   6.416  15.004  0.2686 -0.3047  0.3492
   24DOPE  H14X 3082   4.831   6.494  15.057  1.1215 -0.0934 -0.8793
   24DOPE  H14Y 3083   4.684   6.462  14.956  0.7553 -0.3871 -0.6366
   24DOPE  C315 3084   4.856   6.364  14.895  0.3394 -0.2341  0.1983
   24DOPE  H15X 3085   4.793   6.303  14.826  0.7037 -1.5336  0.9795
   24DOPE  H15Y 3086   4.933   6.295  14.936  1.0950 -0.0409 -0.8648
   24DOPE  C316 3087   4.933   6.467  14.814  0.0368  0.6450  0.0382
   24DOPE  H16X 3088   4.985   6.539  14.881 -0.7399  0.4793  0.8460
   24DOPE  H16Y 3089   4.864   6.532  14.756  1.5292  0.9845 -1.4298
   24DOPE  C317 3090   5.035   6.399  14.712 -0.1541 -0.8582 -0.4207
   24DOPE  H17X 3091   5.097   6.480  14.667  0.0639 -0.6282  0.2732
   24DOPE  H17Y 3092   5.108   6.333  14.765  3.5500  1.4836 -2.1760
   24DOPE  C318 3093   4.969   6.314  14.608  0.3151  0.1768 -1.8185
   24DOPE  H18X 3094   5.034   6.275  14.526  1.8176 -0.1781 -0.5040
   24DOPE  H18Y 3095   4.930   6.223  14.658 -0.2500  0.9801 -0.7672
   24DOPE  H18Z 3096   4.874   6.364  14.578 -0.8846 -1.3017 -0.6574
   25DOPE     N 3097   5.770   6.073  16.732 -0.0208  0.4860 -0.1097
   25DOPE   HN1 3098   5.717   5.991  16.696  0.6672  1.1936 -3.0591
   25DOPE   HN2 3099   5.850   6.042  16.791 -0.8756  0.2420  0.9553
   25DOPE   HN3 3100   5.709   6.140  16.782 -2.1258 -0.6505 -1.0229
   25DOPE   C12 3101   5.823   6.151  16.611 -0.0283  0.2162 -0.0837
   25DOPE  H12A 3102   5.740   6.157  16.537 -0.2816  0.2405  0.1998
   25DOPE  H12B 3103   5.900   6.092  16.557  1.3535  0.7330  1.2574
   25DOPE   C11 3104   5.871   6.288  16.662 -0.8944  0.7052  0.0487
   25DOPE  H11A 3105   5.783   6.335  16.710 -1.2144  0.5470 -0.3758
   25DOPE  H11B 3106   5.895   6.362  16.583  0.6550 -1.1157 -1.2890
   25DOPE     P 3107   6.126   6.248  16.687  0.1344  0.1403  0.0868
   25DOPE   O13 3108   6.124   6.139  16.589 -0.3942 -0.3506 -0.3823
   25DOPE   O14 3109   6.232   6.244  16.787  0.3891  0.3809 -0.2525
   25DOPE   O11 3110   6.150   6.391  16.612  0.7994  0.1499  0.6539
   25DOPE   O12 3111   5.982   6.273  16.753 -0.6604 -0.1227 -0.3625
   25DOPE    C1 3112   6.271   6.405  16.548 -0.2352  0.2365 -0.6759
   25DOPE    HA 3113   6.274   6.338  16.459 -1.0480 -0.3449 -0.2886
   25DOPE    HB 3114   6.355   6.374  16.613 -1.6381  0.7589  1.4676
   25DOPE    C2 3115   6.295   6.548  16.500 -0.3108  0.3458  0.3931
   25DOPE    HS 3116   6.290   6.601  16.597 -0.5081 -1.3179  1.3112
   25DOPE   O21 3117   6.192   6.595  16.407  0.0084  0.1053 -0.9794
   25DOPE   C21 3118   6.175   6.722  16.411  1.0977 -0.3253  0.0378
   25DOPE   O22 3119   6.218   6.796  16.500  0.1789  0.1364  0.2879
   25DOPE   C22 3120   6.090   6.765  16.287  0.2944  0.3173 -0.4603
   25DOPE   H2R 3121   6.011   6.693  16.259  0.0333  0.8979 -1.2549
   25DOPE   H2S 3122   6.163   6.786  16.206  0.1205  1.0889 -0.4253
   25DOPE    C3 3123   6.435   6.561  16.429 -0.2863  0.9678 -0.0610
   25DOPE    HX 3124   6.498   6.492  16.488  2.1547 -1.1660 -4.6619
   25DOPE    HY 3125   6.469   6.667  16.433 -0.9854  1.1775  0.7524
   25DOPE   O31 3126   6.435   6.499  16.293  0.2983  0.0920 -0.0448
   25DOPE   C31 3127   6.535   6.541  16.212 -0.4520  0.3010  0.0734
   25DOPE   O32 3128   6.614   6.633  16.241  0.1968  0.1108 -0.5975
   25DOPE   C32 3129   6.538   6.464  16.096  0.5143  0.1904  0.1215
   25DOPE   H2X 3130   6.608   6.379  16.110  1.2985  0.8500  0.2435
   25DOPE   H2Y 3131   6.438   6.422  16.071  0.8554 -0.5572 -0.0293
   25DOPE   C23 3132   6.027   6.906  16.307  0.1911 -0.3497  0.0904
   25DOPE   H3R 3133   6.094   6.983  16.350  1.1177  0.7588 -3.0403
   25DOPE   H3S 3134   5.935   6.910  16.369 -0.1622  1.2499 -0.4843
   25DOPE   C24 3135   5.987   6.967  16.174 -0.5722  0.1125  0.2257
   25DOPE   H4R 3136   6.071   6.990  16.105 -0.2579  1.3742  1.0009
   25DOPE   H4S 3137   5.936   7.063  16.197  2.5288  1.5702  1.6275
   25DOPE   C25 3138   5.888   6.887  16.085  0.2054  0.6514 -0.4144
   25DOPE   H5R 3139   5.831   6.805  16.134 -0.9544 -0.8552 -3.9590
   25DOPE   H5S 3140   5.943   6.834  16.004  0.5872 -0.8852  0.8026
   25DOPE   C26 3141   5.778   6.975  16.021 -0.0893 -0.0427 -0.2933
   25DOPE   H6R 3142   5.824   7.064  15.974 -2.1926  0.4878 -1.4729
   25DOPE   H6S 3143   5.710   7.006  16.103 -1.8291 -1.5085 -1.1136
   25DOPE   C27 3144   5.681   6.903  15.924 -0.7984  0.0815 -0.1345
   25DOPE   H7R 3145   5.585   6.960  15.921 -0.3650  1.0835  2.3041
   25DOPE   H7S 3146   5.662   6.799  15.959 -2.6721  0.6681  0.7418
   25DOPE   C28 3147   5.728   6.897  15.776 -0.1192  0.0671 -0.3206
   25DOPE   H8R 3148   5.662   6.837  15.710  1.0520 -1.7780  0.0908
   25DOPE   H8S 3149   5.825   6.842  15.777  0.1153  0.4258  1.6025
   25DOPE   C29 3150   5.740   7.034  15.714  0.3750 -1.1215 -0.8658
   25DOPE   H9R 3151   5.740   7.122  15.779 -2.6698  0.3952 -2.6772
   25DOPE  C210 3152   5.769   7.055  15.583  0.3083  1.0324  0.2096
   25DOPE  H10R 3153   5.775   7.158  15.545 -1.4860  2.3681  3.1863
   25DOPE  C211 3154   5.783   6.946  15.484  0.6146 -0.6155 -0.1794
   25DOPE  H11R 3155   5.777   6.842  15.523  1.5654 -0.2348  1.0325
   25DOPE  H11S 3156   5.882   6.964  15.436  1.8043 -1.8429  1.6784
   25DOPE  C212 3157   5.673   6.963  15.378 -0.3486  0.1020 -0.3639
   25DOPE  H12R 3158   5.575   6.984  15.428 -0.5944  0.1805 -0.8725
   25DOPE  H12S 3159   5.664   6.877  15.308 -4.5130 -0.5312  0.6584
   25DOPE  C213 3160   5.707   7.085  15.291 -0.4706  0.4071 -0.2493
   25DOPE  H13R 3161   5.811   7.079  15.251  0.1882  2.5452  0.9932
   25DOPE  H13S 3162   5.719   7.176  15.354  0.0995 -0.1337  0.4406
   25DOPE  C214 3163   5.601   7.107  15.187  0.6466  0.1648 -0.1661
   25DOPE  H14R 3164   5.522   7.170  15.234  0.1662 -1.2124  0.9191
   25DOPE  H14S 3165   5.560   7.006  15.166 -0.2951  0.3499  0.6852
   25DOPE  C215 3166   5.648   7.178  15.058 -0.2824  0.7304  0.7509
   25DOPE  H15R 3167   5.733   7.123  15.012 -1.9001 -0.2004 -1.2639
   25DOPE  H15S 3168   5.677   7.285  15.067 -2.8343  1.4498  1.2698
   25DOPE  C216 3169   5.539   7.171  14.955  0.1852  0.1326  0.7889
   25DOPE  H16R 3170   5.447   7.225  14.988 -0.5331 -1.1494  0.9542
   25DOPE  H16S 3171   5.506   7.065  14.943  0.6140  0.1062 -0.2332
   25DOPE  C217 3172   5.581   7.229  14.822 -0.4295  0.1957 -0.5036
   25DOPE  H17R 3173   5.626   7.330  14.837 -0.0696 -0.2497  1.7707
   25DOPE  H17S 3174   5.488   7.240  14.761 -1.4984  0.4158  1.1176
   25DOPE  C218 3175   5.687   7.155  14.731  0.9310  0.2305 -0.6046
   25DOPE  H18R 3176   5.636   7.059  14.705  0.0332  0.9578 -1.6384
   25DOPE  H18S 3177   5.781   7.137  14.787  0.8033  3.4460  0.8761
   25DOPE  H18T 3178   5.715   7.207  14.637 -1.0367 -0.2611 -1.5274
   25DOPE   C33 3179   6.586   6.542  15.969  0.0371  0.5864  0.2327
   25DOPE   H3X 3180   6.687   6.586  15.986  0.1868 -0.4036  2.1457
   25DOPE   H3Y 3181   6.526   6.630  15.937 -0.1398 -0.5278 -2.8389
   25DOPE   C34 3182   6.599   6.445  15.853 -0.3705  0.2013  0.1422
   25DOPE   H4X 3183   6.658   6.359  15.891  2.4049  1.1033 -1.8569
   25DOPE   H4Y 3184   6.496   6.415  15.824  0.0431 -0.4030 -0.7303
   25DOPE   C35 3185   6.677   6.511  15.734  0.4296 -0.3860  0.4340
   25DOPE   H5X 3186   6.784   6.489  15.754  0.6426  2.1788  2.6123
   25DOPE   H5Y 3187   6.645   6.615  15.714  1.0236 -0.7974 -3.3595
   25DOPE   C36 3188   6.648   6.445  15.599 -0.3809 -0.3761  0.2298
   25DOPE   H6X 3189   6.539   6.448  15.580 -0.2168  0.3201 -0.7346
   25DOPE   H6Y 3190   6.673   6.337  15.601 -0.5836 -0.4117  1.7706
   25DOPE   C37 3191   6.709   6.518  15.483 -0.1211 -0.4837 -0.4538
   25DOPE   H7X 3192   6.654   6.512  15.387 -2.1291  1.7937  0.4696
   25DOPE   H7Y 3193   6.695   6.626  15.503 -2.1157 -1.0088  1.2483
   25DOPE   C38 3194   6.851   6.478  15.458 -0.2403 -0.1370  0.2869
   25DOPE   H8X 3195   6.860   6.371  15.430  2.2113 -0.1858  0.9759
   25DOPE   H8Y 3196   6.907   6.494  15.553  0.0131  2.0871 -0.1865
   25DOPE   C39 3197   6.912   6.568  15.352 -0.7773  0.4913 -0.4649
   25DOPE   H9X 3198   6.925   6.670  15.392 -3.8175  0.2522  1.4836
   25DOPE  C310 3199   6.955   6.538  15.227  0.0206  0.0787 -0.6099
   25DOPE  H10X 3200   7.000   6.611  15.158 -2.3125 -0.4188 -2.7899
   25DOPE  C311 3201   6.945   6.399  15.163 -0.0842  0.1374  0.7099
   25DOPE  H11X 3202   7.023   6.329  15.201 -0.6995 -0.4217  0.9488
   25DOPE  H11Y 3203   6.848   6.357  15.197  0.3112 -0.2968  1.3247
   25DOPE  C312 3204   6.946   6.403  15.007 -0.4778  0.4972 -0.2488
   25DOPE  H12X 3205   7.041   6.443  14.966  0.7403 -0.8676  1.1088
   25DOPE  H12Y 3206   6.854   6.454  14.971  0.1737  1.1360 -1.0396
   25DOPE  C313 3207   6.947   6.249  14.953 -0.4187 -0.8746  0.0003
   25DOPE  H13X 3208   7.040   6.200  14.989 -1.2817 -2.2919  0.3877
   25DOPE  H13Y 3209   6.862   6.191  14.995 -1.1775  0.3278  0.1739
   25DOPE  C314 3210   6.926   6.256  14.797  0.9144  0.6037 -1.3933
   25DOPE  H14X 3211   6.824   6.300  14.786  0.5886  0.5601  0.8508
   25DOPE  H14Y 3212   6.920   6.152  14.760  1.3472 -0.3949  1.1305
   25DOPE  C315 3213   7.025   6.339  14.723  0.2354 -0.2853 -1.0214
   25DOPE  H15X 3214   7.089   6.293  14.645  1.6106 -0.1047 -0.0491
   25DOPE  H15Y 3215   7.104   6.372  14.794 -1.4381  0.4263  0.5956
   25DOPE  C316 3216   6.963   6.468  14.670  0.6068 -0.2092  0.1721
   25DOPE  H16X 3217   6.892   6.517  14.740 -1.6729 -1.2458 -1.3121
   25DOPE  H16Y 3218   6.890   6.450  14.589  1.6122  0.1090 -0.8274
   25DOPE  C317 3219   7.078   6.556  14.603  0.4522  0.1365  0.3502
   25DOPE  H17X 3220   7.168   6.576  14.665  1.1211  2.4850 -1.2607
   25DOPE  H17Y 3221   7.113   6.494  14.518  0.1756  0.9714 -0.3773
   25DOPE  C318 3222   7.026   6.687  14.557  0.3072  0.4972  0.0076
   25DOPE  H18X 3223   7.099   6.734  14.487  0.9361 -1.0007 -0.3707
   25DOPE  H18Y 3224   6.935   6.672  14.495 -0.8605  1.2886  1.4539
   25DOPE  H18Z 3225   7.003   6.743  14.650  0.5828  0.0917  0.3190
   26DOPE     N 3226   6.510   0.396  16.735  0.0117 -0.7598 -0.2981
   26DOPE   HN1 3227   6.564   0.333  16.797 -0.5202 -0.3116  0.6517
   26DOPE   HN2 3228   6.419   0.351  16.710 -0.4828 -2.2573  3.5542
   26DOPE   HN3 3229   6.569   0.404  16.650  1.0990 -1.0369  0.4166
   26DOPE   C12 3230   6.497   0.540  16.790  0.3401  0.1108 -0.2566
   26DOPE  H12A 3231   6.492   0.530  16.901 -0.1020 -0.0963 -0.2915
   26DOPE  H12B 3232   6.399   0.575  16.750  0.8773  0.7866 -1.0080
   26DOPE   C11 3233   6.606   0.636  16.737  0.3806 -0.0426 -0.1674
   26DOPE  H11A 3234   6.594   0.722  16.806  0.1009 -0.1622 -0.0662
   26DOPE  H11B 3235   6.572   0.663  16.635  0.8619 -0.0911 -0.3427
   26DOPE     P 3236   6.865   0.648  16.786 -0.3213  0.0037 -0.2240
   26DOPE   O13 3237   6.977   0.551  16.808 -0.1904 -0.0062  0.1021
   26DOPE   O14 3238   6.827   0.734  16.901 -0.0321 -0.3393 -0.3701
   26DOPE   O11 3239   6.889   0.752  16.667  0.4559 -0.1341  0.4475
   26DOPE   O12 3240   6.733   0.565  16.735 -0.1622 -0.4498  0.3456
   26DOPE    C1 3241   6.861   0.731  16.529 -0.3871 -0.2291 -0.0960
   26DOPE    HA 3242   6.904   0.808  16.461  1.7222 -0.1911  1.2148
   26DOPE    HB 3243   6.750   0.729  16.518 -0.5733 -1.4100  1.6399
   26DOPE    C2 3244   6.917   0.594  16.481  0.2326  0.2680 -0.6019
   26DOPE    HS 3245   6.877   0.515  16.548  0.3065 -1.4980 -2.5236
   26DOPE   O21 3246   7.056   0.608  16.483  0.3256  0.1822 -0.2263
   26DOPE   C21 3247   7.123   0.493  16.504 -0.2801 -0.2116 -0.5041
   26DOPE   O22 3248   7.073   0.381  16.511 -0.3118  0.1635 -0.8390
   26DOPE   C22 3249   7.265   0.536  16.523 -0.0434  0.5315 -0.3444
   26DOPE   H2R 3250   7.281   0.547  16.633  1.6023 -1.0896 -0.3912
   26DOPE   H2S 3251   7.283   0.634  16.473  0.2760  0.9329  0.5358
   26DOPE    C3 3252   6.861   0.550  16.341 -0.3756  0.0246  0.4910
   26DOPE    HX 3253   6.750   0.547  16.349 -0.4891 -1.0827 -0.9226
   26DOPE    HY 3254   6.893   0.448  16.310 -0.3268  0.4905 -1.1011
   26DOPE   O31 3255   6.906   0.640  16.234  0.0437  0.4014 -0.7161
   26DOPE   C31 3256   7.015   0.601  16.166 -0.4100 -1.0276 -0.2330
   26DOPE   O32 3257   7.070   0.496  16.175 -0.1637  0.6388  0.1290
   26DOPE   C32 3258   7.055   0.717  16.067 -0.2075  0.1710  0.4217
   26DOPE   H2X 3259   6.973   0.792  16.056 -1.0753 -0.7380  0.5558
   26DOPE   H2Y 3260   7.128   0.774  16.128 -0.8893  1.0457  0.4535
   26DOPE   C23 3261   7.350   0.415  16.473  0.6520  0.1452  0.2393
   26DOPE   H3R 3262   7.308   0.322  16.518 -2.3752  1.1340 -0.3249
   26DOPE   H3S 3263   7.450   0.429  16.520  1.1060  0.2185 -0.7338
   26DOPE   C24 3264   7.362   0.391  16.317 -0.6266 -0.2735 -0.0368
   26DOPE   H4R 3265   7.262   0.369  16.274 -0.0251 -0.7321 -1.2448
   26DOPE   H4S 3266   7.426   0.302  16.301 -0.0229  0.4421 -1.9545
   26DOPE   C25 3267   7.429   0.507  16.243 -0.1565 -0.1209 -0.9918
   26DOPE   H5R 3268   7.522   0.536  16.295 -1.0137  1.1240 -0.1048
   26DOPE   H5S 3269   7.362   0.596  16.239  0.0833  0.0287 -1.9108
   26DOPE   C26 3270   7.455   0.460  16.100 -0.3539 -0.4748  0.5391
   26DOPE   H6R 3271   7.354   0.430  16.067 -0.5132 -1.8118  2.0975
   26DOPE   H6S 3272   7.527   0.375  16.108  2.4670  1.6933 -0.0339
   26DOPE   C27 3273   7.509   0.580  16.012  0.4771 -0.3572 -0.6431
   26DOPE   H7R 3274   7.594   0.618  16.073  0.8007  1.7270 -2.2660
   26DOPE   H7S 3275   7.436   0.663  15.998  2.3518  1.3740 -0.6062
   26DOPE   C28 3276   7.565   0.544  15.871  0.3302 -0.0817 -0.0248
   26DOPE   H8R 3277   7.649   0.474  15.890  0.3457  0.2144  1.0193
   26DOPE   H8S 3278   7.606   0.637  15.825 -1.6512  0.3018 -1.1645
   26DOPE   C29 3279   7.449   0.495  15.785  0.0372 -0.2191 -0.1962
   26DOPE   H9R 3280   7.348   0.503  15.828  0.3558  2.4313  0.2252
   26DOPE  C210 3281   7.462   0.451  15.659  0.6841  0.2987  0.4929
   26DOPE  H10R 3282   7.378   0.411  15.601  0.7082 -0.3229  0.8841
   26DOPE  C211 3283   7.596   0.453  15.590  0.6163  0.7865  0.7798
   26DOPE  H11R 3284   7.628   0.352  15.556 -5.2706 -1.0572 -0.4209
   26DOPE  H11S 3285   7.677   0.484  15.659  0.0579 -1.3715  2.5355
   26DOPE  C212 3286   7.584   0.540  15.463  0.0278 -0.2224 -0.5988
   26DOPE  H12R 3287   7.526   0.632  15.485 -0.3844 -0.3869 -0.9926
   26DOPE  H12S 3288   7.525   0.486  15.386  0.4034 -2.5733  0.6734
   26DOPE  C213 3289   7.724   0.573  15.416 -0.5021 -0.5898 -0.4860
   26DOPE  H13R 3290   7.783   0.481  15.397 -1.7894 -2.1624  2.4449
   26DOPE  H13S 3291   7.785   0.614  15.500  2.1375 -1.1134 -2.0489
   26DOPE  C214 3292   7.732   0.678  15.302  0.3420  0.0099  0.2925
   26DOPE  H14R 3293   7.831   0.729  15.296  0.1311  0.3175 -0.9222
   26DOPE  H14S 3294   7.653   0.754  15.316  1.4088  1.4651 -1.2289
   26DOPE  C215 3295   7.720   0.613  15.160 -0.2664 -0.6603 -0.5956
   26DOPE  H15R 3296   7.627   0.552  15.158  0.6224 -2.0372 -0.4524
   26DOPE  H15S 3297   7.811   0.552  15.142 -0.5208 -0.9989 -0.7464
   26DOPE  C216 3298   7.712   0.720  15.049 -0.0852 -1.2232  0.3028
   26DOPE  H16R 3299   7.809   0.775  15.046 -0.9857  0.5450 -3.8968
   26DOPE  H16S 3300   7.640   0.799  15.081  1.6370 -0.4494  2.5312
   26DOPE  C217 3301   7.660   0.667  14.914 -0.6852  0.4679  0.3410
   26DOPE  H17R 3302   7.558   0.624  14.924  1.4080 -5.4120  0.6165
   26DOPE  H17S 3303   7.728   0.581  14.895  2.4107  2.6439  0.8626
   26DOPE  C218 3304   7.661   0.767  14.797 -0.8234  0.6890 -0.3380
   26DOPE  H18R 3305   7.763   0.810  14.786  1.0497 -2.0063  3.7573
   26DOPE  H18S 3306   7.579   0.841  14.804 -0.7736  0.6737  0.5429
   26DOPE  H18T 3307   7.650   0.719  14.697 -1.6242  1.5324 -0.6681
   26DOPE   C33 3308   7.116   0.664  15.938  0.6823 -0.0564  0.1056
   26DOPE   H3X 3309   7.158   0.562  15.954  0.3592 -0.2698 -0.4203
   26DOPE   H3Y 3310   7.191   0.739  15.903 -0.9389  0.4855 -2.4760
   26DOPE   C34 3311   7.016   0.650  15.826  0.3425 -0.2989  0.4387
   26DOPE   H4X 3312   6.926   0.587  15.844  0.4821 -1.4433 -2.3265
   26DOPE   H4Y 3313   6.977   0.745  15.782  0.4127 -0.1122  0.7796
   26DOPE   C35 3314   7.071   0.578  15.702 -0.1933  0.1165  0.8430
   26DOPE   H5X 3315   7.081   0.469  15.725  1.5517 -0.0652 -0.4855
   26DOPE   H5Y 3316   7.170   0.622  15.676 -0.4480  0.5276  0.5796
   26DOPE   C36 3317   6.979   0.590  15.586 -0.1891 -0.0298 -0.2408
   26DOPE   H6X 3318   6.974   0.699  15.565  1.7942  0.0372 -0.5686
   26DOPE   H6Y 3319   6.880   0.554  15.623 -0.3564 -1.0583 -1.6035
   26DOPE   C37 3320   7.037   0.519  15.467 -0.2448 -0.2940  0.3097
   26DOPE   H7X 3321   7.074   0.419  15.499 -1.7206 -0.5440  1.3430
   26DOPE   H7Y 3322   6.956   0.511  15.392  1.7209 -3.0557 -1.7143
   26DOPE   C38 3323   7.162   0.588  15.407  0.2731 -0.0876 -0.2063
   26DOPE   H8X 3324   7.245   0.577  15.479  1.0105  0.5371 -0.9492
   26DOPE   H8Y 3325   7.143   0.697  15.401  0.5234  0.0399  1.0751
   26DOPE   C39 3326   7.188   0.522  15.277 -0.1268 -0.5858  0.2881
   26DOPE   H9X 3327   7.177   0.413  15.278 -2.5065 -0.4399 -1.2003
   26DOPE  C310 3328   7.233   0.591  15.174 -0.1422  0.0436  0.3840
   26DOPE  H10X 3329   7.246   0.552  15.073 -1.4366  1.4613 -0.3632
   26DOPE  C311 3330   7.251   0.740  15.176  0.5313 -0.0394 -0.0940
   26DOPE  H11X 3331   7.155   0.791  15.197  0.6205  0.4714 -0.8319
   26DOPE  H11Y 3332   7.324   0.779  15.250 -0.6202  0.3347  0.8671
   26DOPE  C312 3333   7.293   0.802  15.042 -0.3969  0.3395 -0.5126
   26DOPE  H12X 3334   7.393   0.766  15.010  0.0303 -0.3983  1.4867
   26DOPE  H12Y 3335   7.298   0.910  15.068  1.2375  0.4175 -1.0630
   26DOPE  C313 3336   7.195   0.770  14.932 -0.2789  0.2891 -0.1175
   26DOPE  H13X 3337   7.192   0.662  14.908  1.3377  0.6870 -2.3485
   26DOPE  H13Y 3338   7.094   0.810  14.959 -1.2381 -3.0603  1.8430
   26DOPE  C314 3339   7.243   0.828  14.803  0.2456  1.2410  0.8146
   26DOPE  H14X 3340   7.336   0.773  14.777 -0.4931 -0.2656  1.2533
   26DOPE  H14Y 3341   7.279   0.932  14.814  1.0826  1.0838 -0.3220
   26DOPE  C315 3342   7.149   0.806  14.682  0.2354  0.2710 -0.5301
   26DOPE  H15X 3343   7.061   0.871  14.699  0.8034  1.0154 -0.4062
   26DOPE  H15Y 3344   7.117   0.699  14.676  0.1470  0.3518 -1.7610
   26DOPE  C316 3345   7.222   0.844  14.549  0.2032  0.2074  0.3628
   26DOPE  H16X 3346   7.296   0.768  14.517 -0.0675 -0.7845  1.9769
   26DOPE  H16Y 3347   7.279   0.938  14.567 -2.0481  1.7953 -0.3158
   26DOPE  C317 3348   7.114   0.850  14.433 -0.5999  0.6957 -0.3465
   26DOPE  H17X 3349   7.050   0.761  14.449  1.9463 -1.3376 -0.7712
   26DOPE  H17Y 3350   7.045   0.937  14.432  0.4501  1.6819  2.5283
   26DOPE  C318 3351   7.189   0.843  14.300  0.6547  0.4686 -0.4144
   26DOPE  H18X 3352   7.203   0.947  14.264 -1.0417 -0.0000 -2.6909
   26DOPE  H18Y 3353   7.294   0.808  14.299  0.3436 -0.5836  0.9828
   26DOPE  H18Z 3354   7.132   0.793  14.219 -1.0370  2.3601 -0.4904
   27DOPE     N 3355   3.927   5.652  16.412  0.3508  0.6320 -0.0431
   27DOPE   HN1 3356   3.872   5.674  16.327 -0.9398 -1.8579  0.0611
   27DOPE   HN2 3357   3.981   5.564  16.408 -0.2265  0.2845 -0.3230
   27DOPE   HN3 3358   3.858   5.629  16.487  1.4901  0.6067  1.0402
   27DOPE   C12 3359   4.014   5.770  16.450  0.1174  0.4306 -0.4125
   27DOPE  H12A 3360   4.087   5.786  16.367  1.0853  0.3474  0.4046
   27DOPE  H12B 3361   4.057   5.745  16.549 -1.8129  0.8318  0.5539
   27DOPE   C11 3362   3.934   5.900  16.458  0.5981 -0.5122 -0.6780
   27DOPE  H11A 3363   3.908   5.923  16.352  1.7279  0.1714 -0.8200
   27DOPE  H11B 3364   4.007   5.972  16.502 -0.1550  0.8042 -1.5093
   27DOPE     P 3365   3.720   5.987  16.567  0.3002  0.0069 -0.2886
   27DOPE   O13 3366   3.771   6.086  16.668  0.0189  0.8166  0.2123
   27DOPE   O14 3367   3.599   5.917  16.606  0.3658  0.4343  0.2051
   27DOPE   O11 3368   3.701   6.078  16.438 -0.4179 -0.2379  0.9274
   27DOPE   O12 3369   3.822   5.876  16.540 -0.2129  0.2384  0.5407
   27DOPE    C1 3370   3.598   6.031  16.345  0.1924 -0.4794  0.2525
   27DOPE    HA 3371   3.494   6.028  16.384 -0.0673 -2.2487 -0.4649
   27DOPE    HB 3372   3.613   5.927  16.307 -1.7011 -2.1974  3.7121
   27DOPE    C2 3373   3.599   6.104  16.207 -0.7017 -0.1864 -0.3694
   27DOPE    HS 3374   3.532   6.042  16.143  0.1401 -0.1330 -1.3185
   27DOPE   O21 3375   3.736   6.105  16.169  0.0727 -0.0782 -0.3584
   27DOPE   C21 3376   3.752   6.100  16.044  0.2138 -0.4164 -0.2483
   27DOPE   O22 3377   3.664   6.101  15.956  0.5861 -0.0593 -0.5189
   27DOPE   C22 3378   3.903   6.112  16.021 -0.4368  0.6634  0.2015
   27DOPE   H2R 3379   3.962   6.035  16.074 -0.0755  0.7447 -0.0821
   27DOPE   H2S 3380   3.936   6.205  16.073 -0.5186  0.4346  0.6712
   27DOPE    C3 3381   3.542   6.254  16.221 -0.0703 -0.6608  0.3705
   27DOPE    HX 3382   3.611   6.312  16.286 -0.5182 -0.6319  0.8281
   27DOPE    HY 3383   3.438   6.243  16.259 -0.9600  2.6324 -0.7066
   27DOPE   O31 3384   3.522   6.313  16.088  0.4811 -0.6889 -0.1903
   27DOPE   C31 3385   3.581   6.424  16.064 -0.5170  0.7690 -0.3541
   27DOPE   O32 3386   3.637   6.506  16.137 -0.1000  0.5568 -0.1523
   27DOPE   C32 3387   3.592   6.436  15.911  0.6836  0.7876 -0.3212
   27DOPE   H2X 3388   3.639   6.343  15.871 -0.1578  0.3020 -0.2147
   27DOPE   H2Y 3389   3.490   6.445  15.870  1.2016  2.2141 -1.3646
   27DOPE   C23 3390   3.956   6.100  15.872 -0.1632  0.6051  0.8425
   27DOPE   H3R 3391   3.922   6.004  15.826  2.5284 -0.6459  1.2778
   27DOPE   H3S 3392   4.067   6.089  15.870 -0.1662  0.7011  0.0331
   27DOPE   C24 3393   3.932   6.227  15.790  0.1711 -0.8738  0.3405
   27DOPE   H4R 3394   3.927   6.318  15.852 -3.1231 -1.2912  0.8675
   27DOPE   H4S 3395   3.835   6.222  15.736 -0.2996  0.8024  0.9858
   27DOPE   C25 3396   4.050   6.238  15.690 -0.1033 -0.0536 -0.0929
   27DOPE   H5R 3397   4.147   6.245  15.743 -0.2410  2.1265 -0.0483
   27DOPE   H5S 3398   4.055   6.335  15.637  0.2611 -0.2311 -0.3875
   27DOPE   C26 3399   4.054   6.135  15.570  0.0908  0.1998  0.0304
   27DOPE   H6R 3400   4.045   6.029  15.603  0.7209  0.1826  0.1530
   27DOPE   H6S 3401   4.156   6.137  15.527  0.2651 -3.6094 -0.0797
   27DOPE   C27 3402   3.959   6.172  15.462  0.6451  0.3549  0.1217
   27DOPE   H7R 3403   3.983   6.275  15.429  0.1094  1.1333  2.0635
   27DOPE   H7S 3404   3.857   6.166  15.507  0.6043 -1.4218 -0.1405
   27DOPE   C28 3405   3.972   6.080  15.339  0.2878  0.4105  0.2470
   27DOPE   H8R 3406   3.948   5.975  15.366  2.4680 -0.2865 -0.3718
   27DOPE   H8S 3407   4.072   6.092  15.292  1.2699  0.0973  2.1588
   27DOPE   C29 3408   3.866   6.124  15.246 -0.0900 -0.2532  1.3009
   27DOPE   H9R 3409   3.769   6.072  15.254  0.2382 -1.0583  0.2646
   27DOPE  C210 3410   3.872   6.232  15.165  0.3599  0.5858  0.0168
   27DOPE  H10R 3411   3.783   6.255  15.106  1.0855 -2.1407 -2.4033
   27DOPE  C211 3412   3.995   6.313  15.131  0.0011 -0.1724 -0.8892
   27DOPE  H11R 3413   4.077   6.286  15.201 -1.7134  0.4536  1.4943
   27DOPE  H11S 3414   3.978   6.423  15.132 -0.9611 -0.2959  0.6741
   27DOPE  C212 3415   4.052   6.277  14.992 -0.5464 -0.2511  0.1023
   27DOPE  H12R 3416   3.971   6.298  14.918 -0.1583  1.8089  0.1774
   27DOPE  H12S 3417   4.090   6.173  14.984  2.8972  0.8609  0.2446
   27DOPE  C213 3418   4.160   6.384  14.961  0.3132 -0.3914  0.1767
   27DOPE  H13R 3419   4.229   6.390  15.047  2.2636 -0.5294 -1.3153
   27DOPE  H13S 3420   4.118   6.487  14.966  2.1750  0.4528 -0.5284
   27DOPE  C214 3421   4.246   6.355  14.837  0.8256 -0.4912  0.0008
   27DOPE  H14R 3422   4.183   6.374  14.747  1.1549 -0.2433 -0.1805
   27DOPE  H14S 3423   4.279   6.249  14.837  0.4144 -0.7339  3.2816
   27DOPE  C215 3424   4.367   6.446  14.826  0.2066 -0.1346  0.5783
   27DOPE  H15R 3425   4.440   6.407  14.899 -2.3597 -0.4500  3.1531
   27DOPE  H15S 3426   4.320   6.544  14.851  0.9653  0.6591 -0.9244
   27DOPE  C216 3427   4.418   6.459  14.678  0.2816  0.1069  0.4504
   27DOPE  H16R 3428   4.332   6.476  14.610 -0.4798 -0.2839  1.3104
   27DOPE  H16S 3429   4.454   6.360  14.640  2.1654  1.6003 -2.0071
   27DOPE  C217 3430   4.535   6.550  14.664  0.0617 -0.3850 -0.6982
   27DOPE  H17R 3431   4.605   6.538  14.750  0.0491 -0.3927 -0.6884
   27DOPE  H17S 3432   4.502   6.656  14.665  2.3831  0.4233 -1.6362
   27DOPE  C218 3433   4.613   6.544  14.531  0.6167  0.3456 -0.1370
   27DOPE  H18R 3434   4.701   6.612  14.533  0.6927  0.2586 -0.4742
   27DOPE  H18S 3435   4.540   6.560  14.449  1.0773 -1.1389 -0.8708
   27DOPE  H18T 3436   4.648   6.439  14.524  0.4467  0.3609 -1.3888
   27DOPE   C33 3437   3.674   6.563  15.875 -0.2115 -0.2430  0.4456
   27DOPE   H3X 3438   3.776   6.545  15.915 -0.3056  0.6463  1.1259
   27DOPE   H3Y 3439   3.628   6.648  15.930 -1.3836 -0.9429  0.5964
   27DOPE   C34 3440   3.662   6.603  15.727  0.0273  0.4667 -0.5331
   27DOPE   H4X 3441   3.556   6.600  15.696  0.2650  0.7675 -1.3988
   27DOPE   H4Y 3442   3.703   6.704  15.705 -0.4199  0.9749  0.8440
   27DOPE   C35 3443   3.720   6.504  15.619 -0.7469  0.0589  0.5674
   27DOPE   H5X 3444   3.705   6.396  15.644  2.5911 -0.8040 -0.6373
   27DOPE   H5Y 3445   3.831   6.514  15.613 -0.8416  0.1939 -2.0070
   27DOPE   C36 3446   3.657   6.548  15.484 -0.3393  0.4876 -0.3137
   27DOPE   H6X 3447   3.692   6.653  15.472 -1.4281  1.0495  1.0490
   27DOPE   H6Y 3448   3.547   6.557  15.494 -0.3039 -0.5524  1.4457
   27DOPE   C37 3449   3.695   6.462  15.364  0.3196  0.0724 -0.5493
   27DOPE   H7X 3450   3.802   6.433  15.366  0.4212  0.4931  0.7257
   27DOPE   H7Y 3451   3.638   6.368  15.353  2.5464 -1.3278 -0.7395
   27DOPE   C38 3452   3.655   6.539  15.229  0.1887  0.0303 -0.1071
   27DOPE   H8X 3453   3.549   6.573  15.233  0.8601  2.8232 -2.3583
   27DOPE   H8Y 3454   3.659   6.465  15.147 -3.4549 -1.2194  0.6385
   27DOPE   C39 3455   3.736   6.663  15.198 -0.0208 -0.0156  0.3104
   27DOPE   H9X 3456   3.806   6.699  15.275 -0.4072  0.6479  0.3569
   27DOPE  C310 3457   3.753   6.725  15.076  0.0688  0.6599  0.3216
   27DOPE  H10X 3458   3.822   6.809  15.058  0.7551 -0.2308 -1.5126
   27DOPE  C311 3459   3.704   6.685  14.938  0.0610  0.4196  0.1514
   27DOPE  H11X 3460   3.595   6.704  14.931  0.1641  0.8141 -0.4537
   27DOPE  H11Y 3461   3.750   6.748  14.859 -0.1227 -1.6272 -1.6812
   27DOPE  C312 3462   3.741   6.546  14.888  0.2842 -0.5967 -0.5304
   27DOPE  H12X 3463   3.722   6.470  14.967 -1.5611  0.4967  0.1532
   27DOPE  H12Y 3464   3.850   6.542  14.867  0.4852 -0.0001  0.3735
   27DOPE  C313 3465   3.648   6.502  14.774 -0.0263  0.8117  0.5955
   27DOPE  H13X 3466   3.660   6.394  14.750 -1.3067  1.2325 -2.5093
   27DOPE  H13Y 3467   3.538   6.513  14.791 -0.2159 -0.5459  0.4084
   27DOPE  C314 3468   3.685   6.572  14.648  0.4016  0.8719  0.1485
   27DOPE  H14X 3469   3.784   6.542  14.607 -0.2960  0.7193 -1.4969
   27DOPE  H14Y 3470   3.698   6.681  14.657 -2.1535  1.5098 -2.3166
   27DOPE  C315 3471   3.593   6.536  14.532  0.2591  0.5147 -0.8766
   27DOPE  H15X 3472   3.486   6.562  14.550  0.4202  0.1349  0.7595
   27DOPE  H15Y 3473   3.587   6.425  14.527 -1.8007  0.3462  2.3105
   27DOPE  C316 3474   3.639   6.590  14.394 -0.1385 -0.7780  0.2524
   27DOPE  H16X 3475   3.747   6.563  14.382  0.5958  0.9176  2.3622
   27DOPE  H16Y 3476   3.643   6.701  14.389 -1.5423 -0.6393  1.6655
   27DOPE  C317 3477   3.554   6.532  14.282 -0.1608  0.3030  0.1245
   27DOPE  H17X 3478   3.600   6.553  14.183 -0.7427 -0.1595 -0.2532
   27DOPE  H17Y 3479   3.556   6.421  14.297 -0.0816  0.4067  0.9318
   27DOPE  C318 3480   3.408   6.571  14.273 -0.2093  1.0964 -1.1403
   27DOPE  H18X 3481   3.367   6.547  14.373 -0.1051  2.1317 -0.8411
   27DOPE  H18Y 3482   3.398   6.681  14.264 -1.0574  1.2770  1.3196
   27DOPE  H18Z 3483   3.350   6.535  14.186 -3.0452  1.5120  0.4539
   28DOPE     N 3484   5.377   0.415  16.858  0.3735  0.7027 -0.0496
   28DOPE   HN1 3485   5.449   0.478  16.899  2.2909 -0.7517 -0.9829
   28DOPE   HN2 3486   5.303   0.475  16.817 -0.0188  0.6236  0.5300
   28DOPE   HN3 3487   5.339   0.356  16.935  1.1102  0.6611  0.2944
   28DOPE   C12 3488   5.440   0.328  16.748  0.3623  0.3138  0.3484
   28DOPE  H12A 3489   5.515   0.253  16.782  0.1521 -0.4824 -0.8580
   28DOPE  H12B 3490   5.501   0.396  16.685  1.9818 -0.6048  0.8444
   28DOPE   C11 3491   5.323   0.259  16.670 -0.5454 -0.7466  0.3958
   28DOPE  H11A 3492   5.359   0.210  16.576  0.2393  0.0588  0.2623
   28DOPE  H11B 3493   5.246   0.326  16.627 -1.1071 -1.6990 -0.1382
   28DOPE     P 3494   5.117   0.099  16.724  0.3327  0.2123 -0.2075
   28DOPE   O13 3495   5.006   0.172  16.780  0.5396 -0.1289 -0.5775
   28DOPE   O14 3496   5.142  -0.038  16.772 -0.4880  0.3930  0.3944
   28DOPE   O11 3497   5.100   0.105  16.572 -0.1257  0.3818 -0.2677
   28DOPE   O12 3498   5.259   0.168  16.762  0.3799 -0.4010 -0.4393
   28DOPE    C1 3499   5.018   0.193  16.498 -0.3765  0.6938  1.0162
   28DOPE    HA 3500   5.036   0.297  16.533 -1.7729  2.2117 -2.4001
   28DOPE    HB 3501   4.909   0.179  16.516 -0.7638  0.7550 -1.1231
   28DOPE    C2 3502   5.046   0.172  16.341 -0.1358 -0.0901 -0.5939
   28DOPE    HS 3503   5.156   0.165  16.330  0.0557  0.4944  0.7227
   28DOPE   O21 3504   4.991   0.284  16.262  0.8159 -0.6394 -0.2069
   28DOPE   C21 3505   5.058   0.394  16.263 -0.3874  0.3268 -0.1667
   28DOPE   O22 3506   5.161   0.415  16.325  0.5314 -0.3808 -0.2839
   28DOPE   C22 3507   4.990   0.504  16.181  0.0627  0.7512  0.1909
   28DOPE   H2R 3508   5.037   0.603  16.197 -1.6814  1.4173  1.6058
   28DOPE   H2S 3509   4.884   0.510  16.216  0.3227  0.4537  1.0628
   28DOPE    C3 3510   5.003   0.031  16.292  0.8006 -0.6984 -0.6193
   28DOPE    HX 3511   4.892   0.029  16.297  0.8356 -2.2994 -0.0311
   28DOPE    HY 3512   5.048  -0.046  16.359 -0.8866 -1.3215 -0.1698
   28DOPE   O31 3513   5.035   0.005  16.153 -0.2939 -0.1143 -0.5083
   28DOPE   C31 3514   5.166  -0.001  16.126  1.2681 -0.0293  0.0663
   28DOPE   O32 3515   5.254  -0.020  16.207  0.1417 -0.5587 -0.9482
   28DOPE   C32 3516   5.200   0.028  15.980  0.3987 -0.6782  0.7040
   28DOPE   H2X 3517   5.161  -0.060  15.925 -2.3225  1.1393 -0.5024
   28DOPE   H2Y 3518   5.155   0.120  15.935  1.2962 -0.6412 -0.1498
   28DOPE   C23 3519   5.001   0.484  16.026 -0.2614 -0.4749 -0.4042
   28DOPE   H3R 3520   4.942   0.567  15.981 -1.5561 -0.7786  0.6596
   28DOPE   H3S 3521   4.950   0.391  15.993  1.3872 -1.2553 -0.8949
   28DOPE   C24 3522   5.145   0.498  15.971 -0.1686 -0.1698  0.6683
   28DOPE   H4R 3523   5.202   0.407  15.999  0.8640  0.6864  1.4496
   28DOPE   H4S 3524   5.199   0.587  16.010 -0.1384 -1.0105  2.6729
   28DOPE   C25 3525   5.142   0.507  15.818 -0.1232  0.4353 -0.0410
   28DOPE   H5R 3526   5.107   0.607  15.783  0.3644  0.3919 -0.6628
   28DOPE   H5S 3527   5.068   0.438  15.773  0.6183 -1.1687  1.0752
   28DOPE   C26 3528   5.280   0.490  15.763 -0.2403  0.4937  0.1010
   28DOPE   H6R 3529   5.288   0.380  15.781  1.4960  0.6220  0.2179
   28DOPE   H6S 3530   5.356   0.543  15.823  0.8482 -0.8393 -0.0468
   28DOPE   C27 3531   5.297   0.518  15.613 -0.3639 -0.1907  0.0525
   28DOPE   H7R 3532   5.389   0.469  15.573 -0.5536 -1.6482  1.3082
   28DOPE   H7S 3533   5.313   0.627  15.602  0.3753 -0.0869  1.7585
   28DOPE   C28 3534   5.183   0.484  15.524 -0.3545  0.0707 -0.3037
   28DOPE   H8R 3535   5.104   0.561  15.535 -1.2156 -0.6219 -1.3699
   28DOPE   H8S 3536   5.139   0.386  15.552  0.9134 -1.0761 -2.0286
   28DOPE   C29 3537   5.239   0.477  15.381 -0.0487 -1.2149  0.1497
   28DOPE   H9R 3538   5.335   0.425  15.367  0.4678 -0.1868 -0.2475
   28DOPE  C210 3539   5.198   0.555  15.280  0.6542 -0.6790  0.6638
   28DOPE  H10R 3540   5.271   0.567  15.198  0.3860 -0.4634  0.4544
   28DOPE  C211 3541   5.089   0.662  15.274  0.5029  0.3164 -0.5102
   28DOPE  H11R 3542   5.154   0.752  15.277 -0.4333  0.9896  0.5174
   28DOPE  H11S 3543   5.024   0.664  15.365  0.6205 -0.2774 -0.4068
   28DOPE  C212 3544   5.006   0.658  15.148  0.5214  0.5183  0.3879
   28DOPE  H12R 3545   5.068   0.645  15.056 -2.2082 -2.4130 -1.2555
   28DOPE  H12S 3546   4.945   0.750  15.141  1.5759  1.2799  0.9236
   28DOPE  C213 3547   4.901   0.539  15.160 -0.7461 -0.3242 -0.3567
   28DOPE  H13R 3548   4.840   0.550  15.252  2.9548  0.3379  2.2454
   28DOPE  H13S 3549   4.967   0.452  15.180  0.1369  0.8905  2.5201
   28DOPE  C214 3550   4.814   0.504  15.037  0.0786 -0.5025  0.1747
   28DOPE  H14R 3551   4.878   0.514  14.946  0.9902  0.1378  0.8756
   28DOPE  H14S 3552   4.747   0.593  15.033  0.4729 -0.2200 -0.3006
   28DOPE  C215 3553   4.749   0.367  15.060  0.2226 -0.3588 -0.2536
   28DOPE  H15R 3554   4.677   0.373  15.144  0.1113  1.6756 -0.4366
   28DOPE  H15S 3555   4.835   0.302  15.087 -0.4782 -1.0034  0.4617
   28DOPE  C216 3556   4.673   0.321  14.938  0.3432  0.1243  0.5776
   28DOPE  H16R 3557   4.747   0.313  14.856 -0.2929 -1.3593  0.1121
   28DOPE  H16S 3558   4.594   0.390  14.900 -0.1444 -0.3662  0.6865
   28DOPE  C217 3559   4.617   0.176  14.943  0.2086  0.4569  0.9284
   28DOPE  H17R 3560   4.544   0.155  14.862  2.4849 -2.8632 -0.4962
   28DOPE  H17S 3561   4.570   0.169  15.043  0.3985 -0.4994  0.9561
   28DOPE  C218 3562   4.715   0.057  14.931 -0.3266  0.4631  0.0907
   28DOPE  H18R 3563   4.763   0.061  14.831 -0.2496  2.7766  0.1686
   28DOPE  H18S 3564   4.665  -0.041  14.948 -1.1191  0.7523 -0.5162
   28DOPE  H18T 3565   4.798   0.062  15.005  0.3815  1.3742 -0.7506
   28DOPE   C33 3566   5.355   0.030  15.957  0.6277  0.0835  0.1153
   28DOPE   H3X 3567   5.394  -0.070  15.984  1.0210 -0.0075 -0.7656
   28DOPE   H3Y 3568   5.401   0.114  16.013  1.2811  1.2011 -2.0195
   28DOPE   C34 3569   5.386   0.043  15.805  0.2572 -0.4549 -0.3709
   28DOPE   H4X 3570   5.346   0.138  15.764 -0.4224 -0.4642  0.2481
   28DOPE   H4Y 3571   5.497   0.034  15.802  0.3856  0.7238  0.0837
   28DOPE   C35 3572   5.313  -0.051  15.711  0.1320 -0.1421 -0.2634
   28DOPE   H5X 3573   5.204  -0.030  15.710  0.3472  1.1326 -2.1787
   28DOPE   H5Y 3574   5.336  -0.157  15.736 -0.3321  0.5748  3.7674
   28DOPE   C36 3575   5.361  -0.023  15.564  0.0664 -0.4163 -0.1263
   28DOPE   H6X 3576   5.327  -0.112  15.507 -1.7244  0.2179 -0.1261
   28DOPE   H6Y 3577   5.472  -0.024  15.562  0.0822  0.3861 -0.2351
   28DOPE   C37 3578   5.304   0.107  15.499  0.3153  0.7669  0.1054
   28DOPE   H7X 3579   5.197   0.116  15.527  0.7250  1.8870  1.4407
   28DOPE   H7Y 3580   5.346   0.192  15.557 -1.7404 -0.5480  3.8812
   28DOPE   C38 3581   5.324   0.108  15.343  0.5719  0.0892  0.4295
   28DOPE   H8X 3582   5.432   0.101  15.318  0.3964  0.9998 -0.6722
   28DOPE   H8Y 3583   5.286   0.211  15.326  0.5597  0.4142  2.2818
   28DOPE   C39 3584   5.241   0.008  15.264  0.0836  0.2050  0.3003
   28DOPE   H9X 3585   5.240  -0.098  15.295 -2.1146 -0.3518 -1.4551
   28DOPE  C310 3586   5.160   0.045  15.156 -0.3637  0.9124  0.3772
   28DOPE  H10X 3587   5.124  -0.036  15.091  2.4487  0.6821 -1.0245
   28DOPE  C311 3588   5.152   0.181  15.094  0.1504 -0.0576 -0.4878
   28DOPE  H11X 3589   5.089   0.247  15.158 -0.1735 -1.0042  0.1876
   28DOPE  H11Y 3590   5.252   0.230  15.094  1.4230 -2.3226  2.3014
   28DOPE  C312 3591   5.099   0.164  14.951 -0.1953  0.3039 -0.4007
   28DOPE  H12X 3592   4.997   0.120  14.949 -0.0685 -0.0985  0.7967
   28DOPE  H12Y 3593   5.169   0.099  14.893 -0.5408  0.3830 -0.9111
   28DOPE  C313 3594   5.097   0.301  14.878 -0.1268  0.7313 -0.2622
   28DOPE  H13X 3595   5.015   0.354  14.932 -1.8721 -2.0358 -0.0116
   28DOPE  H13Y 3596   5.193   0.356  14.889 -1.2216  2.5463  0.8738
   28DOPE  C314 3597   5.060   0.297  14.733  0.3390  0.3955  0.1625
   28DOPE  H14X 3598   4.967   0.242  14.708  1.9007 -1.8751 -0.9046
   28DOPE  H14Y 3599   5.133   0.234  14.679  2.5245  0.1574  3.1453
   28DOPE  C315 3600   5.047   0.430  14.676  0.4832  0.0694  0.5274
   28DOPE  H15X 3601   4.998   0.505  14.743  2.7998 -0.0913  2.5549
   28DOPE  H15Y 3602   4.979   0.420  14.589 -1.5595 -0.7470  2.1402
   28DOPE  C316 3603   5.183   0.488  14.629  0.7426 -0.0425 -0.3250
   28DOPE  H16X 3604   5.217   0.413  14.554 -2.4506 -1.5547 -0.4447
   28DOPE  H16Y 3605   5.261   0.501  14.707  0.5361 -0.9796  0.0462
   28DOPE  C317 3606   5.180   0.623  14.552  0.3835  0.1049  0.0011
   28DOPE  H17X 3607   5.101   0.609  14.476  0.4062  1.2691 -0.2468
   28DOPE  H17Y 3608   5.152   0.713  14.611 -0.0354  1.3858 -2.0536
   28DOPE  C318 3609   5.313   0.663  14.478  0.7839  0.0706 -0.2059
   28DOPE  H18X 3610   5.391   0.688  14.553  0.3036  0.5313  0.1483
   28DOPE  H18Y 3611   5.352   0.588  14.406  0.0272  0.2820 -0.8469
   28DOPE  H18Z 3612   5.296   0.751  14.413  1.1937  0.9766  0.8867
   29DOPE     N 3613   6.666   1.927  17.215 -0.3433 -0.0589  0.4741
   29DOPE   HN1 3614   6.610   1.980  17.145  0.4487  0.5309  0.2635
   29DOPE   HN2 3615   6.605   1.875  17.281  0.2700 -1.1128  0.2210
   29DOPE   HN3 3616   6.722   1.998  17.267  1.5911 -0.6734 -0.6756
   29DOPE   C12 3617   6.751   1.818  17.152  0.0070 -0.1821 -0.1146
   29DOPE  H12A 3618   6.682   1.733  17.132  0.4415 -0.4356 -0.5491
   29DOPE  H12B 3619   6.821   1.774  17.226 -0.2675 -3.3327 -1.5855
   29DOPE   C11 3620   6.823   1.873  17.025  0.2636  0.4104  0.2892
   29DOPE  H11A 3621   6.913   1.809  17.015  0.8459  1.2103  0.2463
   29DOPE  H11B 3622   6.843   1.982  17.040 -0.7034  0.7589 -0.8178
   29DOPE     P 3623   6.642   1.964  16.853 -0.0528  0.3508 -0.0737
   29DOPE   O13 3624   6.574   2.028  16.971  0.6194  0.4019  0.3711
   29DOPE   O14 3625   6.558   1.909  16.742 -0.4346  0.3720 -0.0484
   29DOPE   O11 3626   6.732   2.073  16.790 -0.3499  0.0060  0.4362
   29DOPE   O12 3627   6.731   1.846  16.912  0.1597 -0.3983  0.2290
   29DOPE    C1 3628   6.856   2.048  16.728 -0.0980  0.4359 -0.3530
   29DOPE    HA 3629   6.896   1.947  16.750  1.8710  1.4618  1.0558
   29DOPE    HB 3630   6.922   2.129  16.765  0.4746 -0.4849  0.6731
   29DOPE    C2 3631   6.835   2.071  16.577  0.1044  0.8301  0.3272
   29DOPE    HS 3632   6.795   1.975  16.538 -2.8558  1.5801  1.3115
   29DOPE   O21 3633   6.958   2.096  16.512  0.7082 -0.5004 -0.2610
   29DOPE   C21 3634   7.061   2.019  16.521 -0.1949  0.1969 -0.4533
   29DOPE   O22 3635   7.056   1.907  16.571 -0.0346 -0.0966 -0.3599
   29DOPE   C22 3636   7.186   2.083  16.450  0.0102  0.4144 -0.1097
   29DOPE   H2R 3637   7.269   2.094  16.524  2.5423 -0.2277 -2.6565
   29DOPE   H2S 3638   7.153   2.183  16.413 -0.4537  0.9375  1.6386
   29DOPE    C3 3639   6.733   2.179  16.537 -0.5485  0.1748 -0.0212
   29DOPE    HX 3640   6.757   2.275  16.587  0.4856 -0.6590  1.1380
   29DOPE    HY 3641   6.635   2.140  16.569 -0.3300 -0.8199 -0.5265
   29DOPE   O31 3642   6.749   2.205  16.393 -0.1881  0.7722  0.7938
   29DOPE   C31 3643   6.674   2.118  16.320 -0.1481  0.2561  0.1032
   29DOPE   O32 3644   6.597   2.034  16.362 -0.1856  0.0798 -0.0530
   29DOPE   C32 3645   6.722   2.133  16.177 -0.1939  0.4972 -0.0580
   29DOPE   H2X 3646   6.722   2.244  16.162  0.1728  0.4821 -0.1740
   29DOPE   H2Y 3647   6.826   2.097  16.164 -0.7760 -0.2198 -3.9694
   29DOPE   C23 3648   7.234   1.982  16.341  0.2750  0.1701 -0.1622
   29DOPE   H3R 3649   7.236   1.882  16.389 -0.4495  0.2909  0.1180
   29DOPE   H3S 3650   7.339   2.004  16.312  0.6834 -0.9457  0.4050
   29DOPE   C24 3651   7.146   1.988  16.218  0.5976 -0.0999 -0.6329
   29DOPE   H4R 3652   7.043   1.955  16.242  0.8330 -0.6173 -0.3039
   29DOPE   H4S 3653   7.188   1.908  16.153  2.5521  0.6661 -0.4005
   29DOPE   C25 3654   7.165   2.124  16.148  0.7703 -0.2106  0.3912
   29DOPE   H5R 3655   7.269   2.159  16.135  0.0712  1.1307 -2.4171
   29DOPE   H5S 3656   7.108   2.194  16.213 -0.4528 -2.3071  1.7017
   29DOPE   C26 3657   7.102   2.129  16.011  0.1183  0.4454 -1.2649
   29DOPE   H6R 3658   7.121   2.229  15.964 -0.9711 -0.0816 -2.9161
   29DOPE   H6S 3659   6.993   2.117  16.029  0.7443 -3.1494  1.2342
   29DOPE   C27 3660   7.140   2.015  15.904 -0.4628 -0.4367 -0.3921
   29DOPE   H7R 3661   7.088   1.921  15.935 -1.1617  0.1610  0.2695
   29DOPE   H7S 3662   7.248   1.988  15.915 -0.2892  0.1246 -0.6915
   29DOPE   C28 3663   7.093   2.050  15.769 -0.0428 -0.3306  1.0866
   29DOPE   H8R 3664   7.125   2.156  15.758  0.4561 -0.4732  1.1550
   29DOPE   H8S 3665   6.982   2.045  15.764 -0.0573 -0.1998  1.2739
   29DOPE   C29 3666   7.162   1.966  15.658 -0.2518 -0.4003  0.4058
   29DOPE   H9R 3667   7.250   1.915  15.699 -0.6465 -0.5320  1.0931
   29DOPE  C210 3668   7.142   1.965  15.527  0.5461  0.1103 -0.3816
   29DOPE  H10R 3669   7.197   1.896  15.461 -1.3883  0.5054 -2.5263
   29DOPE  C211 3670   7.044   2.054  15.455  0.1136 -0.4725 -0.0914
   29DOPE  H11R 3671   6.984   2.111  15.529 -0.7122 -0.4629 -0.7539
   29DOPE  H11S 3672   6.977   1.983  15.401  0.3729 -1.2404  0.5737
   29DOPE  C212 3673   7.107   2.143  15.342 -0.6887  0.8374 -0.0973
   29DOPE  H12R 3674   7.176   2.216  15.389  0.9408 -0.4944 -0.3389
   29DOPE  H12S 3675   7.013   2.196  15.313  0.0811  0.8964 -2.7715
   29DOPE  C213 3676   7.153   2.063  15.226  0.1451 -0.3622  0.0129
   29DOPE  H13R 3677   7.073   2.009  15.171  1.3149 -0.4024 -1.7315
   29DOPE  H13S 3678   7.221   1.982  15.259 -1.1921 -1.5071  0.0466
   29DOPE  C214 3679   7.236   2.153  15.132  0.5541  0.1209  0.2091
   29DOPE  H14R 3680   7.307   2.213  15.192 -0.5603 -0.5834  2.3332
   29DOPE  H14S 3681   7.177   2.234  15.083 -0.8740 -0.4110  0.9735
   29DOPE  C215 3682   7.300   2.069  15.018 -0.2763  1.0909  0.3892
   29DOPE  H15R 3683   7.218   2.010  14.971  1.1886 -1.2718  0.6533
   29DOPE  H15S 3684   7.361   1.982  15.052 -1.2088  0.2362 -0.0825
   29DOPE  C216 3685   7.370   2.140  14.899 -0.2581 -0.3555  0.2172
   29DOPE  H16R 3686   7.406   2.070  14.820 -0.8010  0.2188 -0.5608
   29DOPE  H16S 3687   7.465   2.184  14.936 -1.4281  2.5429  0.0644
   29DOPE  C217 3688   7.288   2.251  14.812  0.1512  0.3735 -0.5371
   29DOPE  H17R 3689   7.228   2.312  14.883 -0.1624 -0.8657  0.2958
   29DOPE  H17S 3690   7.204   2.189  14.775  1.4027 -1.4317 -0.4880
   29DOPE  C218 3691   7.369   2.332  14.714 -0.1933 -0.0098  0.8874
   29DOPE  H18R 3692   7.403   2.274  14.625  0.9396  1.6718  0.1724
   29DOPE  H18S 3693   7.460   2.364  14.768 -0.1082 -1.1017  1.4141
   29DOPE  H18T 3694   7.313   2.422  14.680  1.1994  0.2994 -0.7689
   29DOPE   C33 3695   6.646   2.060  16.067 -0.4426 -0.4672  0.6207
   29DOPE   H3X 3696   6.536   2.073  16.069 -0.3669  0.2391  2.3546
   29DOPE   H3Y 3697   6.668   1.951  16.070  2.4513 -0.0049 -0.8081
   29DOPE   C34 3698   6.692   2.120  15.932 -1.0649 -0.1345 -0.1345
   29DOPE   H4X 3699   6.704   2.229  15.945  1.9001 -0.6060  2.0889
   29DOPE   H4Y 3700   6.795   2.089  15.905 -2.5361 -2.7425 -3.6529
   29DOPE   C35 3701   6.610   2.077  15.813  0.2880  0.0280  0.7185
   29DOPE   H5X 3702   6.502   2.079  15.841  0.2260  0.1110  0.4716
   29DOPE   H5Y 3703   6.636   1.974  15.782 -0.2583  0.2473 -0.5092
   29DOPE   C36 3704   6.630   2.176  15.695  0.7645 -0.3224  0.1100
   29DOPE   H6X 3705   6.730   2.161  15.649  0.1818  1.9578 -2.1509
   29DOPE   H6Y 3706   6.617   2.283  15.722 -0.4079 -0.5993  0.7046
   29DOPE   C37 3707   6.524   2.155  15.583 -0.0345 -0.4950 -0.6559
   29DOPE   H7X 3708   6.536   2.055  15.537 -0.0745  0.3835 -2.6701
   29DOPE   H7Y 3709   6.424   2.162  15.631  1.0901  0.2261  1.7552
   29DOPE   C38 3710   6.528   2.269  15.477  0.3527  0.3854  0.0587
   29DOPE   H8X 3711   6.541   2.358  15.543  0.8673  0.1993  0.2113
   29DOPE   H8Y 3712   6.433   2.288  15.421 -0.3835 -1.5525  0.5717
   29DOPE   C39 3713   6.646   2.254  15.385 -0.2732 -0.4480  0.6099
   29DOPE   H9X 3714   6.747   2.271  15.426  0.0535 -0.4149 -0.1822
   29DOPE  C310 3715   6.640   2.230  15.255  0.0856 -0.1623  0.0297
   29DOPE  H10X 3716   6.731   2.194  15.206  0.0261 -0.4880  0.1600
   29DOPE  C311 3717   6.513   2.201  15.166 -0.1203 -0.0281  0.2866
   29DOPE  H11X 3718   6.517   2.098  15.124  0.4452  0.1393 -0.0793
   29DOPE  H11Y 3719   6.418   2.194  15.224 -0.4049 -1.4155 -0.2805
   29DOPE  C312 3720   6.485   2.306  15.063  0.2273 -0.4919  0.2941
   29DOPE  H12X 3721   6.583   2.327  15.015  0.9127 -0.5020  1.6526
   29DOPE  H12Y 3722   6.446   2.397  15.113 -0.0833  0.7827 -2.1252
   29DOPE  C313 3723   6.375   2.258  14.963  0.2091  0.0549  0.3925
   29DOPE  H13X 3724   6.395   2.157  14.920 -1.6100  0.3452 -1.2884
   29DOPE  H13Y 3725   6.270   2.249  15.001 -1.3161 -1.7436 -3.6480
   29DOPE  C314 3726   6.381   2.344  14.829  0.3704 -0.0537 -0.3062
   29DOPE  H14X 3727   6.313   2.303  14.752 -1.6485  1.8699  0.3299
   29DOPE  H14Y 3728   6.480   2.328  14.780  1.1956  1.6766  0.6866
   29DOPE  C315 3729   6.357   2.493  14.842  0.5865  0.3839 -0.1477
   29DOPE  H15X 3730   6.425   2.532  14.921  0.0324  1.2833 -0.1041
   29DOPE  H15Y 3731   6.253   2.507  14.877  0.4265  0.1249 -0.5253
   29DOPE  C316 3732   6.385   2.570  14.711 -0.3984  0.3804  0.1920
   29DOPE  H16X 3733   6.312   2.531  14.638  0.2742 -1.8155  0.6206
   29DOPE  H16Y 3734   6.479   2.535  14.664  0.2343  2.3029 -0.0579
   29DOPE  C317 3735   6.363   2.727  14.717  0.1887  0.0703 -0.0527
   29DOPE  H17X 3736   6.387   2.773  14.618  0.1740  1.3717  0.5306
   29DOPE  H17Y 3737   6.256   2.752  14.729  0.2214 -0.1773  0.7785
   29DOPE  C318 3738   6.459   2.793  14.813  0.2140 -0.2029  0.2862
   29DOPE  H18X 3739   6.566   2.768  14.794  0.5280  0.5000  1.0491
   29DOPE  H18Y 3740   6.458   2.903  14.801  0.9163 -0.2286 -0.0833
   29DOPE  H18Z 3741   6.426   2.771  14.917 -2.2073 -1.8976 -0.7621
   30DOPE     N 3742   5.099   0.539  17.215  0.6031  0.0442 -0.7499
   30DOPE   HN1 3743   5.172   0.477  17.174  0.0326 -0.6675 -0.6922
   30DOPE   HN2 3744   5.104   0.526  17.318 -0.4624  1.6516 -0.4485
   30DOPE   HN3 3745   5.007   0.506  17.181  0.5290 -0.2149 -0.2992
   30DOPE   C12 3746   5.139   0.676  17.176  0.1811  0.0156 -0.0778
   30DOPE  H12A 3747   5.085   0.743  17.246  0.3350 -1.2063  1.2523
   30DOPE  H12B 3748   5.118   0.689  17.068  1.7276  0.7312 -0.3137
   30DOPE   C11 3749   5.293   0.704  17.196 -0.4078  0.5331  0.3862
   30DOPE  H11A 3750   5.333   0.702  17.299  2.4229  0.9979 -0.6321
   30DOPE  H11B 3751   5.317   0.810  17.172 -0.3173  0.3796 -0.2064
   30DOPE     P 3752   5.529   0.640  17.084 -0.4600 -0.3047 -0.2700
   30DOPE   O13 3753   5.591   0.541  16.997 -0.2493  0.2930 -0.0269
   30DOPE   O14 3754   5.606   0.663  17.205 -0.2772  0.4122 -0.3674
   30DOPE   O11 3755   5.513   0.765  16.995 -0.1560  0.0388  0.4370
   30DOPE   O12 3756   5.372   0.611  17.113  0.0901 -0.1958 -0.2164
   30DOPE    C1 3757   5.445   0.767  16.866 -1.1323  0.6592 -0.9363
   30DOPE    HA 3758   5.334   0.758  16.876 -1.0586 -0.7681 -1.2003
   30DOPE    HB 3759   5.483   0.678  16.812 -0.5323 -0.5399  1.3044
   30DOPE    C2 3760   5.487   0.886  16.789 -0.2819 -0.2464 -0.5019
   30DOPE    HS 3761   5.445   0.977  16.837  0.0902 -0.1454 -0.3621
   30DOPE   O21 3762   5.434   0.867  16.657  0.1078 -0.6903  0.1343
   30DOPE   C21 3763   5.443   0.983  16.588 -0.5212  0.4813  0.0048
   30DOPE   O22 3764   5.472   1.087  16.643 -0.1944 -0.1405 -0.4401
   30DOPE   C22 3765   5.410   0.964  16.438 -0.2185  0.2684  0.2246
   30DOPE   H2R 3766   5.302   0.978  16.417 -0.2286  1.9388  1.2490
   30DOPE   H2S 3767   5.441   0.862  16.407 -1.1223 -0.0187  0.2473
   30DOPE    C3 3768   5.643   0.893  16.788  0.8459 -0.0256  0.2319
   30DOPE    HX 3769   5.672   0.895  16.896 -0.2939 -0.5215  0.5694
   30DOPE    HY 3770   5.673   0.980  16.726  1.9085 -1.1304 -0.8530
   30DOPE   O31 3771   5.699   0.771  16.738  0.1009 -0.3383 -0.2433
   30DOPE   C31 3772   5.731   0.768  16.609 -0.0691 -0.1241  0.2127
   30DOPE   O32 3773   5.720   0.857  16.526 -0.3555 -0.3338 -0.3056
   30DOPE   C32 3774   5.788   0.630  16.577 -0.0164  0.0508 -0.0691
   30DOPE   H2X 3775   5.755   0.555  16.653  1.9658 -4.3716 -3.1382
   30DOPE   H2Y 3776   5.734   0.588  16.489 -0.3919  0.0634  0.1502
   30DOPE   C23 3777   5.493   1.071  16.365  0.0599 -0.1665  0.1891
   30DOPE   H3R 3778   5.513   1.032  16.262 -0.9581  0.0600 -0.1050
   30DOPE   H3S 3779   5.592   1.091  16.410  0.1429  1.9613 -0.8168
   30DOPE   C24 3780   5.422   1.205  16.337 -0.4333  0.5781 -0.2682
   30DOPE   H4R 3781   5.397   1.252  16.435 -1.3977  0.2107 -0.3347
   30DOPE   H4S 3782   5.324   1.200  16.285 -0.7678  0.8942  0.3155
   30DOPE   C25 3783   5.511   1.314  16.263 -0.4447  0.8497  0.3096
   30DOPE   H5R 3784   5.601   1.336  16.325  0.2438 -1.6476  0.3076
   30DOPE   H5S 3785   5.452   1.407  16.268 -2.2526 -0.1739 -0.8207
   30DOPE   C26 3786   5.554   1.283  16.117 -0.4765  0.0938  0.5524
   30DOPE   H6R 3787   5.464   1.280  16.053  1.1335  1.3574 -1.9428
   30DOPE   H6S 3788   5.611   1.189  16.099  1.8863  1.0269  2.5326
   30DOPE   C27 3789   5.637   1.401  16.058  0.5524 -0.0278  0.1144
   30DOPE   H7R 3790   5.733   1.403  16.113  0.7855 -0.6040 -0.2641
   30DOPE   H7S 3791   5.576   1.492  16.078  0.5876  0.1991 -0.7649
   30DOPE   C28 3792   5.651   1.407  15.906  0.2041 -0.1628  0.0808
   30DOPE   H8R 3793   5.734   1.476  15.878 -0.1126 -0.1882 -0.9684
   30DOPE   H8S 3794   5.557   1.450  15.865  0.9426  0.7667 -0.6606
   30DOPE   C29 3795   5.699   1.278  15.849  0.0279 -0.8349 -0.0501
   30DOPE   H9R 3796   5.738   1.210  15.927 -0.1628 -1.5059 -0.5376
   30DOPE  C210 3797   5.665   1.227  15.730 -0.2464 -0.2244 -0.2657
   30DOPE  H10R 3798   5.707   1.129  15.701 -0.3732 -0.3887  0.0924
   30DOPE  C211 3799   5.596   1.298  15.612  0.5338 -0.0750 -0.0164
   30DOPE  H11R 3800   5.550   1.389  15.655 -1.9795 -0.6954 -1.2505
   30DOPE  H11S 3801   5.515   1.230  15.580  1.2840 -1.5627  1.1254
   30DOPE  C212 3802   5.688   1.313  15.493  0.4099 -0.0098  0.1738
   30DOPE  H12R 3803   5.720   1.217  15.447 -0.2127  0.9253 -2.3707
   30DOPE  H12S 3804   5.782   1.369  15.510 -0.0681  0.9651 -0.3204
   30DOPE  C213 3805   5.619   1.386  15.375  0.0588 -0.4910  0.4819
   30DOPE  H13R 3806   5.593   1.492  15.397 -2.3555 -0.6111 -1.3385
   30DOPE  H13S 3807   5.529   1.325  15.350 -0.6793 -0.6349  3.1982
   30DOPE  C214 3808   5.708   1.383  15.257  0.1133  0.2643  0.4264
   30DOPE  H14R 3809   5.744   1.280  15.234 -1.7277 -0.5297  0.9039
   30DOPE  H14S 3810   5.789   1.457  15.272 -0.6005  0.9328  1.0362
   30DOPE  C215 3811   5.631   1.422  15.121 -0.0921  0.0051  0.0651
   30DOPE  H15R 3812   5.588   1.519  15.152  0.8727  0.1729  0.9389
   30DOPE  H15S 3813   5.545   1.352  15.109  0.8523 -1.6977  2.5300
   30DOPE  C216 3814   5.709   1.451  14.994 -0.8315  0.2205 -0.7357
   30DOPE  H16R 3815   5.764   1.357  14.971 -1.5163 -0.2635 -0.4081
   30DOPE  H16S 3816   5.796   1.520  14.998  0.2628 -0.9544 -2.4545
   30DOPE  C217 3817   5.619   1.468  14.874  0.0724 -1.0004 -0.2123
   30DOPE  H17R 3818   5.566   1.565  14.887  1.1342 -0.1421 -1.9032
   30DOPE  H17S 3819   5.534   1.398  14.886  0.8589 -2.6025 -2.9855
   30DOPE  C218 3820   5.683   1.460  14.735  0.1581 -0.3746 -0.6661
   30DOPE  H18R 3821   5.729   1.359  14.728 -3.0824 -2.0712  0.1420
   30DOPE  H18S 3822   5.759   1.541  14.732  1.6549 -1.3496  3.3862
   30DOPE  H18T 3823   5.607   1.474  14.655 -2.3944 -0.4939  1.5959
   30DOPE   C33 3824   5.943   0.622  16.556 -0.0325  0.0471 -0.1420
   30DOPE   H3X 3825   5.985   0.521  16.571  0.3742 -0.1886 -2.5428
   30DOPE   H3Y 3826   5.994   0.681  16.635 -0.0030  1.5639 -1.2481
   30DOPE   C34 3827   5.973   0.673  16.421 -0.5799 -0.5059  0.3303
   30DOPE   H4X 3828   5.915   0.607  16.353  2.1671 -1.8416 -0.8474
   30DOPE   H4Y 3829   5.932   0.772  16.393 -0.9908 -1.4422 -2.6467
   30DOPE   C35 3830   6.126   0.675  16.379  0.7823  0.5702 -0.1071
   30DOPE   H5X 3831   6.166   0.572  16.387  1.0656  0.7900  1.8657
   30DOPE   H5Y 3832   6.190   0.742  16.440  1.9393 -0.1220 -0.5368
   30DOPE   C36 3833   6.150   0.715  16.231  0.3245 -1.0793 -0.6794
   30DOPE   H6X 3834   6.257   0.701  16.205  0.1035 -2.1194 -1.0739
   30DOPE   H6Y 3835   6.120   0.820  16.210  0.1285 -0.7958  0.9473
   30DOPE   C37 3836   6.061   0.644  16.136 -0.3324  0.1334 -0.5059
   30DOPE   H7X 3837   6.069   0.539  16.172 -1.0626  0.2312 -0.0346
   30DOPE   H7Y 3838   5.953   0.665  16.142 -0.4684  0.2336 -2.5642
   30DOPE   C38 3839   6.100   0.672  15.987  0.2166  0.6139 -0.2953
   30DOPE   H8X 3840   6.210   0.670  15.974  0.8385  0.8292  3.7879
   30DOPE   H8Y 3841   6.071   0.779  15.972  1.5379  0.9588 -0.4965
   30DOPE   C39 3842   6.013   0.587  15.893 -0.0842 -0.4025  0.1415
   30DOPE   H9X 3843   5.908   0.575  15.923 -0.2509  0.6961  0.0429
   30DOPE  C310 3844   6.066   0.515  15.793  0.1015  0.0535  0.2470
   30DOPE  H10X 3845   5.998   0.451  15.734 -0.6136  1.2433 -0.2398
   30DOPE  C311 3846   6.210   0.493  15.760 -0.0104  0.2151 -0.0044
   30DOPE  H11X 3847   6.276   0.520  15.845  0.3879 -0.6736 -0.0236
   30DOPE  H11Y 3848   6.231   0.385  15.744 -0.5503 -0.0948  1.2971
   30DOPE  C312 3849   6.233   0.559  15.624 -0.5000 -0.1741 -0.0950
   30DOPE  H12X 3850   6.342   0.562  15.603 -0.6327  0.2975 -0.7445
   30DOPE  H12Y 3851   6.205   0.666  15.621 -1.2609 -0.2951  1.5830
   30DOPE  C313 3852   6.168   0.499  15.499  0.4940 -0.4068 -1.0396
   30DOPE  H13X 3853   6.231   0.418  15.456  2.9456  0.9608 -0.2817
   30DOPE  H13Y 3854   6.065   0.464  15.519 -0.1118  2.2978  1.1800
   30DOPE  C314 3855   6.145   0.599  15.391 -0.0647 -0.5936  0.0892
   30DOPE  H14X 3856   6.242   0.628  15.346  0.3851  0.9971  1.9280
   30DOPE  H14Y 3857   6.096   0.688  15.437 -0.5957 -1.3137  0.9483
   30DOPE  C315 3858   6.044   0.547  15.287  0.2861 -0.3249  0.2138
   30DOPE  H15X 3859   5.941   0.554  15.328 -0.5273  0.1700 -1.8154
   30DOPE  H15Y 3860   6.061   0.442  15.256 -2.0636 -0.6515 -0.1419
   30DOPE  C316 3861   6.051   0.619  15.154 -0.2711 -0.3933  0.5903
   30DOPE  H16X 3862   6.025   0.725  15.177  1.2342 -0.1347  1.1854
   30DOPE  H16Y 3863   5.971   0.592  15.081  0.0453  0.7367 -0.1989
   30DOPE  C317 3864   6.184   0.618  15.074  0.3088 -0.1307 -0.2014
   30DOPE  H17X 3865   6.265   0.649  15.143  0.7161 -0.6212 -0.4474
   30DOPE  H17Y 3866   6.198   0.514  15.037 -3.1625 -1.5353  1.9688
   30DOPE  C318 3867   6.187   0.724  14.962 -0.5530 -0.3145 -0.1494
   30DOPE  H18X 3868   6.189   0.823  15.013 -2.3711 -0.8268  0.9831
   30DOPE  H18Y 3869   6.281   0.723  14.902 -0.6895 -2.8567 -0.4015
   30DOPE  H18Z 3870   6.098   0.711  14.897 -0.7907 -1.1482  0.3358
   31DOPE     N 3871   4.518   3.982  12.132 -0.0915 -0.4424  0.8612
   31DOPE   HN1 3872   4.612   4.024  12.122 -0.3739 -0.1856 -0.9139
   31DOPE   HN2 3873   4.463   4.056  12.181 -0.4583  0.4442 -0.8372
   31DOPE   HN3 3874   4.537   3.908  12.204  0.3285  0.8781  2.1519
   31DOPE   C12 3875   4.451   3.943  11.998  0.0099  0.2851  0.1314
   31DOPE  H12A 3876   4.526   3.896  11.931  2.2772  2.5538  0.9225
   31DOPE  H12B 3877   4.410   4.037  11.955 -1.4440 -0.5037 -0.2541
   31DOPE   C11 3878   4.339   3.841  12.030  0.8317  0.1581  0.7052
   31DOPE  H11A 3879   4.371   3.754  12.092 -1.2898 -0.4766  0.9865
   31DOPE  H11B 3880   4.319   3.787  11.935 -0.6327 -0.6853  1.4538
   31DOPE     P 3881   4.164   3.911  12.218 -0.0165 -0.0205  0.0060
   31DOPE   O13 3882   4.017   3.944  12.215 -0.6955  0.0477  0.1494
   31DOPE   O14 3883   4.245   4.010  12.297 -0.3138  0.0012  0.1617
   31DOPE   O11 3884   4.190   3.764  12.277  0.3374 -0.4522  0.1824
   31DOPE   O12 3885   4.215   3.902  12.071  0.2657  0.1377 -0.3954
   31DOPE    C1 3886   4.087   3.666  12.274  0.4236 -0.1578 -0.5268
   31DOPE    HA 3887   4.144   3.572  12.271  0.3960 -0.2424  1.0504
   31DOPE    HB 3888   4.029   3.680  12.180  0.4813  1.0133 -0.4127
   31DOPE    C2 3889   3.987   3.678  12.394  0.3236  0.4309 -0.2180
   31DOPE    HS 3890   3.902   3.748  12.380  0.3457  0.3636 -0.7182
   31DOPE   O21 3891   4.059   3.695  12.515 -0.3649  0.0706 -0.1440
   31DOPE   C21 3892   4.008   3.780  12.605  0.0391  0.4145 -0.3726
   31DOPE   O22 3893   3.911   3.851  12.584  0.2020  0.3240 -0.1212
   31DOPE   C22 3894   4.094   3.777  12.724  0.0054 -0.3998 -0.0465
   31DOPE   H2R 3895   4.140   3.875  12.749  2.0337 -1.4138  0.4249
   31DOPE   H2S 3896   4.180   3.708  12.714 -0.9246 -1.3827 -1.9353
   31DOPE    C3 3897   3.908   3.539  12.402 -0.5381 -0.0106 -0.2478
   31DOPE    HX 3898   3.987   3.463  12.387  0.5586  0.9846  0.3651
   31DOPE    HY 3899   3.836   3.543  12.318  0.3684 -0.1022 -1.0351
   31DOPE   O31 3900   3.839   3.527  12.534 -0.8824  0.0593  0.1614
   31DOPE   C31 3901   3.786   3.405  12.543 -0.2508 -0.5145 -0.3755
   31DOPE   O32 3902   3.805   3.313  12.466  0.1557 -0.1663  0.0731
   31DOPE   C32 3903   3.699   3.394  12.670  0.5327 -0.7557 -0.1091
   31DOPE   H2X 3904   3.661   3.498  12.681  1.2277 -0.1626 -2.4796
   31DOPE   H2Y 3905   3.618   3.323  12.647 -1.8340  1.5753  0.5908
   31DOPE   C23 3906   4.028   3.732  12.846  0.2810  0.2149 -0.1601
   31DOPE   H3R 3907   3.987   3.629  12.841  2.4429 -0.7682  1.0998
   31DOPE   H3S 3908   3.944   3.799  12.875  1.1807  0.7618  1.3279
   31DOPE   C24 3909   4.125   3.727  12.966 -0.3449 -0.2040 -0.0856
   31DOPE   H4R 3910   4.173   3.827  12.977  1.3154 -0.7039 -2.1873
   31DOPE   H4S 3911   4.213   3.659  12.970  1.4455  2.0114  3.4113
   31DOPE   C25 3912   4.059   3.698  13.101  0.1003  0.7578 -0.1044
   31DOPE   H5R 3913   4.041   3.588  13.098  1.7586  0.3438  2.0282
   31DOPE   H5S 3914   3.964   3.756  13.104  0.0056  0.7807 -2.3268
   31DOPE   C26 3915   4.142   3.737  13.223  0.2736  0.3146  0.3616
   31DOPE   H6R 3916   4.185   3.838  13.203  2.0257 -0.6833 -1.2483
   31DOPE   H6S 3917   4.234   3.676  13.228  0.8934  1.1622 -0.3437
   31DOPE   C27 3918   4.062   3.747  13.353 -0.2479  0.0500  0.0390
   31DOPE   H7R 3919   3.974   3.812  13.329 -0.1152  0.1753 -0.1112
   31DOPE   H7S 3920   4.119   3.780  13.442 -0.1412 -2.6963  1.0724
   31DOPE   C28 3921   3.981   3.614  13.382  0.2570 -0.7413  0.9079
   31DOPE   H8R 3922   3.943   3.562  13.291  0.5121  0.9483 -0.2203
   31DOPE   H8S 3923   3.886   3.646  13.430 -0.1055  0.7047 -0.6645
   31DOPE   C29 3924   4.068   3.529  13.468  0.4945  0.1553 -0.1173
   31DOPE   H9R 3925   4.174   3.524  13.438  0.7269  1.2385  0.4754
   31DOPE  C210 3926   4.036   3.477  13.585 -1.1934 -0.4084 -0.2572
   31DOPE  H10R 3927   4.111   3.406  13.624  1.6193  1.5104 -1.8041
   31DOPE  C211 3928   3.908   3.487  13.662  0.5314 -0.1218 -0.0263
   31DOPE  H11R 3929   3.853   3.393  13.683 -1.3164  0.5861 -1.4263
   31DOPE  H11S 3930   3.838   3.552  13.605  2.4038  2.0854  0.0714
   31DOPE  C212 3931   3.943   3.563  13.788  0.0253 -0.4553  0.0059
   31DOPE  H12R 3932   3.851   3.573  13.851  0.4189  1.6309  0.3408
   31DOPE  H12S 3933   3.981   3.661  13.752  1.3189 -0.5948  0.9241
   31DOPE  C213 3934   4.038   3.494  13.888 -0.3279 -0.2654 -0.8140
   31DOPE  H13R 3935   4.060   3.577  13.959  1.5735 -1.4491  0.0662
   31DOPE  H13S 3936   4.137   3.469  13.844  1.0921  0.7768  1.5733
   31DOPE  C214 3937   3.984   3.370  13.957  0.1289 -0.0075 -0.4652
   31DOPE  H14R 3938   3.950   3.293  13.885  0.0788  0.5170 -1.0141
   31DOPE  H14S 3939   3.895   3.395  14.018  1.3348 -1.6311  2.1311
   31DOPE  C215 3940   4.093   3.304  14.043  0.1097  0.4411  0.3093
   31DOPE  H15R 3941   4.138   3.384  14.106 -0.8368  1.0114  0.2696
   31DOPE  H15S 3942   4.176   3.268  13.978 -0.3236  1.1224 -0.6486
   31DOPE  C216 3943   4.049   3.191  14.140  0.3272 -0.1937  0.4843
   31DOPE  H16R 3944   4.025   3.104  14.075 -0.5121 -0.9266  1.7459
   31DOPE  H16S 3945   3.956   3.204  14.198 -0.5698 -0.3869 -0.8660
   31DOPE  C217 3946   4.161   3.150  14.232 -0.6152  0.4502 -1.0837
   31DOPE  H17R 3947   4.120   3.073  14.301 -0.5976  0.6706 -0.8251
   31DOPE  H17S 3948   4.199   3.236  14.292  2.0391  1.0235 -3.4272
   31DOPE  C218 3949   4.282   3.093  14.156 -0.1890  0.1372 -0.1147
   31DOPE  H18R 3950   4.374   3.077  14.216  0.8306 -0.1729 -1.7108
   31DOPE  H18S 3951   4.313   3.170  14.082 -1.5006  1.2886  0.4813
   31DOPE  H18T 3952   4.252   3.004  14.098  0.0780  0.6179 -1.0119
   31DOPE   C33 3953   3.791   3.350  12.780  0.2196  0.2257  1.0147
   31DOPE   H3X 3954   3.881   3.414  12.789 -0.0423  0.6353  0.7187
   31DOPE   H3Y 3955   3.816   3.243  12.763 -0.9088  0.0964  0.0194
   31DOPE   C34 3956   3.721   3.345  12.917 -0.0704  0.4508  0.0686
   31DOPE   H4X 3957   3.665   3.440  12.936 -0.1307  0.4520 -0.1092
   31DOPE   H4Y 3958   3.644   3.266  12.907  3.0787 -2.7282 -1.4308
   31DOPE   C35 3959   3.818   3.322  13.029 -0.3895 -0.3559  0.4563
   31DOPE   H5X 3960   3.903   3.394  13.027 -0.4680 -0.2730 -0.0612
   31DOPE   H5Y 3961   3.864   3.224  13.007  1.9898  0.7394  0.2432
   31DOPE   C36 3962   3.738   3.308  13.161 -0.5323 -0.4557  0.0530
   31DOPE   H6X 3963   3.666   3.224  13.146 -1.5168  0.2077  0.9278
   31DOPE   H6Y 3964   3.675   3.396  13.183 -3.0026 -1.9394 -0.6434
   31DOPE   C37 3965   3.823   3.272  13.283 -0.0171  0.0224  0.3453
   31DOPE   H7X 3966   3.867   3.173  13.258 -2.0686 -0.3554 -2.1296
   31DOPE   H7Y 3967   3.912   3.336  13.302 -0.4334  0.5637  0.4766
   31DOPE   C38 3968   3.735   3.248  13.402  0.4832 -0.3736  0.5102
   31DOPE   H8X 3969   3.650   3.187  13.365  0.0764  1.7289 -2.3124
   31DOPE   H8Y 3970   3.687   3.344  13.431  1.4544  0.3507 -0.2158
   31DOPE   C39 3971   3.807   3.178  13.517 -0.3154  0.3405 -1.2443
   31DOPE   H9X 3972   3.916   3.177  13.502  0.1008 -0.4261  1.2878
   31DOPE  C310 3973   3.752   3.124  13.632 -1.1736 -0.3891 -0.5535
   31DOPE  H10X 3974   3.829   3.086  13.701 -0.3927  0.3705 -0.9899
   31DOPE  C311 3975   3.607   3.123  13.674  0.1429  0.1965  0.2330
   31DOPE  H11X 3976   3.556   3.182  13.595 -0.0211  0.8859  0.8393
   31DOPE  H11Y 3977   3.564   3.020  13.670 -0.1788  0.2446  1.8021
   31DOPE  C312 3978   3.581   3.194  13.809  0.1024  0.4172  0.4327
   31DOPE  H12X 3979   3.472   3.214  13.817  0.0133 -0.1960  0.8066
   31DOPE  H12Y 3980   3.631   3.294  13.805  1.4079 -0.2331  0.0101
   31DOPE  C313 3981   3.631   3.110  13.933  0.8620 -0.8546 -0.5334
   31DOPE  H13X 3982   3.566   3.020  13.933 -0.7650  0.2511 -2.4621
   31DOPE  H13Y 3983   3.741   3.097  13.928  1.4240  2.5276  0.4450
   31DOPE  C314 3984   3.594   3.191  14.063  0.1838  0.1340  0.3575
   31DOPE  H14X 3985   3.486   3.219  14.058 -0.2071 -1.2689  0.4265
   31DOPE  H14Y 3986   3.651   3.286  14.061  0.5246 -0.0853 -0.6038
   31DOPE  C315 3987   3.612   3.111  14.193 -0.4798  0.1416  0.5827
   31DOPE  H15X 3988   3.719   3.105  14.224 -0.1532  2.0973 -0.0849
   31DOPE  H15Y 3989   3.566   3.011  14.177 -0.4587  0.4969 -2.1727
   31DOPE  C316 3990   3.549   3.192  14.310 -0.2561  0.1736 -0.4121
   31DOPE  H16X 3991   3.445   3.221  14.284 -0.4162 -1.6098 -1.9553
   31DOPE  H16Y 3992   3.613   3.279  14.335 -0.1278 -0.0528  0.0647
   31DOPE  C317 3993   3.562   3.107  14.446 -0.5112  0.5642 -0.1139
   31DOPE  H17X 3994   3.495   3.162  14.515  0.1011  0.2488  0.7546
   31DOPE  H17Y 3995   3.520   3.008  14.417  0.8716  0.2098 -1.0525
   31DOPE  C318 3996   3.701   3.084  14.503 -0.0430 -0.4584  0.1123
   31DOPE  H18X 3997   3.762   3.177  14.506  0.4950 -0.8224  0.7587
   31DOPE  H18Y 3998   3.679   3.045  14.604 -2.1816 -0.4157 -0.3081
   31DOPE  H18Z 3999   3.761   3.009  14.446  1.2096  0.2621  0.4296
   32DOPE     N 4000   3.985   4.290  12.182  0.4148  0.1604  0.2186
   32DOPE   HN1 4001   4.037   4.249  12.262 -1.3654 -0.3017  1.2068
   32DOPE   HN2 4002   4.020   4.388  12.183 -0.0212  0.3394 -0.6430
   32DOPE   HN3 4003   3.883   4.299  12.202  0.2578  0.8905 -0.8504
   32DOPE   C12 4004   4.025   4.226  12.052 -0.3420  0.0500  0.5164
   32DOPE  H12A 4005   3.972   4.279  11.971 -0.5439  1.7792  1.7229
   32DOPE  H12B 4006   3.979   4.125  12.050  1.7626 -0.9585 -1.2964
   32DOPE   C11 4007   4.178   4.225  12.034 -0.5278  0.2484 -0.0978
   32DOPE  H11A 4008   4.182   4.161  11.943 -0.2422  1.7043 -1.1421
   32DOPE  H11B 4009   4.229   4.174  12.119 -1.4662 -2.2885 -0.9469
   32DOPE     P 4010   4.403   4.362  12.013 -0.0585  0.2297  0.6196
   32DOPE   O13 4011   4.434   4.505  12.021 -0.2481  0.4523 -0.2320
   32DOPE   O14 4012   4.446   4.295  11.888  0.2504  0.4381 -0.1161
   32DOPE   O11 4013   4.432   4.282  12.140  0.2808 -0.0896 -0.2315
   32DOPE   O12 4014   4.245   4.356  12.007 -0.0191  0.2024  0.1090
   32DOPE    C1 4015   4.399   4.327  12.265  0.2872 -0.2675  0.4217
   32DOPE    HA 4016   4.412   4.246  12.341  1.7830  0.8845  1.4716
   32DOPE    HB 4017   4.291   4.349  12.263  0.3729  0.2004  0.7862
   32DOPE    C2 4018   4.488   4.442  12.327  0.8510 -0.0246 -0.2172
   32DOPE    HS 4019   4.512   4.512  12.245 -0.4153 -0.8867 -1.3606
   32DOPE   O21 4020   4.607   4.385  12.391  0.2267 -0.1459  0.2211
   32DOPE   C21 4021   4.696   4.475  12.435  0.0175 -0.2773  0.4755
   32DOPE   O22 4022   4.694   4.595  12.408 -0.3911  0.0033 -0.0968
   32DOPE   C22 4023   4.806   4.402  12.511 -0.3066  0.6836 -0.2029
   32DOPE   H2R 4024   4.893   4.467  12.531 -0.1746  0.2537  0.6415
   32DOPE   H2S 4025   4.841   4.329  12.434 -0.5941  0.1405  0.1792
   32DOPE    C3 4026   4.409   4.522  12.434 -0.3208  0.0761 -0.3528
   32DOPE    HX 4027   4.316   4.553  12.382 -1.7640 -1.0431  1.4330
   32DOPE    HY 4028   4.459   4.617  12.462  0.2350 -0.1132 -0.6989
   32DOPE   O31 4029   4.363   4.441  12.542  0.0421 -0.0049 -0.1786
   32DOPE   C31 4030   4.435   4.457  12.653  0.2054  0.3271 -0.4638
   32DOPE   O32 4031   4.523   4.537  12.670 -1.2031 -0.0424 -0.4648
   32DOPE   C32 4032   4.386   4.364  12.762 -0.0119 -0.5269 -0.1858
   32DOPE   H2X 4033   4.283   4.331  12.738  0.6009 -0.5596 -3.0413
   32DOPE   H2Y 4034   4.460   4.281  12.766 -1.3409 -1.8483 -1.5963
   32DOPE   C23 4035   4.746   4.329  12.638 -0.2450 -0.5083  0.2002
   32DOPE   H3R 4036   4.656   4.269  12.614 -1.1712  1.3858 -1.3742
   32DOPE   H3S 4037   4.723   4.409  12.711 -0.3546 -1.1137  0.8388
   32DOPE   C24 4038   4.839   4.231  12.702 -0.7497 -0.0047 -0.0546
   32DOPE   H4R 4039   4.934   4.287  12.710 -0.1798 -0.7434 -1.4508
   32DOPE   H4S 4040   4.858   4.142  12.639  4.5687  0.7545  0.0852
   32DOPE   C25 4041   4.792   4.190  12.836 -0.2102  0.0567  0.2305
   32DOPE   H5R 4042   4.816   4.086  12.867  0.4156  0.5279  1.3977
   32DOPE   H5S 4043   4.682   4.184  12.822 -0.2571 -1.1881  0.9618
   32DOPE   C26 4044   4.824   4.293  12.947 -0.1577 -0.8733 -0.0240
   32DOPE   H6R 4045   4.804   4.400  12.928 -1.1970 -0.7172  1.7413
   32DOPE   H6S 4046   4.934   4.281  12.955  0.1090  1.8836  2.0076
   32DOPE   C27 4047   4.750   4.255  13.080 -0.4682  0.1764  0.2099
   32DOPE   H7R 4048   4.751   4.149  13.112 -0.2132  0.6618  1.9212
   32DOPE   H7S 4049   4.641   4.274  13.067 -0.2352  2.0121  0.6193
   32DOPE   C28 4050   4.806   4.319  13.215  0.1402 -0.9490  0.2205
   32DOPE   H8R 4051   4.915   4.328  13.196 -0.0680  0.9278 -0.2438
   32DOPE   H8S 4052   4.768   4.257  13.299 -1.0595  0.1741  0.5396
   32DOPE   C29 4053   4.755   4.460  13.229  0.0573 -0.1217  0.4646
   32DOPE   H9R 4054   4.772   4.526  13.143  0.1072 -1.9013 -0.9545
   32DOPE  C210 4055   4.678   4.503  13.328  0.5974  0.3787  0.2285
   32DOPE  H10R 4056   4.631   4.602  13.316  1.4857  0.6068 -1.6916
   32DOPE  C211 4057   4.631   4.427  13.451 -0.1726 -0.5342  0.1232
   32DOPE  H11R 4058   4.675   4.325  13.451  2.0748  0.3936  0.1392
   32DOPE  H11S 4059   4.523   4.398  13.449 -0.7119  1.0848  2.1633
   32DOPE  C212 4060   4.667   4.492  13.585  0.1056 -0.1444  0.0490
   32DOPE  H12R 4061   4.608   4.583  13.607 -0.5741 -0.3334 -0.8868
   32DOPE  H12S 4062   4.774   4.522  13.580  0.5480 -1.0197  2.7535
   32DOPE  C213 4063   4.644   4.398  13.706  0.1965  0.0181  0.3404
   32DOPE  H13R 4064   4.688   4.299  13.681 -1.2349 -0.6891  0.5075
   32DOPE  H13S 4065   4.538   4.379  13.734  0.0869 -0.3051 -0.2778
   32DOPE  C214 4066   4.723   4.455  13.824 -0.2352  0.0143 -0.9480
   32DOPE  H14R 4067   4.661   4.538  13.865 -1.0933 -1.7427  1.5268
   32DOPE  H14S 4068   4.818   4.504  13.793 -0.0517 -1.2290 -2.4364
   32DOPE  C215 4069   4.744   4.356  13.952 -0.0517  0.6467  0.6292
   32DOPE  H15R 4070   4.829   4.290  13.925 -0.8900 -0.9820  1.7943
   32DOPE  H15S 4071   4.656   4.291  13.967  1.6213 -1.4956  1.6631
   32DOPE  C216 4072   4.763   4.429  14.082  0.7554 -0.0551 -0.7794
   32DOPE  H16R 4073   4.824   4.521  14.075  1.7238 -0.4470  1.5626
   32DOPE  H16S 4074   4.816   4.352  14.142  0.6191  1.1712  0.9913
   32DOPE  C217 4075   4.627   4.459  14.149  0.4751  0.3922 -0.0530
   32DOPE  H17R 4076   4.574   4.363  14.164  2.1789 -0.5060  0.4782
   32DOPE  H17S 4077   4.560   4.519  14.083  0.4881 -1.0728 -1.4672
   32DOPE  C218 4078   4.648   4.522  14.288  0.1840  0.2021  0.0680
   32DOPE  H18R 4079   4.555   4.573  14.323  1.3855  1.0424  2.2153
   32DOPE  H18S 4080   4.734   4.592  14.289 -0.7150  1.4958 -2.3146
   32DOPE  H18T 4081   4.674   4.435  14.351 -1.1283 -0.4064 -0.1937
   32DOPE   C33 4082   4.388   4.431  12.904 -0.0151 -0.2438  0.0018
   32DOPE   H3X 4083   4.340   4.531  12.908  0.2510 -0.1441  3.0966
   32DOPE   H3Y 4084   4.496   4.433  12.933  0.2759 -1.7894 -0.8691
   32DOPE   C34 4085   4.308   4.342  13.010  0.2054  0.6018 -0.3224
   32DOPE   H4X 4086   4.334   4.382  13.111  1.3373 -0.3588 -0.2035
   32DOPE   H4Y 4087   4.198   4.348  13.004  0.0887 -1.4835 -0.8572
   32DOPE   C35 4088   4.351   4.195  13.011  0.2583 -0.2037  0.2931
   32DOPE   H5X 4089   4.456   4.186  12.976  0.4906  2.1524  0.2491
   32DOPE   H5Y 4090   4.296   4.130  12.940  0.3364  1.2670 -1.1525
   32DOPE   C36 4091   4.340   4.132  13.152 -0.7676  0.9334 -0.0795
   32DOPE   H6X 4092   4.236   4.096  13.162 -1.2264  2.3250  0.4727
   32DOPE   H6Y 4093   4.351   4.207  13.233 -2.1318  1.7340 -0.6090
   32DOPE   C37 4094   4.441   4.011  13.162  0.0769 -0.1087 -0.3283
   32DOPE   H7X 4095   4.409   3.925  13.101  0.4650  0.9183 -2.0594
   32DOPE   H7Y 4096   4.545   4.032  13.128 -0.0272  0.4643 -0.3084
   32DOPE   C38 4097   4.451   3.965  13.311 -0.2939 -0.4840 -0.3407
   32DOPE   H8X 4098   4.540   3.899  13.310 -0.1726 -0.3083 -1.5239
   32DOPE   H8Y 4099   4.374   3.889  13.335 -1.0318 -1.2211 -4.3563
   32DOPE   C39 4100   4.471   4.073  13.420  0.1994  0.4512 -0.5249
   32DOPE   H9X 4101   4.565   4.129  13.413 -0.2244  1.0439 -1.7811
   32DOPE  C310 4102   4.389   4.094  13.525  0.3422 -0.5461 -0.2356
   32DOPE  H10X 4103   4.423   4.165  13.602 -1.4896 -0.5498  0.6242
   32DOPE  C311 4104   4.256   4.022  13.538  0.2560 -0.9440 -0.2894
   32DOPE  H11X 4105   4.165   4.086  13.538  0.2084 -0.9893 -1.5520
   32DOPE  H11Y 4106   4.225   3.971  13.444 -2.7779 -0.0095  0.0721
   32DOPE  C312 4107   4.258   3.908  13.646  0.3888  0.3172  0.6381
   32DOPE  H12X 4108   4.339   3.843  13.606  1.1514  2.4281 -1.5320
   32DOPE  H12Y 4109   4.156   3.866  13.651 -0.6287  2.7502  1.5809
   32DOPE  C313 4110   4.294   3.956  13.793  0.2911  0.4345 -0.3106
   32DOPE  H13X 4111   4.404   3.966  13.808  0.4802  0.1491 -1.4898
   32DOPE  H13Y 4112   4.245   4.056  13.801  0.5231  0.5064  0.3558
   32DOPE  C314 4113   4.234   3.856  13.901  0.2133 -0.0223  0.3796
   32DOPE  H14X 4114   4.272   3.757  13.867 -0.7217 -0.5020  0.7107
   32DOPE  H14Y 4115   4.125   3.858  13.879  0.3592 -0.2425 -0.4104
   32DOPE  C315 4116   4.284   3.885  14.040 -0.0811  0.5417 -0.5446
   32DOPE  H15X 4117   4.393   3.908  14.035  1.1496 -4.0512  0.4628
   32DOPE  H15Y 4118   4.279   3.803  14.115 -3.0131  0.5815 -0.5729
   32DOPE  C316 4119   4.209   4.001  14.111  0.3761 -0.3659  0.7277
   32DOPE  H16X 4120   4.117   3.953  14.151  0.7301 -1.3029  0.4315
   32DOPE  H16Y 4121   4.196   4.077  14.031  1.4806 -0.5613  0.3569
   32DOPE  C317 4122   4.291   4.067  14.217 -0.0942  0.2601 -0.2539
   32DOPE  H17X 4123   4.206   4.115  14.270 -2.0457  0.2285 -3.1165
   32DOPE  H17Y 4124   4.345   3.996  14.284  1.5592 -0.2223 -2.0173
   32DOPE  C318 4125   4.388   4.173  14.165 -0.3158  0.0091  0.4954
   32DOPE  H18X 4126   4.325   4.241  14.103 -1.0159  1.2859  2.5140
   32DOPE  H18Y 4127   4.443   4.224  14.247 -0.6631  1.2658 -0.0180
   32DOPE  H18Z 4128   4.476   4.130  14.112 -0.9879 -1.8784  0.8507
   33DOPE     N 4129   3.685   3.069  12.057  0.0541  0.5180 -0.1057
   33DOPE   HN1 4130   3.686   3.006  11.975 -0.1746 -0.3064  0.5149
   33DOPE   HN2 4131   3.678   3.171  12.039 -2.7630  0.6132  1.1303
   33DOPE   HN3 4132   3.779   3.047  12.096 -0.2353 -0.3078  0.1353
   33DOPE   C12 4133   3.571   3.048  12.152 -0.1471 -0.4159  0.6428
   33DOPE  H12A 4134   3.479   3.077  12.098 -0.9609 -0.9335  1.7172
   33DOPE  H12B 4135   3.586   3.120  12.235  1.6622  1.5235 -1.2252
   33DOPE   C11 4136   3.571   2.907  12.186 -0.2161 -0.2768  0.8357
   33DOPE  H11A 4137   3.535   2.846  12.101 -0.3662 -0.2164  0.8564
   33DOPE  H11B 4138   3.495   2.895  12.267 -0.0033  0.8362  1.2254
   33DOPE     P 4139   3.720   2.707  12.263  0.5211 -0.4997  0.4348
   33DOPE   O13 4140   3.832   2.668  12.177 -0.1477 -0.0730 -0.2799
   33DOPE   O14 4141   3.594   2.633  12.229 -0.3586 -0.0417  0.2379
   33DOPE   O11 4142   3.751   2.696  12.411 -0.0403  0.4392 -0.0497
   33DOPE   O12 4143   3.704   2.864  12.232  0.1976 -0.3512  0.0024
   33DOPE    C1 4144   3.735   2.796  12.517  0.2300 -0.7764 -0.1577
   33DOPE    HA 4145   3.685   2.736  12.596 -0.8392 -2.4178 -1.9858
   33DOPE    HB 4146   3.660   2.873  12.489 -1.8359 -1.1579  3.6244
   33DOPE    C2 4147   3.859   2.872  12.555 -0.7723  0.4623 -0.0380
   33DOPE    HS 4148   3.923   2.896  12.467  0.7481 -0.0723  0.8810
   33DOPE   O21 4149   3.934   2.791  12.648 -0.5595 -0.7492 -0.5090
   33DOPE   C21 4150   4.062   2.822  12.660  0.3600 -0.2166  0.4386
   33DOPE   O22 4151   4.125   2.897  12.582  0.3155 -0.5559 -0.4820
   33DOPE   C22 4152   4.105   2.759  12.795  0.5418  0.1339 -0.0664
   33DOPE   H2R 4153   4.152   2.660  12.775 -0.8847 -0.3819 -0.9702
   33DOPE   H2S 4154   4.018   2.729  12.857 -1.2605  2.4759 -1.3385
   33DOPE    C3 4155   3.828   3.013  12.624  0.1946 -0.1357 -0.4067
   33DOPE    HX 4156   3.785   3.084  12.549 -0.1162  0.2827  0.1594
   33DOPE    HY 4157   3.922   3.062  12.657 -1.7985  2.0315  2.5599
   33DOPE   O31 4158   3.724   2.990  12.723 -0.1990 -0.2818  0.0675
   33DOPE   C31 4159   3.764   2.975  12.842  0.5967  0.3155  0.7365
   33DOPE   O32 4160   3.878   2.983  12.884  0.0853 -0.2140 -0.4807
   33DOPE   C32 4161   3.643   2.953  12.936  0.6288  0.0831  0.2961
   33DOPE   H2X 4162   3.576   3.041  12.935 -0.1983 -0.5286  0.6337
   33DOPE   H2Y 4163   3.597   2.859  12.898 -1.0614  0.1605  2.0078
   33DOPE   C23 4164   4.201   2.850  12.878  0.5409  0.2859  0.6829
   33DOPE   H3R 4165   4.150   2.948  12.878 -1.0024 -0.3330 -3.1227
   33DOPE   H3S 4166   4.297   2.864  12.825 -0.8545  0.9085 -1.8153
   33DOPE   C24 4167   4.222   2.804  13.021  0.3336  0.4348  0.0555
   33DOPE   H4R 4168   4.302   2.865  13.070  0.1207 -1.9391  3.7750
   33DOPE   H4S 4169   4.269   2.704  13.018  2.1768  1.2400  0.2980
   33DOPE   C25 4170   4.090   2.807  13.100  0.4186 -0.5738  1.5041
   33DOPE   H5R 4171   4.007   2.744  13.061 -0.5037  1.6721 -0.3774
   33DOPE   H5S 4172   4.048   2.909  13.105  0.3337 -0.3132 -2.0678
   33DOPE   C26 4173   4.119   2.774  13.250 -0.0675 -0.1763 -0.7288
   33DOPE   H6R 4174   4.201   2.835  13.293  0.5715 -1.5078 -0.0140
   33DOPE   H6S 4175   4.148   2.669  13.273  2.1855  1.0406  2.8666
   33DOPE   C27 4176   3.986   2.797  13.329  0.9173 -0.2267 -0.6177
   33DOPE   H7R 4177   3.905   2.733  13.287 -1.0818  2.1907 -0.7159
   33DOPE   H7S 4178   3.952   2.903  13.322  0.1324 -0.1171  2.8075
   33DOPE   C28 4179   3.998   2.766  13.479  0.1342 -0.5375 -0.1996
   33DOPE   H8R 4180   4.076   2.833  13.520  0.7554 -1.7543  0.6792
   33DOPE   H8S 4181   4.035   2.661  13.475 -2.8870 -1.7818  1.0403
   33DOPE   C29 4182   3.869   2.767  13.554  0.1054 -0.3072  0.2403
   33DOPE   H9R 4183   3.801   2.849  13.528  0.6169  0.4646  1.2688
   33DOPE  C210 4184   3.824   2.697  13.659 -0.5283 -0.6990  0.2027
   33DOPE  H10R 4185   3.736   2.737  13.712 -2.6777 -0.6212 -3.1493
   33DOPE  C211 4186   3.900   2.590  13.729 -0.5397 -0.8300 -0.2115
   33DOPE  H11R 4187   4.009   2.592  13.708 -0.5315 -4.2392 -1.0674
   33DOPE  H11S 4188   3.857   2.492  13.699 -0.8621 -0.5742 -0.5978
   33DOPE  C212 4189   3.884   2.605  13.881 -0.7275  0.1065  0.4943
   33DOPE  H12R 4190   3.965   2.538  13.917  1.1296  1.3287 -1.2521
   33DOPE  H12S 4191   3.785   2.570  13.918 -0.9952  0.4617  0.1231
   33DOPE  C213 4192   3.922   2.741  13.947  0.4447  0.5704 -0.1309
   33DOPE  H13R 4193   3.839   2.812  13.928 -0.6703 -0.3988  0.9379
   33DOPE  H13S 4194   4.014   2.767  13.891 -0.2479 -1.9219 -2.6430
   33DOPE  C214 4195   3.947   2.713  14.097  0.0645  0.0176  0.3695
   33DOPE  H14R 4196   4.022   2.631  14.103  0.9647  0.8338  0.4827
   33DOPE  H14S 4197   3.850   2.683  14.141 -0.3027  2.7350  1.6397
   33DOPE  C215 4198   4.007   2.825  14.177  1.0215  0.1515  0.7507
   33DOPE  H15R 4199   3.955   2.915  14.138 -0.3588  0.2369  2.6403
   33DOPE  H15S 4200   4.117   2.835  14.164  1.3162 -0.8839  2.1217
   33DOPE  C216 4201   3.965   2.822  14.328  0.3408 -0.6034 -0.1706
   33DOPE  H16R 4202   3.857   2.835  14.346  0.5564  0.7368  0.2821
   33DOPE  H16S 4203   4.006   2.917  14.370  1.3981 -0.8624 -0.5684
   33DOPE  C217 4204   4.029   2.710  14.412  0.2018 -0.1808 -0.6635
   33DOPE  H17R 4205   4.138   2.720  14.393  0.3931  0.3090  0.6330
   33DOPE  H17S 4206   3.997   2.609  14.380 -1.1898  0.1766 -0.4526
   33DOPE  C218 4207   3.991   2.731  14.557 -0.5082 -0.4308 -0.0315
   33DOPE  H18R 4208   4.023   2.829  14.596  1.1167 -1.3884  1.1917
   33DOPE  H18S 4209   4.032   2.654  14.626  1.5696 -1.4399 -2.2259
   33DOPE  H18T 4210   3.880   2.729  14.557 -0.5138 -0.6543  1.1914
   33DOPE   C33 4211   3.683   2.928  13.083 -0.0506 -0.0894  0.5456
   33DOPE   H3X 4212   3.774   2.986  13.110  2.1153 -1.3742 -3.2608
   33DOPE   H3Y 4213   3.719   2.823  13.090 -0.4951 -0.3824 -1.1719
   33DOPE   C34 4214   3.568   2.948  13.179 -0.1059  0.8678 -0.1328
   33DOPE   H4X 4215   3.552   3.057  13.194  3.3445  1.4864 -0.1280
   33DOPE   H4Y 4216   3.476   2.918  13.126 -0.1467 -0.3702  0.5954
   33DOPE   C35 4217   3.587   2.880  13.321  0.2868 -0.0196 -0.2211
   33DOPE   H5X 4218   3.653   2.947  13.380  0.7985 -1.8583  1.4099
   33DOPE   H5Y 4219   3.656   2.795  13.305  2.5693  0.4511  4.9892
   33DOPE   C36 4220   3.459   2.832  13.392  0.0649 -0.2429  0.0845
   33DOPE   H6X 4221   3.389   2.781  13.322 -0.4911  0.3941  0.1631
   33DOPE   H6Y 4222   3.407   2.926  13.421 -0.3087 -0.0759 -1.0944
   33DOPE   C37 4223   3.488   2.737  13.510  0.5600  0.2490  0.2971
   33DOPE   H7X 4224   3.530   2.648  13.459 -0.9244  0.8484 -2.1393
   33DOPE   H7Y 4225   3.569   2.785  13.569  1.5930  0.5366 -1.3142
   33DOPE   C38 4226   3.365   2.695  13.601  0.1095 -0.3292  0.4819
   33DOPE   H8X 4227   3.373   2.595  13.648  1.4032 -0.6336 -0.3471
   33DOPE   H8Y 4228   3.277   2.686  13.534  0.9028 -0.6529 -0.5346
   33DOPE   C39 4229   3.328   2.806  13.697  0.5038  0.4013  0.7551
   33DOPE   H9X 4230   3.234   2.856  13.669  0.5181  0.4552  0.8028
   33DOPE  C310 4231   3.373   2.822  13.819 -0.3164 -0.5249  0.6363
   33DOPE  H10X 4232   3.315   2.881  13.892  1.1221 -0.7674  2.0323
   33DOPE  C311 4233   3.479   2.739  13.879  0.1989 -0.4086  0.7185
   33DOPE  H11X 4234   3.491   2.641  13.828  1.1133 -0.7949  1.6371
   33DOPE  H11Y 4235   3.579   2.784  13.863  0.1539 -1.3553 -3.3082
   33DOPE  C312 4236   3.455   2.709  14.029 -0.3483 -0.2144 -0.3697
   33DOPE  H12X 4237   3.349   2.678  14.042 -0.0098 -0.9980  0.6923
   33DOPE  H12Y 4238   3.472   2.800  14.091  0.0870  0.0318 -0.8514
   33DOPE  C313 4239   3.555   2.613  14.080  0.4073  0.1183 -0.2896
   33DOPE  H13X 4240   3.556   2.529  14.007  2.7447 -2.5277  2.4916
   33DOPE  H13Y 4241   3.652   2.667  14.076  0.0941  0.6564 -0.6784
   33DOPE  C314 4242   3.520   2.556  14.219 -0.1056 -0.2061 -0.0309
   33DOPE  H14X 4243   3.571   2.458  14.225 -0.2190 -0.2294  0.6885
   33DOPE  H14Y 4244   3.411   2.533  14.216  0.1536 -1.6252  0.5255
   33DOPE  C315 4245   3.559   2.648  14.332 -0.8040  0.2577 -0.0194
   33DOPE  H15X 4246   3.528   2.754  14.324 -0.7909  0.1849 -1.1639
   33DOPE  H15Y 4247   3.669   2.663  14.331 -0.8996  1.0185 -1.4228
   33DOPE  C316 4248   3.520   2.586  14.471 -0.3429  0.6755  0.4281
   33DOPE  H16X 4249   3.578   2.491  14.473 -2.1225 -0.4440  1.0940
   33DOPE  H16Y 4250   3.410   2.576  14.461 -0.3995 -1.1156  2.2928
   33DOPE  C317 4251   3.563   2.685  14.579  0.3829 -0.3027 -0.3068
   33DOPE  H17X 4252   3.671   2.680  14.603  0.6586  0.5279 -1.3059
   33DOPE  H17Y 4253   3.537   2.788  14.546 -1.8197 -0.5429  0.5150
   33DOPE  C318 4254   3.474   2.664  14.707  0.3826  0.0698 -0.4618
   33DOPE  H18X 4255   3.368   2.693  14.689  0.1709  0.1379  0.8237
   33DOPE  H18Y 4256   3.464   2.554  14.719 -0.5241  0.3970  2.4376
   33DOPE  H18Z 4257   3.525   2.700  14.799 -1.5925 -0.3695  0.8706
   34DOPE     N 4258   3.440   4.085  11.896  0.0263  0.9684  0.1102
   34DOPE   HN1 4259   3.464   4.024  11.816  0.8382 -0.0689  1.1042
   34DOPE   HN2 4260   3.533   4.119  11.929  1.1023  0.1288 -1.9077
   34DOPE   HN3 4261   3.402   4.016  11.964  1.3437  0.7062  0.6145
   34DOPE   C12 4262   3.354   4.196  11.865  0.4798 -0.0541 -0.0824
   34DOPE  H12A 4263   3.254   4.152  11.843  0.1173  1.2315 -1.0895
   34DOPE  H12B 4264   3.390   4.245  11.772 -1.9406  0.2263 -0.9481
   34DOPE   C11 4265   3.356   4.303  11.979  0.1590 -0.6675 -0.3454
   34DOPE  H11A 4266   3.311   4.399  11.945 -0.1845 -0.5163  0.4952
   34DOPE  H11B 4267   3.462   4.321  12.006 -0.2448  0.2064  0.7293
   34DOPE     P 4268   3.131   4.255  12.112 -0.0713  0.2860  0.0826
   34DOPE   O13 4269   3.087   4.164  12.216  0.0051 -0.3466 -0.2995
   34DOPE   O14 4270   3.065   4.247  11.981 -0.0275  0.0408 -0.1196
   34DOPE   O11 4271   3.115   4.404  12.165  0.1843  0.3445 -0.7526
   34DOPE   O12 4272   3.282   4.244  12.091 -0.0507  0.4032  0.3926
   34DOPE    C1 4273   3.222   4.460  12.239 -0.7023 -0.4103 -0.1177
   34DOPE    HA 4274   3.214   4.571  12.238  1.5487 -0.1900  0.9134
   34DOPE    HB 4275   3.323   4.439  12.198 -1.2490 -2.1604 -0.6162
   34DOPE    C2 4276   3.242   4.415  12.386 -0.0614  0.0729 -0.4564
   34DOPE    HS 4277   3.256   4.305  12.391 -1.1498 -0.0220  0.9691
   34DOPE   O21 4278   3.120   4.452  12.458  0.3653  0.1995 -0.1413
   34DOPE   C21 4279   3.097   4.386  12.575 -1.0205 -0.0198 -0.1243
   34DOPE   O22 4280   3.143   4.275  12.599 -0.2338  0.1366 -0.0197
   34DOPE   C22 4281   2.989   4.456  12.640 -0.3433 -0.4587  0.0630
   34DOPE   H2R 4282   2.900   4.459  12.573  1.1508  2.5838 -2.0418
   34DOPE   H2S 4283   3.019   4.561  12.660 -1.0659 -0.1769 -0.2780
   34DOPE    C3 4284   3.364   4.476  12.444 -0.1694  0.6788  0.2103
   34DOPE    HX 4285   3.358   4.586  12.426  1.6759  0.5627 -1.3921
   34DOPE    HY 4286   3.462   4.449  12.400  0.8633  3.4249  0.5951
   34DOPE   O31 4287   3.372   4.459  12.589  0.2780 -0.2005 -0.4245
   34DOPE   C31 4288   3.436   4.359  12.637  0.7303  0.5649 -0.0041
   34DOPE   O32 4289   3.505   4.277  12.574  0.5239  0.4620 -0.1489
   34DOPE   C32 4290   3.425   4.370  12.794 -0.1983 -0.1841 -0.6856
   34DOPE   H2X 4291   3.490   4.452  12.829 -0.6125 -0.2811  0.3572
   34DOPE   H2Y 4292   3.320   4.400  12.813  0.2013  0.8640 -0.0641
   34DOPE   C23 4293   2.939   4.391  12.767  0.2995 -0.0593 -0.8246
   34DOPE   H3R 4294   2.954   4.281  12.769  1.6277  0.0775  2.6215
   34DOPE   H3S 4295   2.831   4.411  12.785 -0.1587 -2.7396 -0.1582
   34DOPE   C24 4296   3.030   4.422  12.894  0.3899 -0.1512 -0.0654
   34DOPE   H4R 4297   3.015   4.529  12.920 -3.1419 -0.5760  0.2708
   34DOPE   H4S 4298   3.138   4.399  12.883  0.2324 -0.7651 -0.4025
   34DOPE   C25 4299   2.979   4.341  13.015  0.3838 -0.0637  0.0195
   34DOPE   H5R 4300   3.000   4.232  13.006  1.0016 -0.1341  1.9630
   34DOPE   H5S 4301   2.871   4.364  13.016  0.9146  2.7068  1.0979
   34DOPE   C26 4302   3.033   4.392  13.153  0.4814  0.2856  0.0398
   34DOPE   H6R 4303   3.066   4.497  13.140  1.7075 -0.2233 -1.2169
   34DOPE   H6S 4304   3.122   4.332  13.183  0.5471  0.6264  0.5204
   34DOPE   C27 4305   2.925   4.390  13.263 -0.3485  0.1088  0.3544
   34DOPE   H7R 4306   2.890   4.286  13.277 -0.0077  0.2090  2.2122
   34DOPE   H7S 4307   2.841   4.450  13.220  1.2560  1.5259 -0.9641
   34DOPE   C28 4308   2.962   4.460  13.392  0.1531  0.5028  0.1675
   34DOPE   H8R 4309   2.873   4.474  13.458 -2.2670 -1.4594 -2.4047
   34DOPE   H8S 4310   2.982   4.565  13.361  1.7646 -0.5750 -2.8746
   34DOPE   C29 4311   3.073   4.396  13.470 -0.3358  0.9153  0.3241
   34DOPE   H9R 4312   3.170   4.427  13.428 -0.3017  0.0276 -0.2640
   34DOPE  C210 4313   3.067   4.320  13.577 -0.1067  1.0565 -0.2415
   34DOPE  H10R 4314   3.162   4.290  13.624  0.0729  2.9296  0.6911
   34DOPE  C211 4315   2.943   4.260  13.640 -0.1101  0.4714  0.0766
   34DOPE  H11R 4316   2.958   4.151  13.636  1.2244  0.5845  1.3453
   34DOPE  H11S 4317   2.851   4.267  13.578  0.9722 -3.8059 -2.4145
   34DOPE  C212 4318   2.935   4.298  13.789 -0.4349  0.0278 -0.7537
   34DOPE  H12R 4319   3.020   4.259  13.849 -0.2768  3.5599  1.6479
   34DOPE  H12S 4320   2.838   4.254  13.821 -0.4638 -0.2097 -1.1603
   34DOPE  C213 4321   2.927   4.448  13.815 -0.4039  0.6278  0.4060
   34DOPE  H13R 4322   2.857   4.484  13.736 -0.7509 -1.1346 -0.1452
   34DOPE  H13S 4323   3.024   4.496  13.793  1.1122 -0.6421  3.6887
   34DOPE  C214 4324   2.874   4.473  13.952 -0.3060 -0.4546 -0.1198
   34DOPE  H14R 4325   2.786   4.410  13.979 -1.4271  1.9894  2.4690
   34DOPE  H14S 4326   2.841   4.579  13.962 -2.9231 -1.1358 -0.6741
   34DOPE  C215 4327   2.981   4.467  14.064 -0.7600  0.4301 -0.4158
   34DOPE  H15R 4328   3.064   4.531  14.029  1.8958 -0.9792  2.7960
   34DOPE  H15S 4329   3.021   4.363  14.066 -3.0262 -0.5223 -0.5508
   34DOPE  C216 4330   2.936   4.517  14.205  0.0958  0.1522 -0.3583
   34DOPE  H16R 4331   2.867   4.442  14.251  0.1711  0.0304 -0.4452
   34DOPE  H16S 4332   2.877   4.610  14.189  0.7591  0.5314 -0.6225
   34DOPE  C217 4333   3.051   4.546  14.298  0.4364  1.1866 -0.0818
   34DOPE  H17R 4334   3.132   4.602  14.248 -0.3461 -0.1078 -3.0219
   34DOPE  H17S 4335   3.100   4.448  14.319 -1.0022  0.8546  2.0175
   34DOPE  C218 4336   3.013   4.610  14.430 -0.0766  0.8153 -0.8033
   34DOPE  H18R 4337   2.926   4.555  14.470  0.3357  0.0855 -0.8872
   34DOPE  H18S 4338   2.978   4.714  14.411 -0.2501  1.3608  2.0400
   34DOPE  H18T 4339   3.104   4.613  14.495  0.3301 -0.1948 -1.3010
   34DOPE   C33 4340   3.454   4.239  12.868 -0.8085 -0.6402  0.1276
   34DOPE   H3X 4341   3.562   4.215  12.864 -0.4096  0.9684  0.5151
   34DOPE   H3Y 4342   3.403   4.154  12.819  1.2387 -1.9805  0.2286
   34DOPE   C34 4343   3.417   4.245  13.020 -0.1697 -0.1443  0.5739
   34DOPE   H4X 4344   3.311   4.276  13.014  0.2501  1.1764 -0.6981
   34DOPE   H4Y 4345   3.415   4.143  13.064 -2.8043  0.2220  1.4856
   34DOPE   C35 4346   3.487   4.351  13.108 -0.4707  1.2274  0.0108
   34DOPE   H5X 4347   3.454   4.449  13.066 -2.2012  0.4543 -0.4951
   34DOPE   H5Y 4348   3.598   4.341  13.112 -0.4429 -0.5979 -2.8479
   34DOPE   C36 4349   3.441   4.350  13.256  0.2943  0.1355  0.2255
   34DOPE   H6X 4350   3.330   4.351  13.264  0.3965 -1.1529  2.8451
   34DOPE   H6Y 4351   3.476   4.429  13.325  3.1250 -0.2071 -0.7000
   34DOPE   C37 4352   3.488   4.223  13.335 -0.3319  0.6437  0.3410
   34DOPE   H7X 4353   3.453   4.125  13.297 -0.4900 -0.0535  2.2058
   34DOPE   H7Y 4354   3.597   4.231  13.321 -0.3555  0.5812  0.1159
   34DOPE   C38 4355   3.444   4.240  13.484  0.6318  0.1638 -1.0001
   34DOPE   H8X 4356   3.427   4.141  13.533  4.8285 -0.3954 -0.2662
   34DOPE   H8Y 4357   3.348   4.294  13.499 -0.0979 -1.0718 -1.0624
   34DOPE   C39 4358   3.545   4.308  13.571  0.3918 -0.2522  0.1053
   34DOPE   H9X 4359   3.646   4.270  13.554  0.5028  0.8908 -2.3235
   34DOPE  C310 4360   3.543   4.414  13.658  0.0668  0.1699 -0.6341
   34DOPE  H10X 4361   3.640   4.446  13.698 -0.5522  1.4303 -0.0918
   34DOPE  C311 4362   3.419   4.482  13.717 -0.0167  0.5426 -0.4028
   34DOPE  H11X 4363   3.418   4.593  13.711  0.9596  0.5545 -0.4797
   34DOPE  H11Y 4364   3.332   4.450  13.654  1.6108 -0.9882 -1.9922
   34DOPE  C312 4365   3.393   4.434  13.859 -0.2178 -0.2224 -0.7775
   34DOPE  H12X 4366   3.377   4.324  13.860 -0.2055 -0.3179 -3.6077
   34DOPE  H12Y 4367   3.304   4.496  13.885 -1.1289 -2.2301  1.2503
   34DOPE  C313 4368   3.501   4.484  13.966  0.1922  0.0698 -0.0288
   34DOPE  H13X 4369   3.601   4.476  13.918  0.3439  2.1846 -0.1433
   34DOPE  H13Y 4370   3.473   4.585  14.003 -3.3849 -1.9442  3.5453
   34DOPE  C314 4371   3.501   4.388  14.085  0.0366  0.1260  0.5132
   34DOPE  H14X 4372   3.577   4.311  14.062 -0.6351 -0.3538 -0.1474
   34DOPE  H14Y 4373   3.399   4.345  14.099  0.2020 -0.3258  0.3670
   34DOPE  C315 4374   3.549   4.443  14.225  0.2230  0.3158  0.1066
   34DOPE  H15X 4375   3.646   4.491  14.202  0.7827  0.0071  1.6734
   34DOPE  H15Y 4376   3.566   4.355  14.290  0.5973 -0.5893 -1.2008
   34DOPE  C316 4377   3.455   4.545  14.295  0.4721  0.6751  0.5112
   34DOPE  H16X 4378   3.367   4.484  14.326 -0.4699 -0.4786 -3.6867
   34DOPE  H16Y 4379   3.417   4.611  14.214  0.6894 -0.5618 -0.6425
   34DOPE  C317 4380   3.528   4.616  14.407 -0.0879  0.3914  0.4529
   34DOPE  H17X 4381   3.579   4.538  14.468 -2.0359 -0.6699  0.7991
   34DOPE  H17Y 4382   3.605   4.691  14.378 -0.6700  1.6920  2.0764
   34DOPE  C318 4383   3.427   4.694  14.496  0.5318  0.1011 -0.0328
   34DOPE  H18X 4384   3.476   4.737  14.585  0.2056  1.4537 -0.4871
   34DOPE  H18Y 4385   3.378   4.783  14.450  0.1420  1.2232  2.4069
   34DOPE  H18Z 4386   3.350   4.623  14.533 -1.6254  1.8293 -0.9686
   35DOPE     N 4387   6.165   3.626  11.813 -0.2126 -0.4040 -0.1819
   35DOPE   HN1 4388   6.158   3.700  11.740 -1.1485  2.2533  2.3913
   35DOPE   HN2 4389   6.238   3.649  11.883 -0.2724  3.0460 -1.0331
   35DOPE   HN3 4390   6.189   3.533  11.773 -1.4263 -1.3044  1.0707
   35DOPE   C12 4391   6.034   3.604  11.878 -0.2044 -0.3681 -0.9815
   35DOPE  H12A 4392   5.967   3.581  11.792 -2.5950 -0.0774  0.7154
   35DOPE  H12B 4393   5.996   3.693  11.932  1.3959  0.9939 -1.9869
   35DOPE   C11 4394   6.033   3.481  11.971  0.3458 -0.3638  0.1123
   35DOPE  H11A 4395   6.079   3.394  11.919  1.6273  0.9634 -1.0724
   35DOPE  H11B 4396   5.925   3.460  11.983  0.1251  0.5724 -0.1704
   35DOPE     P 4397   6.024   3.543  12.225 -0.0514 -0.5662  0.2221
   35DOPE   O13 4398   5.942   3.660  12.185 -0.0258  1.1286 -0.8010
   35DOPE   O14 4399   6.127   3.558  12.334 -0.2945  0.1382 -0.0205
   35DOPE   O11 4400   5.939   3.418  12.248  0.2199  0.7023  0.1067
   35DOPE   O12 4401   6.106   3.499  12.092 -0.4386  0.5912  0.2500
   35DOPE    C1 4402   5.802   3.405  12.233  0.3029  0.5064  0.5761
   35DOPE    HA 4403   5.795   3.301  12.197 -0.1829  1.2652 -1.6335
   35DOPE    HB 4404   5.769   3.468  12.148 -0.2720  0.1347  0.5261
   35DOPE    C2 4405   5.730   3.430  12.370  0.1372  0.2097  0.0185
   35DOPE    HS 4406   5.625   3.399  12.348  0.7845 -1.1102 -1.3563
   35DOPE   O21 4407   5.754   3.563  12.414 -0.0336  0.2317  0.4996
   35DOPE   C21 4408   5.680   3.648  12.351  0.4389  0.0361 -0.0981
   35DOPE   O22 4409   5.590   3.624  12.274 -0.1940  0.7841  0.0459
   35DOPE   C22 4410   5.701   3.792  12.395  0.2726 -0.3225 -0.5171
   35DOPE   H2R 4411   5.717   3.859  12.308 -0.4668  0.3074 -0.1766
   35DOPE   H2S 4412   5.795   3.787  12.455  0.1423 -4.0150 -0.3696
   35DOPE    C3 4413   5.801   3.329  12.475 -0.2652 -0.0873  0.1176
   35DOPE    HX 4414   5.905   3.365  12.461 -0.7373  1.7627  1.0769
   35DOPE    HY 4415   5.799   3.222  12.445  0.4579 -0.8798  2.6298
   35DOPE   O31 4416   5.753   3.364  12.612 -0.0330 -0.0391 -0.0058
   35DOPE   C31 4417   5.636   3.329  12.636  0.1604 -0.0457  0.4322
   35DOPE   O32 4418   5.554   3.282  12.555  0.1560  0.5181 -0.2025
   35DOPE   C32 4419   5.604   3.372  12.777 -0.6199  0.4429 -0.6139
   35DOPE   H2X 4420   5.679   3.319  12.840 -1.3458 -0.2265 -0.2986
   35DOPE   H2Y 4421   5.634   3.479  12.785  0.7458  0.1409 -1.3584
   35DOPE   C23 4422   5.576   3.835  12.480  0.6288  0.7274 -0.5047
   35DOPE   H3R 4423   5.477   3.811  12.435  0.8534  0.5473 -0.9035
   35DOPE   H3S 4424   5.575   3.946  12.491  0.4900  0.6008  1.1314
   35DOPE   C24 4425   5.579   3.770  12.623  0.3039 -0.2990 -0.2339
   35DOPE   H4R 4426   5.688   3.775  12.648  0.2457 -2.4266  0.6532
   35DOPE   H4S 4427   5.549   3.663  12.622  0.5300 -0.3627 -0.3892
   35DOPE   C25 4428   5.515   3.856  12.736  0.3524  0.1331 -0.6332
   35DOPE   H5R 4429   5.405   3.872  12.726 -0.4215  1.0726  5.5098
   35DOPE   H5S 4430   5.572   3.951  12.736 -0.1164  0.4200  0.2532
   35DOPE   C26 4431   5.546   3.799  12.875  0.2338 -0.1417 -0.1865
   35DOPE   H6R 4432   5.654   3.794  12.899  0.2219  0.6312  0.0528
   35DOPE   H6S 4433   5.521   3.691  12.872 -0.5826  0.0563 -0.7320
   35DOPE   C27 4434   5.479   3.865  12.999 -0.1447 -0.2816 -0.3122
   35DOPE   H7R 4435   5.373   3.859  12.967 -0.5433 -0.4045  1.0139
   35DOPE   H7S 4436   5.509   3.973  12.994  1.2918 -0.6521 -0.3234
   35DOPE   C28 4437   5.506   3.813  13.139 -0.2586  0.0229 -1.2968
   35DOPE   H8R 4438   5.614   3.824  13.164 -0.3297 -1.2497 -0.3709
   35DOPE   H8S 4439   5.478   3.706  13.145 -0.0414  0.0577  1.3812
   35DOPE   C29 4440   5.429   3.899  13.241  0.3942  0.3302 -0.3750
   35DOPE   H9R 4441   5.434   4.007  13.221  1.0129  1.0787  3.1004
   35DOPE  C210 4442   5.355   3.861  13.353 -0.1991 -0.1124  0.9571
   35DOPE  H10R 4443   5.318   3.938  13.421 -0.0760 -0.9104  1.9464
   35DOPE  C211 4444   5.364   3.724  13.406  0.2888 -0.8158 -0.1983
   35DOPE  H11R 4445   5.414   3.664  13.327 -0.3980  1.1338 -2.2133
   35DOPE  H11S 4446   5.262   3.687  13.432 -0.2806  1.5734  1.2852
   35DOPE  C212 4447   5.442   3.719  13.535 -0.0503  0.3585 -0.7069
   35DOPE  H12R 4448   5.531   3.785  13.539 -0.9491  1.6512 -1.2300
   35DOPE  H12S 4449   5.474   3.616  13.561  1.0110  0.5680 -1.1347
   35DOPE  C213 4450   5.355   3.765  13.661 -0.0558  0.0617  0.0739
   35DOPE  H13R 4451   5.268   3.698  13.678  1.8038 -2.0484  1.8870
   35DOPE  H13S 4452   5.310   3.865  13.644  0.3321  0.1602 -0.3886
   35DOPE  C214 4453   5.438   3.786  13.790 -0.1887 -0.1733  0.4015
   35DOPE  H14R 4454   5.523   3.851  13.761 -1.1052  1.4805  1.3110
   35DOPE  H14S 4455   5.482   3.689  13.822  4.4126  1.9490  1.2668
   35DOPE  C215 4456   5.349   3.843  13.899  0.4128 -0.3180 -0.0732
   35DOPE  H15R 4457   5.259   3.780  13.911 -0.7735  0.7965 -2.4380
   35DOPE  H15S 4458   5.327   3.945  13.861  2.1765  0.9439  2.0750
   35DOPE  C216 4459   5.403   3.851  14.039  0.1664  1.2912  0.1126
   35DOPE  H16R 4460   5.498   3.908  14.030  0.4482  0.9023  0.5243
   35DOPE  H16S 4461   5.425   3.748  14.077 -0.6521  1.4245  0.9781
   35DOPE  C217 4462   5.308   3.918  14.140 -0.6876 -0.6115 -0.0277
   35DOPE  H17R 4463   5.218   3.855  14.155  0.1393 -2.0931 -1.0398
   35DOPE  H17S 4464   5.270   4.013  14.097  1.9559  0.7866  0.5468
   35DOPE  C218 4465   5.376   3.965  14.269  0.0283  0.3255  0.5264
   35DOPE  H18R 4466   5.437   4.057  14.253 -1.2580  0.9878 -0.8026
   35DOPE  H18S 4467   5.443   3.884  14.304 -1.3145 -0.1709  2.0563
   35DOPE  H18T 4468   5.307   3.980  14.355  0.7541  1.3007  0.9622
   35DOPE   C33 4469   5.456   3.357  12.810 -0.1013  0.1706  0.2108
   35DOPE   H3X 4470   5.436   3.247  12.813  0.4095 -0.0283 -2.1896
   35DOPE   H3Y 4471   5.398   3.402  12.727  1.0415  1.4446  0.0684
   35DOPE   C34 4472   5.411   3.427  12.944  0.1347  0.0928  0.4766
   35DOPE   H4X 4473   5.471   3.519  12.953 -2.1140  1.8650 -1.2532
   35DOPE   H4Y 4474   5.308   3.469  12.936  0.3436  0.3240 -1.7676
   35DOPE   C35 4475   5.451   3.338  13.056  0.3538 -0.1006 -0.3207
   35DOPE   H5X 4476   5.558   3.314  13.040  0.8539  0.6111  1.7022
   35DOPE   H5Y 4477   5.390   3.246  13.039 -1.3391  1.3612 -2.9868
   35DOPE   C36 4478   5.445   3.407  13.196  0.1231  0.1768 -0.1582
   35DOPE   H6X 4479   5.350   3.462  13.208 -0.6578 -1.5187  2.0537
   35DOPE   H6Y 4480   5.534   3.474  13.195 -0.2008  0.7461  2.1265
   35DOPE   C37 4481   5.468   3.316  13.314  0.7951 -0.2717  0.5388
   35DOPE   H7X 4482   5.375   3.257  13.329  0.1326 -0.7846 -4.1438
   35DOPE   H7Y 4483   5.543   3.237  13.295  0.5604  0.3314 -3.8013
   35DOPE   C38 4484   5.506   3.398  13.438 -0.5797  0.4227  0.0770
   35DOPE   H8X 4485   5.407   3.438  13.468 -1.0087 -0.6578  0.1233
   35DOPE   H8Y 4486   5.583   3.474  13.411 -0.8909  0.4224 -0.8684
   35DOPE   C39 4487   5.565   3.304  13.539 -0.1704  0.3403  0.4684
   35DOPE   H9X 4488   5.652   3.251  13.498 -1.5111 -1.1026 -0.6464
   35DOPE  C310 4489   5.520   3.271  13.656 -0.2562 -0.1638 -0.1328
   35DOPE  H10X 4490   5.592   3.210  13.713  1.1473  1.5404  0.0001
   35DOPE  C311 4491   5.421   3.346  13.731 -0.3778  0.1165  0.0984
   35DOPE  H11X 4492   5.424   3.451  13.695  0.5787 -0.1481 -0.6319
   35DOPE  H11Y 4493   5.320   3.302  13.717  0.1407 -2.7969  3.8669
   35DOPE  C312 4494   5.461   3.347  13.881 -0.3712 -0.0964 -0.0695
   35DOPE  H12X 4495   5.553   3.410  13.889  0.1459 -0.3650 -2.9118
   35DOPE  H12Y 4496   5.479   3.251  13.933  1.0537  1.4965  2.6655
   35DOPE  C313 4497   5.355   3.408  13.973  0.4105  0.0668  0.6566
   35DOPE  H13X 4498   5.315   3.487  13.906  2.6400 -0.0173 -0.8967
   35DOPE  H13Y 4499   5.267   3.343  13.992  0.5357 -0.3989 -0.2904
   35DOPE  C314 4500   5.413   3.451  14.103 -0.6411 -0.4586 -0.5038
   35DOPE  H14X 4501   5.348   3.534  14.139  0.6731  0.7117 -0.7671
   35DOPE  H14Y 4502   5.509   3.506  14.101 -0.7819 -0.1882 -3.3218
   35DOPE  C315 4503   5.416   3.348  14.219  0.3629 -1.0538  0.4490
   35DOPE  H15X 4504   5.476   3.260  14.187 -1.4885 -1.5913 -1.7841
   35DOPE  H15Y 4505   5.311   3.325  14.249 -0.1025  2.7953  2.4584
   35DOPE  C316 4506   5.473   3.406  14.348 -0.0752  0.5739 -0.4143
   35DOPE  H16X 4507   5.433   3.505  14.378  0.1413  0.6428 -0.3458
   35DOPE  H16Y 4508   5.581   3.423  14.324  0.1656 -0.4588 -0.1194
   35DOPE  C317 4509   5.447   3.314  14.467  0.0553  0.5496  0.8852
   35DOPE  H17X 4510   5.477   3.369  14.558  0.7195 -1.0028  1.6260
   35DOPE  H17Y 4511   5.340   3.284  14.472 -0.2282  1.2846 -0.2022
   35DOPE  C318 4512   5.536   3.189  14.462 -0.2516  0.0272  0.4200
   35DOPE  H18X 4513   5.521   3.134  14.558  1.8880  1.1465  1.4471
   35DOPE  H18Y 4514   5.509   3.133  14.370 -3.7707  1.7285  0.2320
   35DOPE  H18Z 4515   5.641   3.219  14.447  0.6327 -3.6054 -2.0704
   36DOPE     N 4516   4.930   4.639  12.006  0.2845 -0.1314  0.1598
   36DOPE   HN1 4517   4.968   4.719  12.060 -0.2974 -0.0096  0.3925
   36DOPE   HN2 4518   5.013   4.601  11.955  0.4967  0.9526 -0.3420
   36DOPE   HN3 4519   4.863   4.667  11.932  0.2885 -0.8077 -0.1067
   36DOPE   C12 4520   4.879   4.543  12.112  0.2530 -0.1434  0.5739
   36DOPE  H12A 4521   4.797   4.594  12.167 -1.1723 -1.0523 -0.6179
   36DOPE  H12B 4522   4.964   4.521  12.180  1.0587 -3.2463 -1.2318
   36DOPE   C11 4523   4.824   4.413  12.057 -0.1555  0.7588  0.2817
   36DOPE  H11A 4524   4.899   4.370  11.988 -0.1644  0.7432  0.2823
   36DOPE  H11B 4525   4.733   4.428  11.995 -1.4226  0.8184  2.0803
   36DOPE     P 4526   4.845   4.167  12.166  0.0578  0.1537 -0.0737
   36DOPE   O13 4527   4.758   4.090  12.075 -0.3294 -0.1753 -0.4160
   36DOPE   O14 4528   4.850   4.118  12.307 -0.0672  0.0438 -0.1683
   36DOPE   O11 4529   4.992   4.162  12.100 -0.2713  0.6025 -0.1155
   36DOPE   O12 4530   4.797   4.320  12.165  0.1811 -0.4473  0.3002
   36DOPE    C1 4531   5.101   4.096  12.171 -0.1908 -0.5834 -0.0989
   36DOPE    HA 4532   5.187   4.073  12.105 -0.0055  1.4541 -0.6164
   36DOPE    HB 4533   5.056   4.004  12.215 -0.1770 -0.6265 -0.1744
   36DOPE    C2 4534   5.154   4.185  12.290 -0.4071  0.4543 -0.2187
   36DOPE    HS 4535   5.075   4.189  12.367 -0.9781  0.4575 -0.7942
   36DOPE   O21 4536   5.191   4.315  12.236 -0.0205 -0.0275 -0.2195
   36DOPE   C21 4537   5.207   4.414  12.326 -0.0088 -0.0532 -0.5386
   36DOPE   O22 4538   5.201   4.403  12.447 -0.1953  0.2296  0.5800
   36DOPE   C22 4539   5.208   4.553  12.266 -0.3879  0.5261  0.2648
   36DOPE   H2R 4540   5.112   4.603  12.292 -0.8991  0.6890 -1.7641
   36DOPE   H2S 4541   5.204   4.552  12.155  0.8038  0.5001  0.2046
   36DOPE    C3 4542   5.271   4.110  12.360  0.4149 -0.1851 -0.1747
   36DOPE    HX 4543   5.352   4.126  12.285  0.9454 -0.9808  0.2117
   36DOPE    HY 4544   5.268   3.999  12.370  0.2912 -0.1478  0.2170
   36DOPE   O31 4545   5.325   4.168  12.481 -0.1906  0.3144  0.1548
   36DOPE   C31 4546   5.253   4.139  12.591  0.3382  0.2014 -0.4057
   36DOPE   O32 4547   5.162   4.059  12.592  0.0770  0.4816 -0.3273
   36DOPE   C32 4548   5.310   4.209  12.710  0.0544  0.0122  0.4675
   36DOPE   H2X 4549   5.420   4.210  12.695 -0.0625  0.4130 -0.4742
   36DOPE   H2Y 4550   5.287   4.318  12.703  0.4621  0.2797  2.6330
   36DOPE   C23 4551   5.325   4.638  12.318  0.1251  0.1654  0.2331
   36DOPE   H3R 4552   5.314   4.639  12.428 -2.7268 -0.7988  0.0213
   36DOPE   H3S 4553   5.308   4.740  12.277  1.6188  0.3504  0.0115
   36DOPE   C24 4554   5.475   4.600  12.280  0.5375  0.7427 -0.8352
   36DOPE   H4R 4555   5.477   4.588  12.170  0.5815 -0.4060 -0.7131
   36DOPE   H4S 4556   5.498   4.505  12.332 -0.3049  1.6182  1.2660
   36DOPE   C25 4557   5.567   4.712  12.333 -0.3898  0.4359 -0.3747
   36DOPE   H5R 4558   5.542   4.807  12.281  0.8951  0.2588 -1.3439
   36DOPE   H5S 4559   5.668   4.685  12.296  0.0790 -1.0195  1.7664
   36DOPE   C26 4560   5.570   4.729  12.491  0.6006  0.2466 -0.4223
   36DOPE   H6R 4561   5.466   4.753  12.523  0.5905 -1.7243  1.3013
   36DOPE   H6S 4562   5.636   4.815  12.516 -0.9302  1.5907 -0.8104
   36DOPE   C27 4563   5.612   4.596  12.561  0.4666 -0.6587  0.6810
   36DOPE   H7R 4564   5.713   4.578  12.519 -0.4047  0.7466 -2.3050
   36DOPE   H7S 4565   5.552   4.508  12.530  2.5845 -2.1366  0.6193
   36DOPE   C28 4566   5.623   4.601  12.715 -0.7669 -0.0813  0.3584
   36DOPE   H8R 4567   5.692   4.684  12.741 -1.5827  0.5160  0.6544
   36DOPE   H8S 4568   5.656   4.496  12.729 -1.0286 -0.4177 -1.3524
   36DOPE   C29 4569   5.493   4.629  12.784 -0.3396  0.0116 -0.6977
   36DOPE   H9R 4570   5.416   4.665  12.715 -0.3369 -1.6597 -1.6196
   36DOPE  C210 4571   5.469   4.621  12.915 -0.3238  0.0298  0.0235
   36DOPE  H10R 4572   5.372   4.644  12.962 -0.4639 -1.7272  0.6965
   36DOPE  C211 4573   5.578   4.574  13.013 -0.4812 -0.1019  0.6755
   36DOPE  H11R 4574   5.675   4.551  12.963  1.0459 -0.7373  3.6394
   36DOPE  H11S 4575   5.548   4.484  13.071 -0.6425 -0.1033  0.5897
   36DOPE  C212 4576   5.619   4.681  13.124  0.6079  0.7844 -0.1240
   36DOPE  H12R 4577   5.615   4.781  13.076 -2.7433  0.7811 -0.1449
   36DOPE  H12S 4578   5.725   4.664  13.153  0.4634  0.3217  0.1596
   36DOPE  C213 4579   5.530   4.681  13.247  0.8599 -0.0699  0.3220
   36DOPE  H13R 4580   5.423   4.678  13.216  0.4681  0.3381  1.5338
   36DOPE  H13S 4581   5.545   4.779  13.298 -1.1461 -0.0043  0.9063
   36DOPE  C214 4582   5.567   4.567  13.339  0.9630 -0.7954 -0.0701
   36DOPE  H14R 4583   5.677   4.578  13.348  0.8674  0.0339  0.1878
   36DOPE  H14S 4584   5.532   4.479  13.282 -0.9076 -1.0127  1.3214
   36DOPE  C215 4585   5.492   4.569  13.475 -0.5608 -0.9865  0.2581
   36DOPE  H15R 4586   5.520   4.483  13.540  0.7696  0.0235  1.0876
   36DOPE  H15S 4587   5.384   4.582  13.456 -0.4869  0.2676  0.6073
   36DOPE  C216 4588   5.538   4.698  13.548  0.0987 -0.1030 -1.0208
   36DOPE  H16R 4589   5.518   4.787  13.486 -0.8646  0.2599 -0.2069
   36DOPE  H16S 4590   5.649   4.689  13.559 -0.1152 -0.4483  1.2662
   36DOPE  C217 4591   5.480   4.720  13.686  0.2225  0.1495 -0.4386
   36DOPE  H17R 4592   5.373   4.723  13.656  0.1213  0.0546 -0.0936
   36DOPE  H17S 4593   5.522   4.819  13.714  2.3700 -0.3403 -1.6703
   36DOPE  C218 4594   5.507   4.607  13.795 -0.0716 -0.0993 -0.7301
   36DOPE  H18R 4595   5.437   4.523  13.776  1.6644 -1.6095 -0.7137
   36DOPE  H18S 4596   5.493   4.651  13.896 -0.5681  0.4012 -1.0163
   36DOPE  H18T 4597   5.606   4.561  13.773  0.2878  0.8914 -1.2580
   36DOPE   C33 4598   5.254   4.180  12.848 -0.2854 -0.5501  0.0501
   36DOPE   H3X 4599   5.316   4.095  12.886 -1.3251 -2.8519 -2.9561
   36DOPE   H3Y 4600   5.145   4.162  12.854 -0.4471  0.0603 -0.8872
   36DOPE   C34 4601   5.270   4.296  12.950  0.0812 -0.0168 -0.2233
   36DOPE   H4X 4602   5.374   4.336  12.946  0.2723 -0.5560 -0.7996
   36DOPE   H4Y 4603   5.196   4.375  12.927  0.0901  0.0851  0.0903
   36DOPE   C35 4604   5.229   4.257  13.093  0.4274 -0.0116 -0.2155
   36DOPE   H5X 4605   5.300   4.175  13.118 -1.0401 -1.4011 -0.4967
   36DOPE   H5Y 4606   5.132   4.204  13.099  1.2387 -1.7955 -1.9024
   36DOPE   C36 4607   5.251   4.367  13.203  0.1173  0.6697  1.0343
   36DOPE   H6X 4608   5.162   4.434  13.215 -2.1781 -1.6833 -1.3672
   36DOPE   H6Y 4609   5.334   4.428  13.163 -0.8395  0.2302 -1.8694
   36DOPE   C37 4610   5.291   4.300  13.335 -0.4569  0.3007 -0.3436
   36DOPE   H7X 4611   5.357   4.216  13.304 -0.9911  0.2582 -1.4312
   36DOPE   H7Y 4612   5.352   4.368  13.396  1.5423 -1.1738 -0.5919
   36DOPE   C38 4613   5.175   4.233  13.417  0.0426  0.4466 -0.2241
   36DOPE   H8X 4614   5.224   4.175  13.498  1.2650  0.4960 -0.8998
   36DOPE   H8Y 4615   5.119   4.163  13.352 -1.3146  0.0121  1.3686
   36DOPE   C39 4616   5.078   4.332  13.473 -0.3746 -0.8515  0.4686
   36DOPE   H9X 4617   5.030   4.394  13.396 -1.0735 -2.1686 -0.1928
   36DOPE  C310 4618   5.057   4.356  13.603 -0.8121 -0.2936 -0.2988
   36DOPE  H10X 4619   4.991   4.440  13.629 -2.5662 -1.1040 -1.9114
   36DOPE  C311 4620   5.127   4.293  13.718 -0.1982 -0.0419 -0.6362
   36DOPE  H11X 4621   5.080   4.200  13.757  1.3520  0.1338  1.8204
   36DOPE  H11Y 4622   5.231   4.264  13.695  0.6043  1.3377  1.0402
   36DOPE  C312 4623   5.132   4.384  13.846  0.2029 -0.1061  0.4820
   36DOPE  H12X 4624   5.028   4.416  13.867  0.1802 -0.0195  0.2423
   36DOPE  H12Y 4625   5.180   4.479  13.811 -2.4420  1.5159  0.9714
   36DOPE  C313 4626   5.199   4.329  13.968  0.6413 -0.5613  0.4862
   36DOPE  H13X 4627   5.173   4.223  13.985  2.1902 -1.2567 -1.2282
   36DOPE  H13Y 4628   5.309   4.331  13.948  0.8108 -1.9711  1.1311
   36DOPE  C314 4629   5.162   4.401  14.104 -0.0618 -0.3486  0.0008
   36DOPE  H14X 4630   5.053   4.390  14.123 -0.2235  0.2954 -0.5070
   36DOPE  H14Y 4631   5.184   4.510  14.108 -1.2657 -0.1214  2.9298
   36DOPE  C315 4632   5.242   4.350  14.224  0.9578  0.0217 -0.0738
   36DOPE  H15X 4633   5.350   4.362  14.202  0.9172  0.0937 -0.2390
   36DOPE  H15Y 4634   5.218   4.242  14.234 -2.0467  0.6681  0.8409
   36DOPE  C316 4635   5.209   4.421  14.357  0.2488  0.8648  0.7531
   36DOPE  H16X 4636   5.106   4.397  14.389  0.1107 -1.4375 -1.1297
   36DOPE  H16Y 4637   5.210   4.530  14.339 -2.8777  1.1715  1.9452
   36DOPE  C317 4638   5.312   4.384  14.455  0.5144  0.5444 -0.5673
   36DOPE  H17X 4639   5.322   4.273  14.451 -0.3368  0.4109  0.5608
   36DOPE  H17Y 4640   5.412   4.418  14.422  0.4014 -0.4809 -2.0831
   36DOPE  C318 4641   5.284   4.432  14.598  0.1128  0.6618  0.1348
   36DOPE  H18X 4642   5.183   4.392  14.620  0.6351 -0.4573  0.5859
   36DOPE  H18Y 4643   5.350   4.397  14.681 -0.5227  0.0633  0.3944
   36DOPE  H18Z 4644   5.284   4.542  14.611  1.3774  0.5498  1.3633
   37DOPE     N 4645   2.668   2.898  12.214 -0.3366 -0.0829  0.5235
   37DOPE   HN1 4646   2.571   2.877  12.243 -0.7813 -0.5870 -1.1878
   37DOPE   HN2 4647   2.717   2.808  12.198 -4.9814 -2.5589 -1.8176
   37DOPE   HN3 4648   2.733   2.943  12.282  2.0711 -3.0708  0.4188
   37DOPE   C12 4649   2.652   2.982  12.093  0.2806 -0.3986  0.6140
   37DOPE  H12A 4650   2.595   3.072  12.123 -0.8985 -1.4548  1.6638
   37DOPE  H12B 4651   2.593   2.929  12.015  0.2573  0.1650  0.2439
   37DOPE   C11 4652   2.794   3.014  12.039  0.8319 -0.2599  0.6750
   37DOPE  H11A 4653   2.791   3.033  11.929  1.1648 -0.0492  0.6999
   37DOPE  H11B 4654   2.854   2.921  12.044 -0.8175 -1.5315 -1.3525
   37DOPE     P 4655   2.867   3.260  12.047 -0.2613 -0.0595  0.2915
   37DOPE   O13 4656   2.739   3.292  11.982  0.1157 -0.2921 -0.1611
   37DOPE   O14 4657   2.983   3.263  11.952 -0.5594  0.2990  0.3038
   37DOPE   O11 4658   2.902   3.363  12.169  0.0442 -0.1536  0.1426
   37DOPE   O12 4659   2.863   3.117  12.112 -0.1180  0.4673  0.3302
   37DOPE    C1 4660   2.907   3.336  12.305 -0.6169  0.4311 -0.2224
   37DOPE    HA 4661   2.971   3.248  12.326 -1.7708 -0.5605 -0.7153
   37DOPE    HB 4662   2.803   3.307  12.334 -0.0892  0.1251  1.4710
   37DOPE    C2 4663   2.969   3.458  12.376  0.6765 -0.5941  0.5073
   37DOPE    HS 4664   2.967   3.539  12.301  0.8746 -2.7337 -1.9496
   37DOPE   O21 4665   3.109   3.436  12.404 -0.6645  0.0396 -0.6557
   37DOPE   C21 4666   3.205   3.509  12.345 -0.5135 -0.2604 -0.1533
   37DOPE   O22 4667   3.189   3.599  12.268  0.1906 -0.3886  0.2902
   37DOPE   C22 4668   3.343   3.465  12.410  0.5350 -0.3161 -0.0775
   37DOPE   H2R 4669   3.393   3.392  12.344 -0.2765 -2.1310  1.2462
   37DOPE   H2S 4670   3.320   3.425  12.511 -1.8317  1.2401  0.0801
   37DOPE    C3 4671   2.890   3.489  12.503  0.3371 -0.3499 -0.7489
   37DOPE    HX 4672   2.899   3.409  12.580 -1.7915  0.5699  0.5144
   37DOPE    HY 4673   2.783   3.484  12.475  0.1977 -0.3087 -0.2339
   37DOPE   O31 4674   2.919   3.624  12.555 -0.6815 -0.3137  0.8404
   37DOPE   C31 4675   2.980   3.638  12.673 -0.4674  0.2811  0.3690
   37DOPE   O32 4676   2.996   3.554  12.757 -0.1541  0.2505 -0.6602
   37DOPE   C32 4677   3.024   3.788  12.679  0.0201  0.1637  0.1513
   37DOPE   H2X 4678   3.071   3.804  12.579 -0.2114  0.9993  0.1639
   37DOPE   H2Y 4679   2.929   3.846  12.684  0.3158  1.0301 -2.3840
   37DOPE   C23 4680   3.445   3.583  12.432  0.4612 -0.0839 -0.2029
   37DOPE   H3R 4681   3.456   3.649  12.344 -1.3043 -0.4123 -0.7022
   37DOPE   H3S 4682   3.544   3.541  12.461  0.5448  1.5566  2.2235
   37DOPE   C24 4683   3.397   3.670  12.550 -0.1250  0.8341  0.5267
   37DOPE   H4R 4684   3.403   3.600  12.636  1.3582  0.7806  0.4081
   37DOPE   H4S 4685   3.290   3.698  12.555 -0.2783  0.4260 -0.2733
   37DOPE   C25 4686   3.496   3.784  12.585 -0.0373 -0.0601 -0.5043
   37DOPE   H5R 4687   3.472   3.873  12.523  1.0609  1.1595  0.7608
   37DOPE   H5S 4688   3.601   3.751  12.574 -0.0251  0.0369 -0.6853
   37DOPE   C26 4689   3.484   3.814  12.732 -0.0710 -0.0191  0.0322
   37DOPE   H6R 4690   3.481   3.718  12.786  2.9351  0.0097  0.4495
   37DOPE   H6S 4691   3.390   3.869  12.754  1.1172  1.5326  1.4773
   37DOPE   C27 4692   3.599   3.894  12.789  0.5394 -0.3731 -0.5502
   37DOPE   H7R 4693   3.576   3.995  12.748 -0.1649 -0.8263 -1.3038
   37DOPE   H7S 4694   3.699   3.856  12.756  1.4666  1.3185  0.1893
   37DOPE   C28 4695   3.601   3.892  12.940 -0.0949  0.2755 -0.3483
   37DOPE   H8R 4696   3.506   3.910  12.993  0.6178 -0.2026  1.1328
   37DOPE   H8S 4697   3.676   3.970  12.965  1.6517 -1.5002  0.2075
   37DOPE   C29 4698   3.659   3.757  12.988  0.1050 -0.5914  0.4390
   37DOPE   H9R 4699   3.723   3.709  12.914  0.6044  2.4563 -1.2753
   37DOPE  C210 4700   3.649   3.725  13.118 -0.3336  0.3902  1.1298
   37DOPE  H10R 4701   3.706   3.643  13.162  0.2243  1.0366  1.6282
   37DOPE  C211 4702   3.584   3.804  13.229 -0.7482 -0.4677 -0.1348
   37DOPE  H11R 4703   3.484   3.759  13.244 -0.2497 -0.8523  2.4755
   37DOPE  H11S 4704   3.563   3.909  13.202  0.7298  0.1571  1.0000
   37DOPE  C212 4705   3.653   3.796  13.369 -0.4448 -0.0399  0.4992
   37DOPE  H12R 4706   3.758   3.832  13.364 -0.0697 -1.1651 -0.1492
   37DOPE  H12S 4707   3.663   3.689  13.397  1.6340 -0.6400 -2.1334
   37DOPE  C213 4708   3.581   3.866  13.480 -0.5509 -0.4553  0.1447
   37DOPE  H13R 4709   3.497   3.796  13.499  0.6292 -1.6746  1.0884
   37DOPE  H13S 4710   3.544   3.966  13.448 -0.2832 -0.6140 -0.7098
   37DOPE  C214 4711   3.649   3.864  13.615  0.1166  0.1778 -0.0023
   37DOPE  H14R 4712   3.689   3.762  13.634 -0.1143 -0.1015 -0.9481
   37DOPE  H14S 4713   3.571   3.885  13.691  0.7393  1.9640  0.1794
   37DOPE  C215 4714   3.761   3.967  13.627  0.7284 -0.4290  0.0181
   37DOPE  H15R 4715   3.714   4.067  13.612 -0.8120 -1.0868  0.2910
   37DOPE  H15S 4716   3.842   3.952  13.553 -0.8766 -1.9908 -1.5180
   37DOPE  C216 4717   3.830   3.957  13.761  0.8146 -1.1916 -0.5785
   37DOPE  H16R 4718   3.903   4.041  13.757 -2.8911  2.4098 -0.0988
   37DOPE  H16S 4719   3.896   3.868  13.763  2.5224 -0.0394 -2.0556
   37DOPE  C217 4720   3.737   3.967  13.884 -0.5463  0.2428 -0.1075
   37DOPE  H17R 4721   3.674   3.875  13.884 -0.5285  0.1341 -2.8688
   37DOPE  H17S 4722   3.661   4.046  13.864  1.3328  2.6036  1.5516
   37DOPE  C218 4723   3.800   3.983  14.022  0.3121  0.1278 -0.1984
   37DOPE  H18R 4724   3.838   4.087  14.034  2.5000 -0.8616  2.4964
   37DOPE  H18S 4725   3.876   3.907  14.050 -0.5392 -0.6577  0.0352
   37DOPE  H18T 4726   3.719   3.973  14.097  0.1065 -1.2201 -0.5809
   37DOPE   C33 4727   3.132   3.825  12.780 -0.3997  0.7360 -0.8251
   37DOPE   H3X 4728   3.185   3.919  12.754  1.5387  0.7494  2.4881
   37DOPE   H3Y 4729   3.200   3.740  12.802 -2.4913 -0.2673  2.5794
   37DOPE   C34 4730   3.074   3.838  12.921 -0.6450  0.2217  0.3499
   37DOPE   H4X 4731   2.985   3.903  12.913 -1.7789 -1.1864  1.0727
   37DOPE   H4Y 4732   3.021   3.746  12.954  1.3179 -2.2542 -2.7851
   37DOPE   C35 4733   3.167   3.880  13.033 -0.1966 -0.3901 -0.2653
   37DOPE   H5X 4734   3.207   3.984  13.022  0.9099 -0.9071 -1.4166
   37DOPE   H5Y 4735   3.258   3.818  13.022  1.1677  1.4008  0.4284
   37DOPE   C36 4736   3.104   3.872  13.174  0.2630 -0.3550  0.0244
   37DOPE   H6X 4737   3.120   3.766  13.205 -0.6983 -0.3287  0.6841
   37DOPE   H6Y 4738   2.995   3.895  13.172  0.3689  0.1785  0.1233
   37DOPE   C37 4739   3.168   3.970  13.278 -0.6425  0.1926  0.2714
   37DOPE   H7X 4740   3.267   3.932  13.311 -0.3256  0.4635 -0.3476
   37DOPE   H7Y 4741   3.186   4.069  13.232  2.2441  0.5765  1.9481
   37DOPE   C38 4742   3.081   3.977  13.406 -0.0631 -0.6614 -0.7084
   37DOPE   H8X 4743   2.979   4.003  13.372  0.6929  0.7260 -1.9857
   37DOPE   H8Y 4744   3.120   4.073  13.447 -1.0705  0.2528 -1.8044
   37DOPE   C39 4745   3.113   3.853  13.491  0.4867  0.3683  0.4064
   37DOPE   H9X 4746   3.105   3.760  13.433  0.8011  0.2879  0.4875
   37DOPE  C310 4747   3.182   3.851  13.602 -1.1766  0.5205 -0.3611
   37DOPE  H10X 4748   3.185   3.757  13.659 -0.3504  0.6602 -0.1604
   37DOPE  C311 4749   3.231   3.967  13.687  0.2146  0.1818  1.2269
   37DOPE  H11X 4750   3.334   4.002  13.666  0.1032  1.8536  3.2097
   37DOPE  H11Y 4751   3.166   4.051  13.655  0.0795 -0.1927  0.4946
   37DOPE  C312 4752   3.203   3.946  13.836 -0.4053 -0.3788 -0.3389
   37DOPE  H12X 4753   3.223   3.842  13.871  0.4482  0.0070  0.3479
   37DOPE  H12Y 4754   3.092   3.946  13.839 -0.4216 -0.8519 -0.7382
   37DOPE  C313 4755   3.266   4.048  13.929 -0.5619 -0.2304  0.0913
   37DOPE  H13X 4756   3.376   4.058  13.927 -0.4314 -1.1400  1.5849
   37DOPE  H13Y 4757   3.224   4.146  13.896 -2.5204 -0.8076  0.7123
   37DOPE  C314 4758   3.216   4.023  14.072  0.0258 -0.3182  0.2197
   37DOPE  H14X 4759   3.262   3.925  14.097  0.4768  0.4635  2.8516
   37DOPE  H14Y 4760   3.105   4.015  14.066 -0.2436  2.9833 -2.6147
   37DOPE  C315 4761   3.264   4.126  14.170 -0.7610 -0.0290  0.2901
   37DOPE  H15X 4762   3.216   4.220  14.137  0.3011  0.5434  0.3281
   37DOPE  H15Y 4763   3.373   4.146  14.159 -0.7215  0.3540  1.2595
   37DOPE  C316 4764   3.231   4.103  14.313  0.3471 -0.1901  0.3656
   37DOPE  H16X 4765   3.123   4.081  14.326  0.5254 -0.3830  1.6512
   37DOPE  H16Y 4766   3.262   4.189  14.377  2.2673  0.2886 -1.0971
   37DOPE  C317 4767   3.290   3.972  14.362 -0.5368 -0.0032 -0.2012
   37DOPE  H17X 4768   3.254   3.952  14.465 -0.2214 -1.3499 -0.3292
   37DOPE  H17Y 4769   3.266   3.881  14.303  0.4546  0.5194 -1.4434
   37DOPE  C318 4770   3.450   3.979  14.366  0.4399  0.1824 -0.5105
   37DOPE  H18X 4771   3.485   3.960  14.263 -0.2351 -1.0309 -0.5375
   37DOPE  H18Y 4772   3.479   4.081  14.401 -0.7545  0.4161 -0.1523
   37DOPE  H18Z 4773   3.483   3.908  14.445  1.5689  2.4035  1.1403
   38DOPE     N 4774   5.555   4.797  11.824  0.0274  0.2272  0.4590
   38DOPE   HN1 4775   5.496   4.816  11.740  0.5292  1.0909  0.2941
   38DOPE   HN2 4776   5.647   4.765  11.790  0.6497  0.8790  1.4575
   38DOPE   HN3 4777   5.507   4.716  11.870 -1.3289  1.4543  1.3191
   38DOPE   C12 4778   5.545   4.931  11.904  0.6878 -0.5400  0.3032
   38DOPE  H12A 4779   5.577   5.015  11.839 -0.6141  1.9997  2.7503
   38DOPE  H12B 4780   5.614   4.927  11.991  3.0623 -2.3507 -1.5013
   38DOPE   C11 4781   5.399   4.947  11.954 -0.5002 -0.1392 -0.8235
   38DOPE  H11A 4782   5.394   5.027  12.030 -1.7754 -0.3231 -0.6877
   38DOPE  H11B 4783   5.371   4.858  12.014  0.6955 -1.3540 -2.0129
   38DOPE     P 4784   5.164   5.022  11.875  0.1017 -0.0585  0.5328
   38DOPE   O13 4785   5.074   4.914  11.835  0.4543 -0.1483 -0.4867
   38DOPE   O14 4786   5.146   5.159  11.808  1.0280  0.8243  0.0230
   38DOPE   O11 4787   5.157   5.036  12.033 -0.4570  0.4496  0.0826
   38DOPE   O12 4788   5.314   4.976  11.844  0.7124  0.1735 -0.6063
   38DOPE    C1 4789   5.119   5.158  12.087 -0.0665  0.4468  0.5350
   38DOPE    HA 4790   5.032   5.134  12.151  1.3135 -1.9278  1.6731
   38DOPE    HB 4791   5.073   5.235  12.022  0.3207 -0.7596 -1.2464
   38DOPE    C2 4792   5.229   5.225  12.175  0.2604 -0.0567 -0.2889
   38DOPE    HS 4793   5.323   5.205  12.118  0.2277  0.2436 -0.4495
   38DOPE   O21 4794   5.219   5.187  12.308 -0.4809 -0.2335 -0.0641
   38DOPE   C21 4795   5.251   5.057  12.338 -0.0720 -0.0063 -0.3268
   38DOPE   O22 4796   5.286   4.974  12.256 -0.1705  0.2812 -0.5748
   38DOPE   C22 4797   5.233   5.021  12.491  0.1448  0.1326 -0.4699
   38DOPE   H2R 4798   5.273   4.917  12.490  2.0450  0.7893 -2.7276
   38DOPE   H2S 4799   5.126   5.026  12.520 -0.3050 -0.6365 -1.8545
   38DOPE    C3 4800   5.214   5.377  12.163 -0.1920 -0.1933  0.2488
   38DOPE    HX 4801   5.218   5.411  12.057 -0.2562  1.3765  0.7227
   38DOPE    HY 4802   5.301   5.417  12.219 -0.8601  0.0530  1.1214
   38DOPE   O31 4803   5.086   5.416  12.215  0.1752 -0.0529 -1.1645
   38DOPE   C31 4804   5.082   5.505  12.313  0.2782  0.0342 -0.3774
   38DOPE   O32 4805   5.173   5.571  12.355  0.3362  0.5183 -0.4507
   38DOPE   C32 4806   4.934   5.511  12.351 -0.1810  0.2035  1.1612
   38DOPE   H2X 4807   4.908   5.598  12.415  2.4322  1.7204  0.2966
   38DOPE   H2Y 4808   4.883   5.514  12.252  0.9609  1.0431  0.5830
   38DOPE   C23 4809   5.323   5.106  12.580 -0.2074 -0.5389  0.2996
   38DOPE   H3R 4810   5.312   5.213  12.550  1.7028 -0.4215 -0.1305
   38DOPE   H3S 4811   5.427   5.073  12.558 -0.1608  0.5965 -1.4479
   38DOPE   C24 4812   5.307   5.108  12.728  0.1357  0.3631 -0.6906
   38DOPE   H4R 4813   5.203   5.108  12.767 -0.2944  0.5781 -1.7960
   38DOPE   H4S 4814   5.351   5.207  12.754  0.5408  0.1591 -0.5922
   38DOPE   C25 4815   5.374   4.984  12.792  0.2383  0.0743 -0.2164
   38DOPE   H5R 4816   5.473   4.954  12.751  0.2545  0.4188 -0.4296
   38DOPE   H5S 4817   5.310   4.897  12.767  0.0103  0.8705 -2.6716
   38DOPE   C26 4818   5.397   4.996  12.941 -0.1929  0.1196 -0.1371
   38DOPE   H6R 4819   5.457   5.086  12.965  1.5960 -1.5376  2.1527
   38DOPE   H6S 4820   5.462   4.918  12.987  0.8900  0.5176 -0.9415
   38DOPE   C27 4821   5.270   5.006  13.028  0.0056  0.7408  0.1951
   38DOPE   H7R 4822   5.212   4.913  13.012  0.2092  0.4682  1.0062
   38DOPE   H7S 4823   5.207   5.088  12.988  0.0016  0.7420  0.2049
   38DOPE   C28 4824   5.286   5.034  13.179  0.0653 -0.4469  0.1073
   38DOPE   H8R 4825   5.351   4.953  13.219  1.4494  1.3584  1.7121
   38DOPE   H8S 4826   5.179   5.028  13.211 -0.7266  2.9886 -1.4630
   38DOPE   C29 4827   5.342   5.164  13.230 -0.1598 -0.5102 -0.2756
   38DOPE   H9R 4828   5.353   5.251  13.164 -0.4977  1.3679  1.9915
   38DOPE  C210 4829   5.357   5.194  13.362  0.2365  0.0659  0.0198
   38DOPE  H10R 4830   5.408   5.286  13.393  1.7444 -1.1592  1.3999
   38DOPE  C211 4831   5.315   5.104  13.476 -0.5865 -0.2611  0.2786
   38DOPE  H11R 4832   5.391   5.023  13.481  2.0654  2.0999  0.3986
   38DOPE  H11S 4833   5.217   5.057  13.453 -0.6714  0.0483  0.0034
   38DOPE  C212 4834   5.314   5.179  13.612  0.2215  0.3942  0.5487
   38DOPE  H12R 4835   5.258   5.274  13.607  0.2706  0.5668  2.6865
   38DOPE  H12S 4836   5.423   5.196  13.625  0.3281 -0.6869  1.1941
   38DOPE  C213 4837   5.264   5.103  13.726 -0.5842  0.8352  0.2205
   38DOPE  H13R 4838   5.295   4.996  13.725 -3.0815  0.0446 -1.2679
   38DOPE  H13S 4839   5.155   5.114  13.708 -1.0736 -2.3756  0.5529
   38DOPE  C214 4840   5.301   5.158  13.862 -0.1555 -0.5191  0.2212
   38DOPE  H14R 4841   5.409   5.152  13.885 -0.1630  0.2322  0.4728
   38DOPE  H14S 4842   5.242   5.102  13.938 -2.1209  2.0427  0.7351
   38DOPE  C215 4843   5.258   5.305  13.877  0.6382  1.1981  0.3693
   38DOPE  H15R 4844   5.147   5.313  13.872  0.6036  1.1152  0.9266
   38DOPE  H15S 4845   5.294   5.370  13.794 -0.8954  0.1656 -1.1721
   38DOPE  C216 4846   5.305   5.360  14.014  0.6505  0.1348 -0.3314
   38DOPE  H16R 4847   5.279   5.468  14.010  0.7105  0.1814  0.3720
   38DOPE  H16S 4848   5.415   5.353  14.012  0.8978  0.7682  3.4537
   38DOPE  C217 4849   5.235   5.289  14.126 -0.1143 -0.3951 -0.2816
   38DOPE  H17R 4850   5.300   5.282  14.216 -1.5649 -1.5153  0.7330
   38DOPE  H17S 4851   5.199   5.186  14.104 -0.3496  0.0409 -2.1090
   38DOPE  C218 4852   5.106   5.354  14.170  0.1650  0.0552 -0.4429
   38DOPE  H18R 4853   5.041   5.350  14.081  2.6719 -0.4541 -2.3555
   38DOPE  H18S 4854   5.119   5.462  14.190 -0.6422  0.5478 -2.4441
   38DOPE  H18T 4855   5.064   5.301  14.258 -1.1244  1.9917  0.1641
   38DOPE   C33 4856   4.887   5.385  12.428 -0.0331 -0.1647  0.2441
   38DOPE   H3X 4857   4.909   5.299  12.360  0.8642  1.9959 -2.3764
   38DOPE   H3Y 4858   4.777   5.382  12.443 -0.0976 -1.4935 -0.3172
   38DOPE   C34 4859   4.963   5.365  12.559  0.1647 -0.7053 -0.1092
   38DOPE   H4X 4860   5.065   5.321  12.560  0.5485  0.1805  0.2282
   38DOPE   H4Y 4861   4.972   5.457  12.621  1.0995 -1.0648  0.3163
   38DOPE   C35 4862   4.889   5.263  12.641 -0.1856  0.0194  0.5911
   38DOPE   H5X 4863   4.894   5.164  12.591  2.5721 -0.1020  0.9859
   38DOPE   H5Y 4864   4.785   5.305  12.639 -0.1019  0.3545  1.9145
   38DOPE   C36 4865   4.937   5.258  12.789  0.4685  0.0817 -0.2769
   38DOPE   H6X 4866   4.966   5.354  12.838  0.6060 -1.2148  2.3526
   38DOPE   H6Y 4867   5.032   5.200  12.785 -0.3124 -1.2144 -0.3866
   38DOPE   C37 4868   4.839   5.171  12.866  0.5252 -0.3846 -0.3960
   38DOPE   H7X 4869   4.743   5.226  12.873  0.4011 -0.2820 -2.2462
   38DOPE   H7Y 4870   4.811   5.074  12.819  0.7912 -1.1247  0.9380
   38DOPE   C38 4871   4.886   5.140  13.007 -0.1163 -0.3571 -0.7198
   38DOPE   H8X 4872   4.988   5.097  13.003  0.5722  1.2625 -4.0806
   38DOPE   H8Y 4873   4.813   5.069  13.052 -2.7171  2.2368 -0.5079
   38DOPE   C39 4874   4.903   5.251  13.109 -0.3875  0.7314 -0.2807
   38DOPE   H9X 4875   4.945   5.345  13.071  2.2638 -0.1194  0.2599
   38DOPE  C310 4876   4.860   5.250  13.236 -0.9941  0.3764  0.7396
   38DOPE  H10X 4877   4.876   5.342  13.294  0.9796  1.3184 -1.1573
   38DOPE  C311 4878   4.819   5.127  13.313  0.1610  0.1235 -1.0613
   38DOPE  H11X 4879   4.728   5.087  13.262 -1.0105  1.5196 -0.1333
   38DOPE  H11Y 4880   4.895   5.046  13.316 -1.7309 -1.7624  2.2205
   38DOPE  C312 4881   4.785   5.156  13.457 -0.1506 -0.3974  0.3052
   38DOPE  H12X 4882   4.755   5.060  13.504  1.0127 -0.9504 -0.0331
   38DOPE  H12Y 4883   4.700   5.226  13.472 -0.1604 -0.3713  0.1316
   38DOPE  C313 4884   4.903   5.181  13.553  0.5176 -0.0299 -0.2688
   38DOPE  H13X 4885   4.965   5.092  13.575 -0.1760 -0.6157 -0.6227
   38DOPE  H13Y 4886   4.975   5.260  13.525  0.4227  0.5910  1.1248
   38DOPE  C314 4887   4.865   5.226  13.697  0.4638 -0.3576  0.1120
   38DOPE  H14X 4888   4.955   5.283  13.728 -0.0520  0.2253  0.5664
   38DOPE  H14Y 4889   4.865   5.128  13.751 -0.7673 -1.1608 -1.2682
   38DOPE  C315 4890   4.740   5.311  13.716 -0.0110 -1.2343 -0.6067
   38DOPE  H15X 4891   4.726   5.324  13.825 -1.9143 -1.1020 -0.8213
   38DOPE  H15Y 4892   4.645   5.273  13.673 -0.3225 -1.1344 -0.0124
   38DOPE  C316 4893   4.754   5.445  13.647  0.3111  0.1380  0.4017
   38DOPE  H16X 4894   4.772   5.445  13.537  2.2516 -2.9471  0.6100
   38DOPE  H16Y 4895   4.847   5.491  13.684  1.4977 -1.1823 -0.7959
   38DOPE  C317 4896   4.639   5.542  13.694 -0.0754 -0.8877 -0.4501
   38DOPE  H17X 4897   4.556   5.537  13.620 -0.3795 -0.5727 -0.1311
   38DOPE  H17Y 4898   4.603   5.521  13.797 -0.2976  1.4520 -0.0012
   38DOPE  C318 4899   4.681   5.690  13.698  0.3030 -0.3450 -0.5576
   38DOPE  H18X 4900   4.739   5.704  13.604 -1.9506  0.2385 -1.9583
   38DOPE  H18Y 4901   4.605   5.771  13.700  2.0907  1.3929 -0.4523
   38DOPE  H18Z 4902   4.747   5.710  13.785 -1.8393 -1.5534  1.4635
   39DOPE     N 4903   1.715   5.081  12.584  0.2891 -0.3430 -0.3960
   39DOPE   HN1 4904   1.787   5.039  12.521 -0.3195 -2.2825  0.1140
   39DOPE   HN2 4905   1.647   5.003  12.598 -1.1762  1.2340  1.8807
   39DOPE   HN3 4906   1.676   5.158  12.526 -0.2657  0.7344  1.3422
   39DOPE   C12 4907   1.754   5.120  12.729 -0.0681  1.1011  0.2107
   39DOPE  H12A 4908   1.782   5.018  12.765 -3.5612 -1.7240 -3.9535
   39DOPE  H12B 4909   1.666   5.158  12.784  2.3968  3.2379  3.0144
   39DOPE   C11 4910   1.886   5.202  12.736 -0.1722  0.1512 -0.3647
   39DOPE  H11A 4911   1.972   5.163  12.677  0.5215  3.6351 -1.8947
   39DOPE  H11B 4912   1.919   5.220  12.841  1.2241  1.8020 -1.0212
   39DOPE     P 4913   1.930   5.386  12.553 -0.1288  0.0744 -0.7228
   39DOPE   O13 4914   1.869   5.521  12.524 -0.2347  0.5078  0.3246
   39DOPE   O14 4915   1.939   5.283  12.450  0.2935 -0.0385  0.3549
   39DOPE   O11 4916   2.082   5.411  12.599  0.1000 -0.3461  0.0850
   39DOPE   O12 4917   1.855   5.331  12.686  0.5469 -0.1424  0.2686
   39DOPE    C1 4918   2.133   5.518  12.674 -0.3659 -0.2874  0.1435
   39DOPE    HA 4919   2.080   5.611  12.645  0.3230  0.0619 -0.0235
   39DOPE    HB 4920   2.243   5.531  12.662  0.0545  0.3943  3.6455
   39DOPE    C2 4921   2.110   5.484  12.824 -0.0288  0.2027 -0.0347
   39DOPE    HS 4922   2.133   5.375  12.828  2.0341  0.6111  0.4089
   39DOPE   O21 4923   1.973   5.507  12.865  0.3304  0.3011 -0.4475
   39DOPE   C21 4924   1.947   5.442  12.971  0.4573 -0.3597 -0.3547
   39DOPE   O22 4925   2.011   5.353  13.022 -0.1363 -0.9515 -0.5794
   39DOPE   C22 4926   1.806   5.487  13.016 -0.1686  0.0301  1.1503
   39DOPE   H2R 4927   1.733   5.433  12.952  1.0747 -0.5054  0.1384
   39DOPE   H2S 4928   1.798   5.598  13.013  1.4727  0.1705  0.2741
   39DOPE    C3 4929   2.214   5.569  12.914 -0.6687 -0.3506 -0.3965
   39DOPE    HX 4930   2.206   5.540  13.021  0.5602  3.2174  0.8101
   39DOPE    HY 4931   2.181   5.674  12.899 -4.6722 -1.1446  1.3936
   39DOPE   O31 4932   2.350   5.548  12.873 -0.3794  0.1153  0.2323
   39DOPE   C31 4933   2.445   5.614  12.941 -0.4437  0.2075  0.1447
   39DOPE   O32 4934   2.427   5.682  13.041  0.1691  0.3341  0.3680
   39DOPE   C32 4935   2.575   5.602  12.862  0.0112 -0.1819  0.2116
   39DOPE   H2X 4936   2.554   5.604  12.753 -0.8934 -1.0521  0.3496
   39DOPE   H2Y 4937   2.643   5.686  12.888 -1.4443  1.1432 -0.0924
   39DOPE   C23 4938   1.772   5.453  13.172 -0.8589  0.5630  0.0914
   39DOPE   H3R 4939   1.788   5.344  13.183 -0.2353  0.7980  1.7589
   39DOPE   H3S 4940   1.665   5.477  13.188 -1.2558 -1.0919  0.0888
   39DOPE   C24 4941   1.861   5.513  13.281 -0.2269 -0.4302  0.1695
   39DOPE   H4R 4942   1.882   5.620  13.259  0.1466 -0.3910  0.7054
   39DOPE   H4S 4943   1.966   5.476  13.273 -0.1599  0.1534 -3.3728
   39DOPE   C25 4944   1.819   5.499  13.427 -0.3859 -0.5660  0.1461
   39DOPE   H5R 4945   1.774   5.399  13.445 -0.0912 -0.4293  1.8116
   39DOPE   H5S 4946   1.752   5.580  13.465  1.1251  0.5233  0.5813
   39DOPE   C26 4947   1.948   5.508  13.512  0.1398 -0.3603  0.2388
   39DOPE   H6R 4948   2.001   5.602  13.487  1.8286 -1.2644  0.2739
   39DOPE   H6S 4949   2.010   5.420  13.485  1.7045  0.1506  1.9817
   39DOPE   C27 4950   1.919   5.501  13.666  0.2888 -0.3902 -0.2048
   39DOPE   H7R 4951   1.866   5.406  13.687 -1.6655  0.8648  0.8693
   39DOPE   H7S 4952   1.844   5.580  13.687  1.3496  0.9227 -1.1933
   39DOPE   C28 4953   2.040   5.519  13.759 -0.9191 -0.1891  0.4952
   39DOPE   H8R 4954   2.081   5.622  13.752  1.5836 -1.0843  0.9151
   39DOPE   H8S 4955   2.118   5.451  13.719 -1.3675 -0.5074  0.1507
   39DOPE   C29 4956   2.004   5.483  13.901  0.0487 -0.5302  0.6470
   39DOPE   H9R 4957   1.903   5.515  13.929 -0.4077 -0.9133 -0.5129
   39DOPE  C210 4958   2.075   5.409  13.987 -0.1103 -0.6367  0.4942
   39DOPE  H10R 4959   2.028   5.392  14.085  0.4206 -2.6123  0.4401
   39DOPE  C211 4960   2.205   5.346  13.962  0.0370  0.5479 -1.0243
   39DOPE  H11R 4961   2.286   5.392  14.023 -0.2321 -0.1183 -0.1582
   39DOPE  H11S 4962   2.244   5.357  13.858 -2.3925 -1.4112 -2.2564
   39DOPE  C212 4963   2.194   5.194  14.005  0.1017 -0.1101 -0.1936
   39DOPE  H12R 4964   2.293   5.150  13.982  0.6340  0.8720  0.1527
   39DOPE  H12S 4965   2.112   5.144  13.949 -0.5614  0.9964 -0.2393
   39DOPE  C213 4966   2.191   5.177  14.158  0.1727 -0.2440  0.1120
   39DOPE  H13R 4967   2.095   5.207  14.206  0.9988 -0.1543  1.7996
   39DOPE  H13S 4968   2.266   5.249  14.196 -0.9917  0.8542  0.4000
   39DOPE  C214 4969   2.234   5.039  14.212  0.1459  0.9442 -0.1563
   39DOPE  H14R 4970   2.343   5.022  14.201  0.0795 -0.1058  0.6405
   39DOPE  H14S 4971   2.179   4.960  14.155 -1.5909  0.9487  1.4143
   39DOPE  C215 4972   2.211   5.030  14.367  0.6528  0.7990  0.2312
   39DOPE  H15R 4973   2.109   5.066  14.391  0.9058  2.0052 -0.4250
   39DOPE  H15S 4974   2.287   5.095  14.415 -0.4850  1.7048  0.8400
   39DOPE  C216 4975   2.229   4.885  14.417  0.5107 -0.6451 -0.0156
   39DOPE  H16R 4976   2.334   4.856  14.394  1.1030  0.6644  0.8631
   39DOPE  H16S 4977   2.162   4.808  14.372 -2.4388  2.4494 -1.3781
   39DOPE  C217 4978   2.220   4.888  14.574  0.8425 -0.0961  0.2655
   39DOPE  H17R 4979   2.132   4.937  14.621  1.3387 -1.3269  2.6638
   39DOPE  H17S 4980   2.306   4.953  14.601 -0.0523  0.6164  1.5024
   39DOPE  C218 4981   2.221   4.753  14.642 -0.4142  0.1798 -0.2584
   39DOPE  H18R 4982   2.231   4.774  14.751  1.3189 -1.0614 -0.1478
   39DOPE  H18S 4983   2.303   4.684  14.616  0.0266  0.6919 -0.2528
   39DOPE  H18T 4984   2.123   4.705  14.624 -1.6149  0.8697  3.4387
   39DOPE   C33 4985   2.651   5.469  12.907  0.2276  0.8566  0.8866
   39DOPE   H3X 4986   2.702   5.441  12.813 -1.0742 -1.6434  0.8487
   39DOPE   H3Y 4987   2.572   5.391  12.912  2.6419 -1.7923  0.2053
   39DOPE   C34 4988   2.737   5.476  13.033 -0.3749  0.0208 -0.2307
   39DOPE   H4X 4989   2.828   5.538  13.018 -1.1893  1.2570 -0.2813
   39DOPE   H4Y 4990   2.670   5.526  13.107 -0.5726 -0.1962 -0.2607
   39DOPE   C35 4991   2.788   5.343  13.087  0.7407 -0.2224 -0.3894
   39DOPE   H5X 4992   2.862   5.306  13.013  0.8565  2.3780 -1.6867
   39DOPE   H5Y 4993   2.700   5.275  13.088 -0.2908  1.0161 -2.0081
   39DOPE   C36 4994   2.850   5.353  13.229 -0.3497 -0.6029  0.4491
   39DOPE   H6X 4995   2.767   5.386  13.295 -0.5402  2.2585 -1.0642
   39DOPE   H6Y 4996   2.920   5.438  13.219 -0.1545 -0.8500 -0.3402
   39DOPE   C37 4997   2.915   5.227  13.278 -0.2481  0.0870 -0.6295
   39DOPE   H7X 4998   2.981   5.170  13.211 -1.2884 -3.9081  1.4354
   39DOPE   H7Y 4999   2.974   5.251  13.369 -0.0751 -1.1952 -0.3862
   39DOPE   C38 5000   2.811   5.126  13.324  0.0460  0.5329  0.1037
   39DOPE   H8X 5001   2.745   5.096  13.239  0.3808  0.5013 -0.1480
   39DOPE   H8Y 5002   2.744   5.163  13.405 -1.8575 -1.0666 -0.6509
   39DOPE   C39 5003   2.894   5.014  13.378 -0.9129 -0.0269  0.6338
   39DOPE   H9X 5004   2.975   5.042  13.448 -0.9206 -1.5371  1.2903
   39DOPE  C310 5005   2.874   4.884  13.349  0.6623  0.1075 -0.7856
   39DOPE  H10X 5006   2.943   4.814  13.399  2.7200  1.3256 -1.7857
   39DOPE  C311 5007   2.766   4.827  13.268 -0.0813 -0.2449  0.3970
   39DOPE  H11X 5008   2.709   4.753  13.327 -1.9331  1.2899  0.6357
   39DOPE  H11Y 5009   2.687   4.899  13.237 -0.7314  0.1139  2.6749
   39DOPE  C312 5010   2.813   4.770  13.130  0.4423  0.5317 -0.6877
   39DOPE  H12X 5011   2.728   4.726  13.073  0.8449 -1.0170 -0.1460
   39DOPE  H12Y 5012   2.878   4.684  13.154 -0.6245 -0.1790 -0.2613
   39DOPE  C313 5013   2.890   4.875  13.051 -0.0157 -0.2889 -0.0694
   39DOPE  H13X 5014   2.852   4.972  13.088 -2.0233 -0.9090 -0.3688
   39DOPE  H13Y 5015   2.993   4.861  13.090  0.0709  0.6187  0.0607
   39DOPE  C314 5016   2.867   4.857  12.896 -0.4052 -0.2097 -0.2143
   39DOPE  H14X 5017   2.762   4.888  12.877 -0.9436 -1.0614  1.2473
   39DOPE  H14Y 5018   2.893   4.751  12.878 -0.6188 -0.1961 -0.6133
   39DOPE  C315 5019   2.962   4.944  12.815  0.0214  0.2255  0.5803
   39DOPE  H15X 5020   3.068   4.909  12.811 -0.1495 -0.1882 -1.7466
   39DOPE  H15Y 5021   2.964   5.048  12.855  3.2058  1.4563 -2.2225
   39DOPE  C316 5022   2.927   4.945  12.665  0.5715  0.1920  0.8122
   39DOPE  H16X 5023   2.829   4.995  12.645  1.7119  2.0624 -0.3488
   39DOPE  H16Y 5024   2.905   4.839  12.638 -0.5730  0.9599 -1.5674
   39DOPE  C317 5025   3.027   5.018  12.575 -0.4185 -0.2795 -0.0276
   39DOPE  H17X 5026   3.028   5.125  12.605  2.2387 -0.3745  0.4713
   39DOPE  H17Y 5027   3.130   4.985  12.600 -1.4890 -3.0115  1.2190
   39DOPE  C318 5028   3.001   5.003  12.426 -0.9352  0.4452 -0.3129
   39DOPE  H18X 5029   2.908   5.057  12.399  0.5029  2.1369 -2.2266
   39DOPE  H18Y 5030   3.091   5.035  12.369 -0.3341  1.5582  1.2101
   39DOPE  H18Z 5031   2.998   4.894  12.402  2.1033  0.0821  0.5179
   40DOPE     N 5032   2.762   6.216  11.287 -0.5035  0.0509 -0.1343
   40DOPE   HN1 5033   2.810   6.242  11.198  0.4393 -2.8274 -0.5556
   40DOPE   HN2 5034   2.698   6.136  11.276 -1.0144 -0.0187  2.6063
   40DOPE   HN3 5035   2.694   6.289  11.317  0.4853  1.4007 -1.0361
   40DOPE   C12 5036   2.854   6.178  11.401 -0.0902  0.2077 -0.1020
   40DOPE  H12A 5037   2.797   6.156  11.494 -0.4184 -0.4669 -0.4604
   40DOPE  H12B 5038   2.937   6.248  11.425  0.6540 -0.7795  0.2692
   40DOPE   C11 5039   2.932   6.044  11.359 -0.5914  0.2932  0.5836
   40DOPE  H11A 5040   3.007   6.049  11.441  1.3924  1.6227 -1.2164
   40DOPE  H11B 5041   2.977   6.051  11.257 -1.0884  0.6252  0.3834
   40DOPE     P 5042   2.824   5.847  11.491  0.0553 -0.0781  0.0441
   40DOPE   O13 5043   2.791   5.711  11.448 -0.0299 -0.1448 -0.4074
   40DOPE   O14 5044   2.729   5.925  11.579 -0.9823  0.4767 -0.3873
   40DOPE   O11 5045   2.965   5.846  11.567  0.5112 -0.5671 -0.0136
   40DOPE   O12 5046   2.847   5.932  11.359  0.2586 -0.1283 -0.5617
   40DOPE    C1 5047   2.987   5.755  11.676  0.3727 -0.7192 -0.5625
   40DOPE    HA 5048   3.007   5.651  11.643  1.6969 -0.1913 -1.4906
   40DOPE    HB 5049   2.902   5.763  11.748  1.0775 -2.2353  0.5034
   40DOPE    C2 5050   3.113   5.797  11.761 -0.3954 -0.2551 -0.0151
   40DOPE    HS 5051   3.203   5.784  11.697 -0.2371 -0.5814  0.2680
   40DOPE   O21 5052   3.114   5.715  11.877  0.1081  0.4222 -0.5502
   40DOPE   C21 5053   3.230   5.670  11.922 -0.7304  0.6583  0.4347
   40DOPE   O22 5054   3.340   5.709  11.893 -0.7493  0.5151  0.0451
   40DOPE   C22 5055   3.199   5.568  12.030 -0.6743 -0.1642  0.6161
   40DOPE   H2R 5056   3.234   5.473  11.986 -0.3235  1.4495 -3.0017
   40DOPE   H2S 5057   3.091   5.563  12.053 -0.3967  0.1930  2.1577
   40DOPE    C3 5058   3.111   5.947  11.810  0.1687 -0.4445  0.0347
   40DOPE    HX 5059   3.009   5.959  11.853 -0.0433  0.5491 -0.7304
   40DOPE    HY 5060   3.116   6.019  11.726 -2.2261 -0.6045 -0.3100
   40DOPE   O31 5061   3.202   5.974  11.915  0.6486 -0.4293  0.1340
   40DOPE   C31 5062   3.318   6.026  11.881  0.3111 -0.6169  0.2340
   40DOPE   O32 5063   3.356   6.044  11.764 -0.2911 -0.5317 -0.4262
   40DOPE   C32 5064   3.391   6.061  12.006  0.1752  0.0475 -0.0408
   40DOPE   H2X 5065   3.346   6.154  12.046 -0.4413 -0.4329  0.4098
   40DOPE   H2Y 5066   3.368   5.981  12.080 -0.3521  0.1250 -0.1158
   40DOPE   C23 5067   3.267   5.606  12.169  0.3635 -0.5135 -0.7351
   40DOPE   H3R 5068   3.205   5.681  12.222  0.3884 -0.3275 -0.9639
   40DOPE   H3S 5069   3.367   5.649  12.145  0.3539  0.8098  1.3745
   40DOPE   C24 5070   3.287   5.470  12.239 -0.0603  0.5327 -0.0757
   40DOPE   H4R 5071   3.374   5.477  12.307 -0.2212  0.5022  0.1343
   40DOPE   H4S 5072   3.313   5.393  12.162 -0.2227  0.5812 -0.1809
   40DOPE   C25 5073   3.165   5.431  12.321  0.7282 -0.0376  0.3885
   40DOPE   H5R 5074   3.193   5.330  12.359  0.5558 -0.7095 -1.1834
   40DOPE   H5S 5075   3.077   5.414  12.255  0.7533 -0.9158  0.5730
   40DOPE   C26 5076   3.134   5.521  12.441 -0.2746  0.1033  0.7706
   40DOPE   H6R 5077   3.092   5.617  12.403  1.0520  0.0145 -1.0870
   40DOPE   H6S 5078   3.234   5.547  12.481  0.1796 -0.7312  0.2135
   40DOPE   C27 5079   3.043   5.447  12.542  0.1802  0.3163  0.2880
   40DOPE   H7R 5080   3.096   5.353  12.569 -0.1516  0.0698  0.0781
   40DOPE   H7S 5081   2.954   5.413  12.485  0.4733 -1.6176  0.9113
   40DOPE   C28 5082   3.012   5.525  12.671 -0.6413 -0.2853 -0.0937
   40DOPE   H8R 5083   2.980   5.457  12.753  0.1802  0.7436  1.1173
   40DOPE   H8S 5084   2.925   5.593  12.655 -0.4529  0.3649  1.4291
   40DOPE   C29 5085   3.130   5.608  12.716 -0.0968  0.4668 -0.8281
   40DOPE   H9R 5086   3.163   5.686  12.646  0.0798 -0.5477 -1.9077
   40DOPE  C210 5087   3.215   5.582  12.821  0.1266  0.0908  0.3746
   40DOPE  H10R 5088   3.304   5.645  12.836 -0.0576  0.6746 -0.8565
   40DOPE  C211 5089   3.210   5.463  12.916  0.4052  0.1385 -0.3106
   40DOPE  H11R 5090   3.306   5.408  12.924  1.5609  2.2571  3.2262
   40DOPE  H11S 5091   3.132   5.389  12.889  0.4756  0.4224 -1.3098
   40DOPE  C212 5092   3.205   5.514  13.067 -0.0775 -0.7796  0.1077
   40DOPE  H12R 5093   3.101   5.550  13.081  0.5310  0.9877  0.3289
   40DOPE  H12S 5094   3.254   5.613  13.076 -0.4427 -0.4165 -1.5593
   40DOPE  C213 5095   3.247   5.410  13.176  0.5171 -0.0115  0.6645
   40DOPE  H13R 5096   3.353   5.380  13.162  0.1812 -1.0205  0.1472
   40DOPE  H13S 5097   3.181   5.321  13.174 -1.3869  1.2417  2.9393
   40DOPE  C214 5098   3.246   5.461  13.323 -0.0158 -0.3181 -0.3186
   40DOPE  H14R 5099   3.154   5.522  13.337  2.0465  2.8674  0.2584
   40DOPE  H14S 5100   3.309   5.552  13.326 -1.4965  0.8424  4.5948
   40DOPE  C215 5101   3.279   5.369  13.432  0.0835  0.0921  0.4346
   40DOPE  H15R 5102   3.370   5.314  13.401  1.1874  0.7716  2.3236
   40DOPE  H15S 5103   3.198   5.296  13.455 -0.6817  0.7640 -0.0966
   40DOPE  C216 5104   3.335   5.440  13.559  0.5259  0.8402 -0.2795
   40DOPE  H16R 5105   3.249   5.498  13.597 -1.0497 -0.4598 -1.6689
   40DOPE  H16S 5106   3.415   5.509  13.526  0.0441  1.3688 -0.3466
   40DOPE  C217 5107   3.393   5.337  13.652  0.1341  0.2409  0.0722
   40DOPE  H17R 5108   3.457   5.378  13.734  1.8184 -1.2981 -0.4152
   40DOPE  H17S 5109   3.474   5.283  13.599  0.5821  0.8493  0.1178
   40DOPE  C218 5110   3.299   5.230  13.706  0.3789 -0.5930  0.3802
   40DOPE  H18R 5111   3.245   5.170  13.630 -2.8521  2.5015 -0.0586
   40DOPE  H18S 5112   3.219   5.277  13.768 -1.6394 -0.8800 -1.8389
   40DOPE  H18T 5113   3.361   5.167  13.773  0.0325 -0.5466  0.7464
   40DOPE   C33 5114   3.546   6.099  11.998  0.3966  1.0619  0.3658
   40DOPE   H3X 5115   3.566   6.163  11.909  1.7366 -0.5597 -0.5444
   40DOPE   H3Y 5116   3.606   6.007  11.989 -0.4328  0.4452  0.9706
   40DOPE   C34 5117   3.585   6.191  12.119  0.1219  1.2602 -0.2679
   40DOPE   H4X 5118   3.695   6.204  12.109  0.6644 -0.9070  1.8038
   40DOPE   H4Y 5119   3.542   6.292  12.105  0.0280  1.1631 -0.6720
   40DOPE   C35 5120   3.544   6.150  12.261  0.6196 -0.0784 -0.0564
   40DOPE   H5X 5121   3.571   6.042  12.273  2.7338  0.3103 -0.8145
   40DOPE   H5Y 5122   3.437   6.162  12.287  1.3495  0.7653  3.0018
   40DOPE   C36 5123   3.623   6.237  12.360  0.1405 -0.3243 -0.2292
   40DOPE   H6X 5124   3.599   6.344  12.346  1.2599 -0.1086 -0.6542
   40DOPE   H6Y 5125   3.730   6.230  12.329  0.8997  1.4781  1.7370
   40DOPE   C37 5126   3.605   6.190  12.503 -0.3879  0.2700 -1.4667
   40DOPE   H7X 5127   3.499   6.190  12.538 -0.2067 -3.3468 -0.5271
   40DOPE   H7Y 5128   3.636   6.084  12.514  0.4365  0.6345 -0.0034
   40DOPE   C38 5129   3.687   6.262  12.616 -0.6270  0.2454 -0.5430
   40DOPE   H8X 5130   3.793   6.245  12.590 -1.3052 -0.6357 -3.0349
   40DOPE   H8Y 5131   3.676   6.210  12.713 -0.3728  0.0316 -0.6280
   40DOPE   C39 5132   3.661   6.410  12.620  0.2045 -0.0630  0.1186
   40DOPE   H9X 5133   3.663   6.456  12.520  0.9466  2.4052  1.2140
   40DOPE  C310 5134   3.626   6.491  12.716  0.4891  0.2290 -0.6925
   40DOPE  H10X 5135   3.600   6.592  12.682 -0.3393  0.7757  1.4410
   40DOPE  C311 5136   3.610   6.444  12.865 -0.1771  0.5742  0.5347
   40DOPE  H11X 5137   3.676   6.359  12.893 -1.6493 -0.1795  1.8769
   40DOPE  H11Y 5138   3.638   6.524  12.936  1.8592 -0.0390  0.4898
   40DOPE  C312 5139   3.465   6.389  12.880 -0.4543  0.5438 -0.3017
   40DOPE  H12X 5140   3.433   6.327  12.794  2.6251 -2.5071  0.5113
   40DOPE  H12Y 5141   3.391   6.470  12.897 -1.6774 -0.4946 -0.5538
   40DOPE  C313 5142   3.448   6.312  13.014 -0.4387  0.4598 -0.1669
   40DOPE  H13X 5143   3.340   6.285  13.021 -1.0478  2.0916 -2.2608
   40DOPE  H13Y 5144   3.506   6.217  13.012 -0.6216  0.2208  2.3493
   40DOPE  C314 5145   3.494   6.381  13.140 -0.0061  0.4657  0.1149
   40DOPE  H14X 5146   3.468   6.488  13.125  0.4308  0.4297 -1.0344
   40DOPE  H14Y 5147   3.604   6.372  13.141 -0.1277 -2.2441 -1.4616
   40DOPE  C315 5148   3.451   6.322  13.273 -0.2267  0.2830 -0.0768
   40DOPE  H15X 5149   3.466   6.212  13.269  1.0126  0.4683 -1.8641
   40DOPE  H15Y 5150   3.341   6.336  13.275 -0.4006 -0.5060  4.0578
   40DOPE  C316 5151   3.503   6.372  13.408  0.5010 -0.8028 -0.1743
   40DOPE  H16X 5152   3.606   6.334  13.428  1.2892  1.4779  0.4902
   40DOPE  H16Y 5153   3.441   6.338  13.493  1.1079 -0.1418  0.5460
   40DOPE  C317 5154   3.507   6.527  13.418  0.6751 -0.4260  0.2135
   40DOPE  H17X 5155   3.593   6.573  13.364 -0.1811  1.5711  0.4731
   40DOPE  H17Y 5156   3.412   6.567  13.378  0.1745  1.2306  2.7578
   40DOPE  C318 5157   3.518   6.580  13.562 -0.2007  0.4837  0.2822
   40DOPE  H18X 5158   3.442   6.533  13.628  1.4213 -1.0832  1.1408
   40DOPE  H18Y 5159   3.615   6.544  13.602 -1.0312 -1.2254  0.8667
   40DOPE  H18Z 5160   3.514   6.691  13.566  0.5488  0.5166  0.3068
   41DOPE     N 5161   1.756   6.408  11.996 -0.1036 -0.6527  0.4729
   41DOPE   HN1 5162   1.794   6.505  11.993 -2.0688  0.2378 -3.8865
   41DOPE   HN2 5163   1.749   6.390  11.894 -1.6871  1.5196  0.1198
   41DOPE   HN3 5164   1.656   6.407  12.027  0.5208 -0.4563  2.6835
   41DOPE   C12 5165   1.834   6.307  12.074 -1.0586  0.0632  0.6493
   41DOPE  H12A 5166   1.834   6.333  12.182 -1.0442  1.2470  0.3823
   41DOPE  H12B 5167   1.944   6.322  12.061 -1.3553  1.4049 -0.6157
   41DOPE   C11 5168   1.817   6.160  12.032  0.4931  0.1431 -0.4026
   41DOPE  H11A 5169   1.819   6.158  11.921  1.4287 -0.3059 -0.3873
   41DOPE  H11B 5170   1.719   6.123  12.070  1.2894 -2.0757 -0.3944
   41DOPE     P 5171   2.046   6.026  12.019  0.2790 -0.1743  0.1208
   41DOPE   O13 5172   2.080   6.117  11.910 -0.1895  0.2974  0.0697
   41DOPE   O14 5173   2.039   5.885  11.990 -0.2427 -0.0204  0.5568
   41DOPE   O11 5174   2.152   6.042  12.134 -0.0904  0.3204  0.4922
   41DOPE   O12 5175   1.919   6.079  12.089  0.4374  0.4567  0.0369
   41DOPE    C1 5176   2.164   6.162  12.218 -0.1428 -0.1861  0.3279
   41DOPE    HA 5177   2.067   6.215  12.223 -1.0287 -1.1781 -3.1782
   41DOPE    HB 5178   2.236   6.236  12.175 -0.4211  0.1086  0.3666
   41DOPE    C2 5179   2.206   6.120  12.356 -0.2218 -0.1057 -0.3777
   41DOPE    HS 5180   2.203   6.206  12.426  1.2337  0.1964 -0.6592
   41DOPE   O21 5181   2.336   6.059  12.342  0.0450 -0.1692  0.0093
   41DOPE   C21 5182   2.432   6.079  12.432 -0.9202  0.2845  0.1318
   41DOPE   O22 5183   2.439   6.166  12.515 -0.6175  0.4275 -0.4401
   41DOPE   C22 5184   2.535   5.959  12.422 -0.7020  0.0177  0.7308
   41DOPE   H2R 5185   2.564   5.947  12.315 -0.0214 -0.3768  0.9535
   41DOPE   H2S 5186   2.481   5.868  12.455  1.1995 -1.8269 -0.8553
   41DOPE    C3 5187   2.099   6.021  12.419  0.4149 -0.2567 -0.5225
   41DOPE    HX 5188   2.115   5.918  12.381 -0.4663  0.5496 -3.2985
   41DOPE    HY 5189   2.003   6.061  12.381  1.8399  1.2113 -2.8371
   41DOPE   O31 5190   2.105   6.041  12.563  0.6655 -0.0980 -0.8471
   41DOPE   C31 5191   2.181   5.955  12.627 -0.6935  0.2252  1.1832
   41DOPE   O32 5192   2.230   5.855  12.572  0.2436 -0.0948 -0.3480
   41DOPE   C32 5193   2.191   5.974  12.775  0.2328 -0.3012  0.5151
   41DOPE   H2X 5194   2.114   6.045  12.811 -0.2652  0.0537 -1.1577
   41DOPE   H2Y 5195   2.175   5.872  12.817 -1.5678 -0.3884 -0.2777
   41DOPE   C23 5196   2.655   5.993  12.514 -0.5776 -0.1204 -0.0200
   41DOPE   H3R 5197   2.606   6.028  12.607  0.4666  1.3959 -0.0124
   41DOPE   H3S 5198   2.703   6.085  12.475  0.3609 -0.3518  0.5387
   41DOPE   C24 5199   2.763   5.890  12.524 -1.1666 -0.1388  0.6337
   41DOPE   H4R 5200   2.805   5.871  12.424 -3.6592  1.1716 -0.7576
   41DOPE   H4S 5201   2.705   5.801  12.555 -3.4426  0.0064 -2.7208
   41DOPE   C25 5202   2.880   5.917  12.625 -0.2577  0.2771  0.2553
   41DOPE   H5R 5203   2.949   5.997  12.590 -1.1564  0.6214 -0.8036
   41DOPE   H5S 5204   2.950   5.831  12.622  0.5687  0.9558 -1.9296
   41DOPE   C26 5205   2.833   5.947  12.763  0.2599  0.3478 -0.4782
   41DOPE   H6R 5206   2.741   5.891  12.790  0.7788 -0.2807  0.0110
   41DOPE   H6S 5207   2.802   6.053  12.775 -0.1257  0.1351  0.5799
   41DOPE   C27 5208   2.930   5.904  12.872 -0.1996  0.6364 -0.2935
   41DOPE   H7R 5209   3.031   5.940  12.841 -0.4736  2.3087  0.6471
   41DOPE   H7S 5210   2.936   5.793  12.869  0.3408  0.5165  2.6850
   41DOPE   C28 5211   2.898   5.943  13.017  0.1233 -0.3796 -0.5256
   41DOPE   H8R 5212   2.896   6.054  13.019 -0.0979 -0.3493 -1.9190
   41DOPE   H8S 5213   2.982   5.914  13.084 -0.4615 -1.1430 -0.1097
   41DOPE   C29 5214   2.773   5.883  13.064 -0.2107 -0.0217  0.1769
   41DOPE   H9R 5215   2.692   5.900  12.992  0.3248  1.3298 -0.1470
   41DOPE  C210 5216   2.757   5.801  13.166  0.0375 -0.1596 -0.1435
   41DOPE  H10R 5217   2.659   5.753  13.176 -0.3413  0.9554  1.9795
   41DOPE  C211 5218   2.868   5.766  13.261 -0.2183  0.3739 -0.3500
   41DOPE  H11R 5219   2.973   5.785  13.230  0.0463 -0.7331 -0.1909
   41DOPE  H11S 5220   2.867   5.656  13.281 -0.5630  0.7467  1.9008
   41DOPE  C212 5221   2.840   5.835  13.395 -0.4809 -0.9308 -0.6336
   41DOPE  H12R 5222   2.733   5.826  13.424 -1.1584  1.0637 -2.3148
   41DOPE  H12S 5223   2.868   5.942  13.395 -2.0364 -0.4964 -0.8119
   41DOPE  C213 5224   2.929   5.793  13.515 -0.0652  1.0327  0.6702
   41DOPE  H13R 5225   3.031   5.816  13.477 -0.4326  1.8536  0.1434
   41DOPE  H13S 5226   2.916   5.684  13.533  0.5075  0.7749 -0.4399
   41DOPE  C214 5227   2.897   5.868  13.639 -0.3969  0.4420 -0.2518
   41DOPE  H14R 5228   2.791   5.902  13.632 -0.3917  0.3034 -1.1674
   41DOPE  H14S 5229   2.952   5.963  13.625 -0.5957  0.4403 -1.0919
   41DOPE  C215 5230   2.932   5.800  13.771  0.2008 -0.1515  0.0457
   41DOPE  H15R 5231   3.043   5.790  13.772  0.1375 -0.9732  0.2675
   41DOPE  H15S 5232   2.886   5.698  13.768 -0.8243  0.3091 -0.2468
   41DOPE  C216 5233   2.901   5.867  13.895  0.5228 -0.6375 -0.1541
   41DOPE  H16R 5234   2.792   5.878  13.908  0.6771  1.8679 -0.3766
   41DOPE  H16S 5235   2.931   5.974  13.883 -0.6956 -0.2061  0.4845
   41DOPE  C217 5236   2.962   5.803  14.025  0.0680  0.0807  0.1896
   41DOPE  H17R 5237   3.027   5.718  13.993  1.3961  0.1935  2.4048
   41DOPE  H17S 5238   2.887   5.761  14.096  1.4323  1.1152  2.3215
   41DOPE  C218 5239   3.053   5.898  14.099 -0.7410  0.5271 -0.2881
   41DOPE  H18R 5240   3.007   5.989  14.143 -0.9996 -0.8957  2.6270
   41DOPE  H18S 5241   3.130   5.930  14.025  0.1795 -0.9372 -0.0126
   41DOPE  H18T 5242   3.106   5.852  14.185  0.4907  2.2619 -0.0584
   41DOPE   C33 5243   2.320   6.025  12.827 -0.5171  0.7159  0.0347
   41DOPE   H3X 5244   2.334   6.129  12.790  2.4898  0.9637  1.5244
   41DOPE   H3Y 5245   2.404   5.967  12.783 -2.0107  0.5840 -2.8455
   41DOPE   C34 5246   2.333   6.015  12.979 -0.2678 -0.2286 -1.3360
   41DOPE   H4X 5247   2.236   6.046  13.024 -0.3135  1.2939 -2.4017
   41DOPE   H4Y 5248   2.343   5.908  13.007  0.1696  0.1698  0.1169
   41DOPE   C35 5249   2.449   6.105  13.022 -0.5260 -0.4469 -0.8664
   41DOPE   H5X 5250   2.426   6.212  13.003  1.3370  0.3358  0.9155
   41DOPE   H5Y 5251   2.535   6.074  12.959  0.3060  1.1350 -0.5716
   41DOPE   C36 5252   2.463   6.081  13.173 -0.4964 -0.2147 -0.5383
   41DOPE   H6X 5253   2.472   5.972  13.193 -0.3565 -0.2126 -0.5871
   41DOPE   H6Y 5254   2.363   6.107  13.214  0.3961  1.3073  0.7706
   41DOPE   C37 5255   2.571   6.163  13.233 -0.3514 -0.1437  0.0403
   41DOPE   H7X 5256   2.671   6.141  13.191  0.0969  1.5697  0.1080
   41DOPE   H7Y 5257   2.557   6.268  13.200  0.1012 -0.6779 -1.9797
   41DOPE   C38 5258   2.580   6.159  13.388  0.6519  0.8647 -0.2725
   41DOPE   H8X 5259   2.662   6.225  13.425  0.4276  0.5530  0.8099
   41DOPE   H8Y 5260   2.602   6.055  13.419  1.5755  0.9370 -0.6503
   41DOPE   C39 5261   2.447   6.207  13.457 -1.1951 -0.0643 -0.1667
   41DOPE   H9X 5262   2.378   6.245  13.380  1.9040  2.8163 -1.8290
   41DOPE  C310 5263   2.416   6.199  13.584  0.6974  0.3149 -0.5400
   41DOPE  H10X 5264   2.315   6.230  13.612  0.9374  1.4718 -0.8651
   41DOPE  C311 5265   2.499   6.127  13.691 -0.8169 -0.3816 -0.3405
   41DOPE  H11X 5266   2.446   6.093  13.782 -0.0913 -0.6291  0.0026
   41DOPE  H11Y 5267   2.556   6.040  13.651  1.9933  0.2283  2.0098
   41DOPE  C312 5268   2.603   6.232  13.754 -0.3554  0.7886 -0.6142
   41DOPE  H12X 5269   2.542   6.317  13.789 -0.4343  0.3009  0.4601
   41DOPE  H12Y 5270   2.678   6.260  13.676 -0.2343  0.7691 -0.5049
   41DOPE  C313 5271   2.679   6.167  13.873  1.0655 -0.3044  0.5254
   41DOPE  H13X 5272   2.605   6.111  13.934 -1.1385  1.4267 -0.4404
   41DOPE  H13Y 5273   2.749   6.098  13.821  0.7543 -0.4967  0.3572
   41DOPE  C314 5274   2.749   6.267  13.960  0.1342  0.5213 -0.6849
   41DOPE  H14X 5275   2.687   6.333  14.025 -0.4248 -0.9951  0.3758
   41DOPE  H14Y 5276   2.812   6.336  13.900  1.8269 -1.0063 -0.7744
   41DOPE  C315 5277   2.836   6.195  14.069 -0.5706 -0.6615 -0.6609
   41DOPE  H15X 5278   2.931   6.163  14.021 -0.0797  2.4472 -2.0257
   41DOPE  H15Y 5279   2.777   6.109  14.106 -0.8732 -1.0119 -1.9118
   41DOPE  C316 5280   2.874   6.290  14.188 -0.2673 -0.4239 -0.1350
   41DOPE  H16X 5281   2.784   6.327  14.243 -0.0501  3.5628 -2.0488
   41DOPE  H16Y 5282   2.924   6.373  14.133 -0.1556 -1.8894 -2.3352
   41DOPE  C317 5283   2.975   6.231  14.280  0.2036  0.1148 -0.1345
   41DOPE  H17X 5284   2.932   6.148  14.340 -0.2580  0.1660 -0.3842
   41DOPE  H17Y 5285   3.059   6.191  14.220  0.5899  1.5867 -0.6240
   41DOPE  C318 5286   3.033   6.332  14.382 -0.3553 -0.0162  0.4650
   41DOPE  H18X 5287   2.951   6.383  14.438 -0.3926 -0.2493  0.6258
   41DOPE  H18Y 5288   3.090   6.297  14.471  0.3312  2.3756  1.0430
   41DOPE  H18Z 5289   3.085   6.420  14.339  1.3757  0.2302  2.8542
   42DOPE     N 5290   2.106   5.138  12.290 -0.1661  0.5099  0.5966
   42DOPE   HN1 5291   2.070   5.095  12.203  0.2404 -0.1573  0.7495
   42DOPE   HN2 5292   2.033   5.142  12.364  3.0106  1.3468  3.9881
   42DOPE   HN3 5293   2.144   5.235  12.298  2.2383 -0.4475  1.8679
   42DOPE   C12 5294   2.222   5.051  12.324  0.3341 -0.3568 -0.6384
   42DOPE  H12A 5295   2.303   5.111  12.370 -0.7131 -0.0184  0.8321
   42DOPE  H12B 5296   2.247   4.992  12.233  1.8239 -1.0245  0.1587
   42DOPE   C11 5297   2.186   4.947  12.440  0.3982  0.3723  0.1311
   42DOPE  H11A 5298   2.166   5.007  12.531 -1.9936 -0.1884  0.0336
   42DOPE  H11B 5299   2.282   4.891  12.451  1.3755  2.0644  0.5599
   42DOPE     P 5300   1.946   4.856  12.456 -0.2366 -0.4666 -0.0431
   42DOPE   O13 5301   1.871   4.740  12.417 -0.4638 -0.2486  0.2972
   42DOPE   O14 5302   1.890   4.987  12.417 -0.0025  0.0949  0.0387
   42DOPE   O11 5303   1.955   4.867  12.615  0.2590  0.2840 -0.3867
   42DOPE   O12 5304   2.089   4.851  12.409  0.7551  0.2459  0.5528
   42DOPE    C1 5305   2.029   4.762  12.690  0.0958 -0.3583  0.6070
   42DOPE    HA 5306   2.137   4.781  12.673 -0.1217 -1.4487 -2.4707
   42DOPE    HB 5307   2.004   4.661  12.651  1.3064  0.4485 -2.5994
   42DOPE    C2 5308   1.993   4.771  12.844 -0.2119 -0.7470 -0.3616
   42DOPE    HS 5309   2.040   4.685  12.896 -1.3840 -0.4064  1.3187
   42DOPE   O21 5310   1.848   4.769  12.872 -0.0739  0.3522  0.9333
   42DOPE   C21 5311   1.773   4.673  12.816 -0.3274 -0.6980  0.1026
   42DOPE   O22 5312   1.821   4.573  12.766  0.4079 -0.3423 -0.4409
   42DOPE   C22 5313   1.621   4.697  12.829  0.1376 -0.5093 -0.5835
   42DOPE   H2R 5314   1.575   4.596  12.824 -0.0066 -0.4013 -3.9513
   42DOPE   H2S 5315   1.590   4.741  12.731 -1.7825  1.3755  0.7749
   42DOPE    C3 5316   2.051   4.901  12.897 -0.1189 -0.1961 -0.1340
   42DOPE    HX 5317   2.013   4.989  12.839 -0.0224  1.0449  1.6016
   42DOPE    HY 5318   2.160   4.899  12.876  0.1771  1.4232  0.9838
   42DOPE   O31 5319   2.033   4.921  13.040 -0.4047  0.8999  0.4977
   42DOPE   C31 5320   1.934   5.000  13.076 -0.1964 -0.7601  0.4200
   42DOPE   O32 5321   1.847   5.034  13.002  0.7108  0.0449  0.4409
   42DOPE   C32 5322   1.953   5.051  13.223  0.7509  0.3898  0.0293
   42DOPE   H2X 5323   2.050   5.017  13.266  1.7701  1.5329 -1.2461
   42DOPE   H2Y 5324   1.953   5.161  13.207 -0.2643  0.3504 -0.3176
   42DOPE   C23 5325   1.576   4.789  12.936 -0.2272  0.3524 -0.2216
   42DOPE   H3R 5326   1.486   4.843  12.900 -2.0489 -1.0769  1.8922
   42DOPE   H3S 5327   1.654   4.860  12.971 -0.0680 -0.5226  1.3036
   42DOPE   C24 5328   1.560   4.712  13.071 -0.0566 -0.4314 -0.1689
   42DOPE   H4R 5329   1.662   4.677  13.097 -0.3737  0.4701  2.6645
   42DOPE   H4S 5330   1.490   4.628  13.051 -1.7581  0.6522  0.9195
   42DOPE   C25 5331   1.501   4.792  13.185 -0.6533 -0.0835  0.1598
   42DOPE   H5R 5332   1.401   4.833  13.158 -0.2885  1.9243  1.6181
   42DOPE   H5S 5333   1.567   4.881  13.200  0.0832 -0.5836 -0.0803
   42DOPE   C26 5334   1.501   4.719  13.317 -0.1241  0.3535 -0.2216
   42DOPE   H6R 5335   1.598   4.672  13.342  0.2379  0.4523 -1.3518
   42DOPE   H6S 5336   1.434   4.631  13.306  2.0718 -1.3333 -0.7433
   42DOPE   C27 5337   1.468   4.797  13.441  0.3298 -0.6076  0.0939
   42DOPE   H7R 5338   1.391   4.874  13.425  1.3521  0.3916 -0.1337
   42DOPE   H7S 5339   1.559   4.848  13.479  0.9237  1.1252 -3.2933
   42DOPE   C28 5340   1.412   4.701  13.547 -0.2383 -0.7213  0.2870
   42DOPE   H8R 5341   1.488   4.626  13.577 -0.4361 -0.8712  0.4126
   42DOPE   H8S 5342   1.322   4.660  13.496  0.0550 -0.7872 -0.1800
   42DOPE   C29 5343   1.367   4.768  13.676  0.7553 -0.0664  0.4875
   42DOPE   H9R 5344   1.265   4.809  13.673  0.6661 -0.3581 -0.7763
   42DOPE  C210 5345   1.427   4.766  13.794 -0.6231  0.7647 -0.1097
   42DOPE  H10R 5346   1.388   4.836  13.869 -1.7191 -0.2698  0.3136
   42DOPE  C211 5347   1.563   4.701  13.821 -0.2439 -0.0889  0.6510
   42DOPE  H11R 5348   1.644   4.773  13.802  0.3863 -0.6187  1.2708
   42DOPE  H11S 5349   1.580   4.604  13.769  2.8702 -0.0545  1.4391
   42DOPE  C212 5350   1.562   4.675  13.970  0.6531  0.4083 -0.0080
   42DOPE  H12R 5351   1.517   4.756  14.032 -1.2777  1.4325 -2.6104
   42DOPE  H12S 5352   1.671   4.671  13.992  0.6519 -1.4740 -0.2483
   42DOPE  C213 5353   1.495   4.540  14.019  0.9331 -0.3425 -0.1193
   42DOPE  H13R 5354   1.531   4.450  13.965 -0.8940 -2.1854  1.5623
   42DOPE  H13S 5355   1.385   4.545  14.000  0.9390  6.1758 -0.6994
   42DOPE  C214 5356   1.511   4.522  14.169  0.1953  0.3936 -0.3337
   42DOPE  H14R 5357   1.476   4.421  14.199  1.3440  0.6637  2.1113
   42DOPE  H14S 5358   1.450   4.591  14.230  3.0257  2.4944  0.3552
   42DOPE  C215 5359   1.657   4.521  14.219  0.0384  0.1697  0.3635
   42DOPE  H15R 5360   1.699   4.623  14.212  1.7871 -0.4782  0.7580
   42DOPE  H15S 5361   1.717   4.458  14.149  0.6312  1.8949 -0.7311
   42DOPE  C216 5362   1.664   4.461  14.362  0.5268  0.2762 -0.0584
   42DOPE  H16R 5363   1.582   4.511  14.417 -2.3604 -2.9816 -1.0863
   42DOPE  H16S 5364   1.759   4.475  14.418  0.4759 -0.6127  0.2576
   42DOPE  C217 5365   1.642   4.308  14.364 -0.1846 -0.5276 -0.0303
   42DOPE  H17R 5366   1.555   4.280  14.300  0.2112  1.1831 -1.3859
   42DOPE  H17S 5367   1.639   4.277  14.471 -0.0079  1.2778  0.5441
   42DOPE  C218 5368   1.760   4.221  14.321 -0.1078  0.5893 -0.1711
   42DOPE  H18R 5369   1.766   4.213  14.210  2.6875  1.1769 -0.1149
   42DOPE  H18S 5370   1.756   4.119  14.364  1.0447  0.5374 -0.1720
   42DOPE  H18T 5371   1.858   4.263  14.349 -0.6849  0.8187  1.6374
   42DOPE   C33 5372   1.832   5.026  13.321  0.0970  0.1230 -0.3830
   42DOPE   H3X 5373   1.823   4.915  13.322  1.2401  0.0180 -0.0628
   42DOPE   H3Y 5374   1.734   5.060  13.281 -0.1722 -0.1048  0.0730
   42DOPE   C34 5375   1.874   5.077  13.467 -0.3797  0.0542  0.4894
   42DOPE   H4X 5376   1.969   5.031  13.501 -0.6093 -0.5080  0.3819
   42DOPE   H4Y 5377   1.896   5.185  13.454  0.4913 -0.4167 -3.4350
   42DOPE   C35 5378   1.758   5.057  13.563 -0.5020  0.6139  0.3136
   42DOPE   H5X 5379   1.757   4.951  13.597 -1.6264  0.3388 -0.5209
   42DOPE   H5Y 5380   1.662   5.071  13.508  0.7719  2.6179 -1.5293
   42DOPE   C36 5381   1.767   5.149  13.684  0.1981  0.2659  0.2359
   42DOPE   H6X 5382   1.732   5.249  13.651  0.5693  0.3796  0.1905
   42DOPE   H6Y 5383   1.872   5.165  13.718 -0.3987  0.3112  2.2085
   42DOPE   C37 5384   1.686   5.091  13.793  0.0627 -0.9844 -1.3294
   42DOPE   H7X 5385   1.582   5.077  13.757 -0.5322 -2.1471  0.6513
   42DOPE   H7Y 5386   1.714   4.987  13.819 -0.0539 -0.6989  0.0385
   42DOPE   C38 5387   1.699   5.183  13.921  0.0990  0.5019  0.4500
   42DOPE   H8X 5388   1.658   5.282  13.890 -2.3860 -0.4489  0.4512
   42DOPE   H8Y 5389   1.809   5.195  13.934  0.2112 -1.2957  1.4520
   42DOPE   C39 5390   1.635   5.135  14.046  0.0641 -0.2089  0.0014
   42DOPE   H9X 5391   1.535   5.093  14.029 -0.7160 -0.5532  4.2953
   42DOPE  C310 5392   1.688   5.125  14.165 -0.1602  0.0480 -0.4378
   42DOPE  H10X 5393   1.629   5.074  14.243  0.4886 -0.3411 -0.1873
   42DOPE  C311 5394   1.821   5.163  14.222  0.4816 -0.7173  0.8463
   42DOPE  H11X 5395   1.853   5.084  14.294 -3.5809 -1.9095  1.6147
   42DOPE  H11Y 5396   1.885   5.156  14.131 -3.2190 -2.5971 -1.8670
   42DOPE  C312 5397   1.835   5.300  14.286 -0.3902 -0.0331  0.2910
   42DOPE  H12X 5398   1.942   5.329  14.289 -0.2992 -0.4024  1.3488
   42DOPE  H12Y 5399   1.796   5.299  14.390 -0.6636 -0.0021  0.1878
   42DOPE  C313 5400   1.760   5.408  14.209 -0.7655 -0.3609  0.1777
   42DOPE  H13X 5401   1.806   5.396  14.109  1.9128 -0.1125  1.3037
   42DOPE  H13Y 5402   1.650   5.393  14.198 -0.9484  1.1103 -0.2882
   42DOPE  C314 5403   1.793   5.551  14.253  0.7996 -0.7861  0.3822
   42DOPE  H14X 5404   1.756   5.618  14.173 -0.8485 -1.3761  0.6048
   42DOPE  H14Y 5405   1.902   5.562  14.270  1.1987 -0.7091 -1.9172
   42DOPE  C315 5406   1.715   5.604  14.374  0.6242  0.8023 -0.5723
   42DOPE  H15X 5407   1.751   5.545  14.461 -2.2679 -0.5136 -0.1499
   42DOPE  H15Y 5408   1.608   5.575  14.372  0.6895  0.2903  1.3867
   42DOPE  C316 5409   1.750   5.747  14.409  0.7353  0.5157  0.5829
   42DOPE  H16X 5410   1.694   5.792  14.494 -0.5714  1.9427 -0.9662
   42DOPE  H16Y 5411   1.710   5.807  14.324  0.4783 -0.0593  0.2922
   42DOPE  C317 5412   1.903   5.770  14.415 -0.3405  0.5526  0.4304
   42DOPE  H17X 5413   1.933   5.676  14.467 -3.4364  0.5001  2.3407
   42DOPE  H17Y 5414   1.941   5.778  14.311 -0.0397 -1.9036  0.2685
   42DOPE  C318 5415   1.955   5.886  14.497 -0.2699  0.3248 -0.1301
   42DOPE  H18X 5416   1.958   5.980  14.438 -0.7551  0.5450  0.1909
   42DOPE  H18Y 5417   1.899   5.888  14.592 -2.0001 -0.5560 -1.0850
   42DOPE  H18Z 5418   2.063   5.872  14.521  1.0016  3.7533 -2.9597
   43DOPE     N 5419   1.332   3.868  12.393 -0.0571 -0.0596 -0.0967
   43DOPE   HN1 5420   1.431   3.838  12.381  0.2567  1.2346 -0.9569
   43DOPE   HN2 5421   1.265   3.797  12.358  0.3616  0.2310 -1.5502
   43DOPE   HN3 5422   1.320   3.952  12.332  1.5412  0.3296  0.0796
   43DOPE   C12 5423   1.311   3.908  12.536 -0.1277  0.4040  0.0148
   43DOPE  H12A 5424   1.209   3.948  12.552  0.2839  1.1071  1.0493
   43DOPE  H12B 5425   1.383   3.991  12.552 -1.4378  1.0827  3.1428
   43DOPE   C11 5426   1.327   3.785  12.628 -0.4851  0.4303 -0.3550
   43DOPE  H11A 5427   1.257   3.705  12.596  0.6326 -0.2437 -1.2143
   43DOPE  H11B 5428   1.299   3.810  12.732  0.2676 -2.4003  0.6358
   43DOPE     P 5429   1.569   3.792  12.719  0.3649 -0.1471 -0.0885
   43DOPE   O13 5430   1.578   3.935  12.699  0.1953 -0.2678  0.5894
   43DOPE   O14 5431   1.692   3.711  12.698 -0.0180  0.0053 -0.1721
   43DOPE   O11 5432   1.499   3.762  12.857  0.3626 -0.5339  0.0504
   43DOPE   O12 5433   1.460   3.730  12.627  0.6744 -0.2947 -0.4239
   43DOPE    C1 5434   1.518   3.851  12.970 -0.0922  0.6747 -0.1814
   43DOPE    HA 5435   1.428   3.915  12.980  0.1658  0.7392  2.6741
   43DOPE    HB 5436   1.602   3.923  12.961 -0.0836  0.8666  1.1081
   43DOPE    C2 5437   1.553   3.773  13.099  0.5286  0.4303 -0.0922
   43DOPE    HS 5438   1.610   3.833  13.173  0.0520 -0.2927  0.8778
   43DOPE   O21 5439   1.618   3.649  13.067  0.0438  0.0922  0.6447
   43DOPE   C21 5440   1.745   3.670  13.033  0.6296  0.4146 -0.3527
   43DOPE   O22 5441   1.805   3.773  13.023  0.1037 -0.7232  0.0033
   43DOPE   C22 5442   1.814   3.525  13.037  0.1405 -0.3356 -0.5485
   43DOPE   H2R 5443   1.876   3.519  12.945  1.4337  3.3636 -0.1048
   43DOPE   H2S 5444   1.737   3.445  13.033 -1.8191  1.4961 -1.4571
   43DOPE    C3 5445   1.422   3.734  13.174  0.0853 -1.0011 -0.0155
   43DOPE    HX 5446   1.363   3.689  13.092 -0.2208 -0.3967 -0.1311
   43DOPE    HY 5447   1.368   3.825  13.208  1.7583 -0.3811  1.1790
   43DOPE   O31 5448   1.431   3.644  13.286  0.2498  0.5020  0.2637
   43DOPE   C31 5449   1.491   3.698  13.393 -0.7058 -1.4794  0.0687
   43DOPE   O32 5450   1.531   3.814  13.401  0.7558  0.0052  0.5689
   43DOPE   C32 5451   1.482   3.605  13.507  0.3142  0.0787  0.1704
   43DOPE   H2X 5452   1.375   3.576  13.499  0.1203  1.1582 -1.8202
   43DOPE   H2Y 5453   1.536   3.516  13.468  1.4242  1.0622 -0.6080
   43DOPE   C23 5454   1.903   3.509  13.164  0.7668  0.1996  0.1658
   43DOPE   H3R 5455   1.969   3.598  13.167 -0.1915  0.9092  0.9292
   43DOPE   H3S 5456   1.963   3.418  13.145 -0.7184 -0.5944 -0.9371
   43DOPE   C24 5457   1.824   3.509  13.301  0.1722 -0.5862  0.6317
   43DOPE   H4R 5458   1.765   3.415  13.296  0.3818 -0.6752 -1.0257
   43DOPE   H4S 5459   1.757   3.597  13.311  1.1532  0.3395 -0.5950
   43DOPE   C25 5460   1.924   3.509  13.416 -0.1889 -0.1587  0.0770
   43DOPE   H5R 5461   1.973   3.608  13.422 -0.7755  0.0774  1.3270
   43DOPE   H5S 5462   2.001   3.432  13.393 -1.6146 -1.3216 -1.0108
   43DOPE   C26 5463   1.865   3.470  13.550 -0.0933 -0.6064  0.0970
   43DOPE   H6R 5464   1.816   3.370  13.560  0.2091 -0.7786 -0.1321
   43DOPE   H6S 5465   1.783   3.540  13.576 -0.4051 -0.9496  0.0523
   43DOPE   C27 5466   1.968   3.496  13.654 -0.1803  0.3796 -0.7455
   43DOPE   H7R 5467   2.020   3.594  13.658  0.5560 -0.0257  2.4645
   43DOPE   H7S 5468   2.046   3.418  13.640 -1.2109 -1.4300  2.5195
   43DOPE   C28 5469   1.915   3.470  13.798  0.2722 -0.0036  0.3153
   43DOPE   H8R 5470   1.894   3.362  13.807 -2.2193  0.2652 -1.2814
   43DOPE   H8S 5471   1.820   3.527  13.807  0.9800  1.3690 -0.5026
   43DOPE   C29 5472   2.010   3.504  13.910  0.1030  0.3334  0.6883
   43DOPE   H9R 5473   2.114   3.529  13.883  0.4651 -1.0841  0.6539
   43DOPE  C210 5474   1.974   3.528  14.037  0.9108 -0.6129  0.5306
   43DOPE  H10R 5475   2.051   3.557  14.111 -0.2193  2.4502  0.6376
   43DOPE  C211 5476   1.829   3.526  14.085  0.6301  0.5223 -0.6004
   43DOPE  H11R 5477   1.769   3.456  14.023  1.3677  0.1228 -0.8809
   43DOPE  H11S 5478   1.773   3.622  14.092  0.5583  0.4970 -0.8060
   43DOPE  C212 5479   1.812   3.472  14.225  0.0405  0.2074 -0.4127
   43DOPE  H12R 5480   1.836   3.364  14.224  1.2690  0.4473  0.1933
   43DOPE  H12S 5481   1.708   3.479  14.264 -0.2481  2.6053 -1.3954
   43DOPE  C213 5482   1.912   3.532  14.328 -0.6262 -0.5536  0.1043
   43DOPE  H13R 5483   1.923   3.642  14.315 -0.7867 -0.3086  1.7918
   43DOPE  H13S 5484   2.015   3.495  14.311 -0.8062 -1.0072 -0.0141
   43DOPE  C214 5485   1.887   3.500  14.472 -0.2996  0.1016 -0.3384
   43DOPE  H14R 5486   1.979   3.452  14.511  0.3893 -0.3072 -2.3333
   43DOPE  H14S 5487   1.815   3.416  14.472 -0.1952  0.0040 -1.3642
   43DOPE  C215 5488   1.845   3.608  14.570  0.7441 -0.6010  0.0486
   43DOPE  H15R 5489   1.925   3.684  14.578  0.4534 -0.2947  0.0349
   43DOPE  H15S 5490   1.827   3.558  14.668 -0.4298  1.0698  0.7207
   43DOPE  C216 5491   1.718   3.676  14.516  0.2015 -0.0618 -0.6880
   43DOPE  H16R 5492   1.649   3.591  14.495  1.2472 -0.6399 -1.9712
   43DOPE  H16S 5493   1.743   3.729  14.422  1.2525 -0.9408 -0.9238
   43DOPE  C217 5494   1.665   3.777  14.616 -0.8097 -0.1996 -0.5046
   43DOPE  H17R 5495   1.672   3.732  14.718  1.6783 -0.9068 -0.9410
   43DOPE  H17S 5496   1.561   3.810  14.592 -0.9895  0.9189  1.5627
   43DOPE  C218 5497   1.745   3.915  14.620  0.0279 -0.5568 -0.0168
   43DOPE  H18R 5498   1.732   3.974  14.527  0.2573  0.0456  0.3239
   43DOPE  H18S 5499   1.853   3.891  14.630 -0.6562 -3.3589  1.7407
   43DOPE  H18T 5500   1.701   3.974  14.703 -2.9391 -0.3661 -1.6080
   43DOPE   C33 5501   1.528   3.660  13.645  0.8168  0.3016  0.9563
   43DOPE   H3X 5502   1.465   3.747  13.676 -2.8373 -1.4563 -0.8565
   43DOPE   H3Y 5503   1.637   3.681  13.652  0.7710  2.0758 -1.8703
   43DOPE   C34 5504   1.499   3.544  13.751  0.0102 -0.1292  1.1420
   43DOPE   H4X 5505   1.396   3.506  13.733 -0.2429  1.6666 -2.0104
   43DOPE   H4Y 5506   1.582   3.471  13.739  1.6415  1.7747  0.3164
   43DOPE   C35 5507   1.495   3.604  13.895 -0.2126  0.4860 -0.1003
   43DOPE   H5X 5508   1.427   3.692  13.898  2.0272  2.3198 -0.1537
   43DOPE   H5Y 5509   1.596   3.637  13.927 -0.7589  2.4042 -0.2537
   43DOPE   C36 5510   1.448   3.501  13.996  0.1893 -0.3671 -0.2030
   43DOPE   H6X 5511   1.520   3.417  13.999 -1.8242 -2.2030 -0.6923
   43DOPE   H6Y 5512   1.349   3.466  13.959  0.1568 -1.1902  0.6150
   43DOPE   C37 5513   1.440   3.547  14.138  0.4306  0.2929  0.5557
   43DOPE   H7X 5514   1.541   3.590  14.159  0.8723 -0.6356  0.3617
   43DOPE   H7Y 5515   1.367   3.630  14.147 -0.3509 -0.5463  2.8486
   43DOPE   C38 5516   1.406   3.428  14.238 -0.0403 -0.0914 -0.1248
   43DOPE   H8X 5517   1.422   3.472  14.338  3.4898  0.3213 -0.7322
   43DOPE   H8Y 5518   1.486   3.358  14.205  1.5946  2.1996 -1.3052
   43DOPE   C39 5519   1.273   3.360  14.219  0.3808  0.6380  0.1077
   43DOPE   H9X 5520   1.265   3.315  14.119  1.2097  0.7171 -0.0002
   43DOPE  C310 5521   1.170   3.350  14.304 -0.6829  0.3634 -0.2039
   43DOPE  H10X 5522   1.082   3.300  14.262  0.3858 -0.2462 -1.7725
   43DOPE  C311 5523   1.163   3.407  14.447 -0.5203 -1.0147  0.4281
   43DOPE  H11X 5524   1.268   3.397  14.484  0.0674  1.6370 -0.2833
   43DOPE  H11Y 5525   1.147   3.517  14.441 -0.5717 -1.0816 -1.4823
   43DOPE  C312 5526   1.061   3.348  14.531 -0.0866 -0.1499  0.1166
   43DOPE  H12X 5527   1.059   3.239  14.553 -0.8890  0.2973  2.5267
   43DOPE  H12Y 5528   0.959   3.373  14.495 -0.8658 -0.1056  2.2572
   43DOPE  C313 5529   1.078   3.411  14.669 -0.2233  0.1816  0.0416
   43DOPE  H13X 5530   1.182   3.392  14.702  1.6995  3.2320 -3.4295
   43DOPE  H13Y 5531   1.086   3.522  14.660  2.5205  0.1094  0.7313
   43DOPE  C314 5532   0.959   3.366  14.761 -0.4158 -0.6292 -0.2182
   43DOPE  H14X 5533   0.945   3.256  14.772  0.4143 -0.5474  2.1570
   43DOPE  H14Y 5534   0.872   3.407  14.704  0.7575  0.0996 -1.5541
   43DOPE  C315 5535   0.948   3.418  14.907  1.1564 -0.3223  0.0294
   43DOPE  H15X 5536   1.026   3.364  14.965  0.4296  0.1674  1.5180
   43DOPE  H15Y 5537   0.852   3.393  14.956  1.5304  0.4968  1.2201
   43DOPE  C316 5538   0.962   3.571  14.923  0.4500 -0.2002  0.1100
   43DOPE  H16X 5539   0.869   3.625  14.893  0.8225  0.6589  0.4554
   43DOPE  H16Y 5540   1.054   3.611  14.877  0.9803  0.8465  1.9586
   43DOPE  C317 5541   0.986   3.613  15.071 -0.2210  0.0433 -0.0872
   43DOPE  H17X 5542   0.887   3.607  15.121 -0.7754 -0.9981 -1.2606
   43DOPE  H17Y 5543   1.055   3.536  15.111  0.1756 -0.4853 -1.7334
   43DOPE  C318 5544   1.056   3.748  15.089 -0.2164 -0.0013 -0.5114
   43DOPE  H18X 5545   1.166   3.737  15.080 -0.3713 -0.9590 -1.4602
   43DOPE  H18Y 5546   1.028   3.822  15.011  2.4060  0.6547 -0.9218
   43DOPE  H18Z 5547   1.033   3.776  15.194 -0.7376 -0.2268 -0.5572
   44DOPE     N 5548   3.372   2.551  12.335  0.7117  0.2993  0.0120
   44DOPE   HN1 5549   3.303   2.559  12.258 -1.3988 -0.7512  1.7102
   44DOPE   HN2 5550   3.467   2.572  12.296  0.5303 -1.0435 -1.2065
   44DOPE   HN3 5551   3.369   2.452  12.366  0.3624 -0.0401 -1.0563
   44DOPE   C12 5552   3.319   2.631  12.448  0.0266  0.3953  0.1903
   44DOPE  H12A 5553   3.401   2.680  12.504 -0.9246  2.1862  0.0842
   44DOPE  H12B 5554   3.266   2.558  12.514  1.2282 -0.6647  0.0176
   44DOPE   C11 5555   3.207   2.721  12.403  0.4500 -0.0109  0.5381
   44DOPE  H11A 5556   3.153   2.764  12.490  0.1725 -0.4980  0.6031
   44DOPE  H11B 5557   3.129   2.663  12.350 -0.2716  0.5674  0.9522
   44DOPE     P 5558   3.175   2.938  12.271  0.0394  0.1450 -0.1529
   44DOPE   O13 5559   3.064   2.883  12.197 -0.7521 -0.2039  0.3856
   44DOPE   O14 5560   3.263   3.040  12.208 -0.0976  0.4228  0.0159
   44DOPE   O11 5561   3.118   2.994  12.408 -0.2909  0.2434  0.0269
   44DOPE   O12 5562   3.266   2.820  12.323 -0.3737 -0.0513  0.5881
   44DOPE    C1 5563   3.191   3.087  12.489  0.1374 -0.6399  0.2119
   44DOPE    HA 5564   3.124   3.154  12.546 -0.8105  0.5463 -2.1248
   44DOPE    HB 5565   3.246   3.153  12.418 -0.4102 -0.9196 -0.4825
   44DOPE    C2 5566   3.299   3.022  12.579  0.3565  0.0772 -0.0452
   44DOPE    HS 5567   3.356   2.945  12.522  2.4578 -0.7632  2.9305
   44DOPE   O21 5568   3.231   2.966  12.691  0.3983 -0.7476  0.4381
   44DOPE   C21 5569   3.290   2.869  12.755 -0.0195  0.0394  0.3285
   44DOPE   O22 5570   3.408   2.837  12.736 -0.0978  0.1795  0.2789
   44DOPE   C22 5571   3.188   2.792  12.844 -0.7582  0.1074 -0.2229
   44DOPE   H2R 5572   3.106   2.759  12.777 -2.0488  1.1744  0.7673
   44DOPE   H2S 5573   3.154   2.868  12.917 -0.1768 -1.8169  2.1757
   44DOPE    C3 5574   3.410   3.123  12.624  0.4982 -0.3949 -0.2442
   44DOPE    HX 5575   3.468   3.148  12.533  1.4300 -1.8915 -0.0954
   44DOPE    HY 5576   3.482   3.074  12.693  1.5113 -0.9903 -1.6803
   44DOPE   O31 5577   3.352   3.245  12.671 -0.5070  0.2457  0.1625
   44DOPE   C31 5578   3.343   3.243  12.806 -0.2223 -0.2730  0.5195
   44DOPE   O32 5579   3.365   3.149  12.878  0.3229 -0.2159  0.4394
   44DOPE   C32 5580   3.271   3.370  12.854  0.0672  0.2924 -0.6772
   44DOPE   H2X 5581   3.276   3.446  12.772  0.8008  1.4082  0.3734
   44DOPE   H2Y 5582   3.164   3.344  12.869 -0.4659  1.9763 -1.2484
   44DOPE   C23 5583   3.271   2.695  12.928  0.1179 -0.1677  0.0792
   44DOPE   H3R 5584   3.365   2.732  12.975  0.2583 -1.7559  1.1562
   44DOPE   H3S 5585   3.299   2.606  12.867 -1.1434  0.3268 -1.2697
   44DOPE   C24 5586   3.175   2.632  13.046  0.0091  0.4357  0.2661
   44DOPE   H4R 5587   3.090   2.583  12.994 -0.5035 -0.2558  1.6984
   44DOPE   H4S 5588   3.140   2.711  13.117  0.0687 -0.6915  1.5995
   44DOPE   C25 5589   3.251   2.531  13.130  0.9132 -0.2963 -0.9705
   44DOPE   H5R 5590   3.355   2.564  13.154  0.7238 -1.6687  2.1646
   44DOPE   H5S 5591   3.256   2.435  13.074 -2.1264 -2.3182  1.8409
   44DOPE   C26 5592   3.173   2.502  13.261 -0.0142  0.2728  0.1686
   44DOPE   H6R 5593   3.075   2.454  13.241 -0.9842  0.5551  3.5410
   44DOPE   H6S 5594   3.147   2.603  13.300  0.7194  0.8439 -0.7727
   44DOPE   C27 5595   3.245   2.413  13.368 -0.1536  0.2237 -0.1697
   44DOPE   H7R 5596   3.334   2.464  13.410  1.1039 -2.5932  0.8151
   44DOPE   H7S 5597   3.281   2.335  13.298 -0.4821 -0.0097 -0.0828
   44DOPE   C28 5598   3.152   2.373  13.479  0.5535 -0.4030 -0.2710
   44DOPE   H8R 5599   3.060   2.326  13.440  0.4493  0.2430 -0.8426
   44DOPE   H8S 5600   3.112   2.462  13.532  1.3913 -0.2533  0.1359
   44DOPE   C29 5601   3.220   2.275  13.566 -0.1040 -0.3616 -0.2225
   44DOPE   H9R 5602   3.250   2.186  13.509  0.6544 -0.6280  0.5804
   44DOPE  C210 5603   3.246   2.284  13.698  0.9905  0.7448 -0.2145
   44DOPE  H10R 5604   3.311   2.207  13.744  0.8427  1.4323  1.2077
   44DOPE  C211 5605   3.219   2.397  13.796  0.1407 -0.4127  0.0945
   44DOPE  H11R 5606   3.167   2.490  13.764  0.1866 -1.3443 -2.9655
   44DOPE  H11S 5607   3.309   2.423  13.857 -0.9886 -0.2988  1.7813
   44DOPE  C212 5608   3.114   2.344  13.892  0.4413 -0.8765  0.1947
   44DOPE  H12R 5609   3.022   2.316  13.836 -0.6678 -0.8531  1.9492
   44DOPE  H12S 5610   3.091   2.420  13.969  1.8032  1.0926 -1.2457
   44DOPE  C213 5611   3.158   2.228  13.985 -0.1195  0.3725  0.8155
   44DOPE  H13R 5612   3.202   2.153  13.916  0.4976  0.2592  1.3262
   44DOPE  H13S 5613   3.069   2.182  14.032  0.2352  0.9656  2.1118
   44DOPE  C214 5614   3.259   2.277  14.090  0.1277 -0.7420  0.4885
   44DOPE  H14R 5615   3.217   2.368  14.139  1.0675 -0.1422  0.2131
   44DOPE  H14S 5616   3.350   2.309  14.035  0.4601  1.8430  2.3504
   44DOPE  C215 5617   3.308   2.183  14.204  0.4990  0.0674  0.3557
   44DOPE  H15R 5618   3.229   2.125  14.258 -1.4038  0.9013 -1.3793
   44DOPE  H15S 5619   3.352   2.249  14.281  0.4013  3.2653 -2.1361
   44DOPE  C216 5620   3.416   2.090  14.143  0.6410 -0.3551 -1.4132
   44DOPE  H16R 5621   3.483   2.150  14.077 -2.0372  2.2970 -1.9625
   44DOPE  H16S 5622   3.361   2.016  14.081 -1.9082  0.9951 -0.9152
   44DOPE  C217 5623   3.501   2.031  14.261  0.7719  0.0106  0.0498
   44DOPE  H17R 5624   3.425   1.969  14.315  0.2355 -0.4420 -1.1884
   44DOPE  H17S 5625   3.535   2.117  14.323 -0.1671  1.2460 -1.1061
   44DOPE  C218 5626   3.612   1.938  14.222  0.5914 -0.4240  0.0616
   44DOPE  H18R 5627   3.678   1.982  14.145  0.5318 -0.7868 -0.1962
   44DOPE  H18S 5628   3.572   1.847  14.173 -0.6388  0.0900  0.0639
   44DOPE  H18T 5629   3.658   1.901  14.316 -1.0253 -0.6802  0.7861
   44DOPE   C33 5630   3.340   3.436  12.975 -0.4566  0.2707 -0.5071
   44DOPE   H3X 5631   3.370   3.541  12.954 -0.2061  0.3739  0.3084
   44DOPE   H3Y 5632   3.434   3.383  12.999 -1.6854 -1.5439  0.6173
   44DOPE   C34 5633   3.264   3.428  13.106  0.5703 -0.1961  0.6674
   44DOPE   H4X 5634   3.166   3.479  13.109  0.5436 -0.2886  1.3001
   44DOPE   H4Y 5635   3.232   3.322  13.118  0.8531 -0.1474  1.9418
   44DOPE   C35 5636   3.362   3.462  13.221  0.4470 -0.0746  0.3881
   44DOPE   H5X 5637   3.403   3.563  13.201  0.8007  0.0500  1.6457
   44DOPE   H5Y 5638   3.443   3.386  13.222 -1.9772 -2.8409  1.2793
   44DOPE   C36 5639   3.281   3.464  13.357 -0.7657 -0.3262 -0.4131
   44DOPE   H6X 5640   3.242   3.369  13.400 -0.9875 -0.2515 -0.4467
   44DOPE   H6Y 5641   3.203   3.542  13.349  1.3388  1.7589 -1.6609
   44DOPE   C37 5642   3.386   3.524  13.457 -0.4543 -0.7557  0.5213
   44DOPE   H7X 5643   3.484   3.514  13.406 -0.0410 -0.2696  1.1987
   44DOPE   H7Y 5644   3.371   3.634  13.463 -2.2108 -0.8832 -0.8167
   44DOPE   C38 5645   3.389   3.460  13.597 -0.0297  0.4026  0.1053
   44DOPE   H8X 5646   3.408   3.350  13.600 -1.4642  0.0138 -2.2438
   44DOPE   H8Y 5647   3.294   3.482  13.650  0.3121  0.0589  0.8783
   44DOPE   C39 5648   3.511   3.511  13.662 -0.1946  0.3173  0.3338
   44DOPE   H9X 5649   3.608   3.495  13.614  0.0140  1.8172  0.2013
   44DOPE  C310 5650   3.516   3.565  13.782  0.5800 -0.0801 -0.2606
   44DOPE  H10X 5651   3.615   3.593  13.822  1.9199 -2.7903 -1.4015
   44DOPE  C311 5652   3.395   3.571  13.877  0.6647  0.0626 -0.0395
   44DOPE  H11X 5653   3.309   3.619  13.826  0.2431  0.0074  0.6137
   44DOPE  H11Y 5654   3.371   3.467  13.908  1.7366 -0.3459 -0.5313
   44DOPE  C312 5655   3.418   3.662  13.999  1.0223 -0.1731 -0.6201
   44DOPE  H12X 5656   3.327   3.677  14.061  2.3409 -2.2403  2.0273
   44DOPE  H12Y 5657   3.453   3.763  13.969  0.9521  0.0898  0.1558
   44DOPE  C313 5658   3.521   3.596  14.094  0.3497  0.1242 -0.3261
   44DOPE  H13X 5659   3.475   3.507  14.142  0.7226 -0.6208 -1.3065
   44DOPE  H13Y 5660   3.610   3.560  14.036  0.2860 -0.1084 -0.2803
   44DOPE  C314 5661   3.580   3.681  14.205  0.1597  0.3653 -0.2732
   44DOPE  H14X 5662   3.493   3.721  14.261 -1.2573 -0.6588 -1.6676
   44DOPE  H14Y 5663   3.636   3.764  14.156 -1.5375  0.2064 -2.6057
   44DOPE  C315 5664   3.687   3.608  14.296  0.0809  0.1216 -0.5654
   44DOPE  H15X 5665   3.778   3.605  14.232  0.9120 -0.3057  0.6051
   44DOPE  H15Y 5666   3.662   3.501  14.312  1.2544 -0.0223  0.5098
   44DOPE  C316 5667   3.718   3.668  14.428  0.0049 -0.9431  0.5976
   44DOPE  H16X 5668   3.624   3.696  14.481 -0.3951 -0.7209 -0.2091
   44DOPE  H16Y 5669   3.759   3.769  14.407 -1.7111 -0.3719 -0.2302
   44DOPE  C317 5670   3.796   3.577  14.521 -0.4202  0.8962  0.1542
   44DOPE  H17X 5671   3.731   3.488  14.534  0.7364 -0.3245 -1.9872
   44DOPE  H17Y 5672   3.899   3.566  14.480  1.3043  2.2923  3.6135
   44DOPE  C318 5673   3.822   3.639  14.659 -0.9233  0.4400  0.0641
   44DOPE  H18X 5674   3.895   3.723  14.656 -0.6649  0.2758  1.3147
   44DOPE  H18Y 5675   3.725   3.677  14.697 -2.1850 -0.2843 -2.2348
   44DOPE  H18Z 5676   3.866   3.563  14.727 -1.8741 -0.6450 -0.5038
   45DOPE     N 5677   3.436   2.087  11.967  0.1452 -0.1230  0.3997
   45DOPE   HN1 5678   3.365   2.163  11.956 -0.1892 -0.2294  1.6864
   45DOPE   HN2 5679   3.382   2.001  11.945 -3.7442  2.0979  0.3936
   45DOPE   HN3 5680   3.458   2.073  12.067 -2.0167 -1.5763  0.7270
   45DOPE   C12 5681   3.546   2.109  11.870  0.1592 -0.1319 -0.1654
   45DOPE  H12A 5682   3.604   2.203  11.881  0.4467 -0.5198  2.1345
   45DOPE  H12B 5683   3.494   2.101  11.772  0.9644  0.3802 -0.6412
   45DOPE   C11 5684   3.645   1.990  11.875  0.5006 -0.4251  0.3215
   45DOPE  H11A 5685   3.707   1.998  11.783  1.2692 -1.1697  0.7651
   45DOPE  H11B 5686   3.587   1.896  11.864 -0.2617  0.1640 -1.0230
   45DOPE     P 5687   3.833   1.869  11.986  0.0549  0.0575 -0.1305
   45DOPE   O13 5688   3.967   1.930  11.992  0.0960 -0.3306 -0.0789
   45DOPE   O14 5689   3.798   1.778  11.874  0.0301 -0.1469  0.3013
   45DOPE   O11 5690   3.810   1.789  12.126  0.2934 -0.2664 -0.5688
   45DOPE   O12 5691   3.731   1.992  11.991 -0.0101  0.4188 -0.0182
   45DOPE    C1 5692   3.756   1.862  12.237 -0.6956  0.0436 -0.2046
   45DOPE    HA 5693   3.666   1.921  12.210 -0.8348 -0.8305 -1.8176
   45DOPE    HB 5694   3.830   1.929  12.286 -0.6207 -0.3102  0.1749
   45DOPE    C2 5695   3.708   1.768  12.356  0.1578 -1.0869  0.1610
   45DOPE    HS 5696   3.661   1.839  12.428  0.9143 -0.5181  0.1150
   45DOPE   O21 5697   3.815   1.688  12.406  0.0689  0.0989 -0.0648
   45DOPE   C21 5698   3.814   1.679  12.538 -0.0562 -0.2096  0.2119
   45DOPE   O22 5699   3.740   1.729  12.621 -0.6548  0.4478  0.3625
   45DOPE   C22 5700   3.936   1.587  12.574  0.5438  0.5964 -0.3238
   45DOPE   H2R 5701   3.911   1.487  12.532  0.7799 -0.0003  0.9015
   45DOPE   H2S 5702   3.937   1.581  12.685 -0.8967 -0.3464 -0.3348
   45DOPE    C3 5703   3.601   1.678  12.301  0.3345  0.0789 -0.7519
   45DOPE    HX 5704   3.658   1.592  12.261  1.5706  1.3306 -1.8000
   45DOPE    HY 5705   3.541   1.725  12.220 -0.4927 -3.6507 -2.5016
   45DOPE   O31 5706   3.523   1.624  12.413 -0.0967  0.2719  0.7342
   45DOPE   C31 5707   3.405   1.667  12.418  0.4669  0.6104  0.1250
   45DOPE   O32 5708   3.353   1.742  12.343  0.2934 -0.0100  0.0465
   45DOPE   C32 5709   3.331   1.591  12.529  0.1539 -0.5059  0.2976
   45DOPE   H2X 5710   3.224   1.619  12.530  0.4269  0.5559  0.2247
   45DOPE   H2Y 5711   3.344   1.481  12.517  1.0592 -0.2302 -1.4983
   45DOPE   C23 5712   4.072   1.632  12.510  0.2478 -0.0033  0.2044
   45DOPE   H3R 5713   4.075   1.608  12.401 -3.1616  0.8668 -0.1846
   45DOPE   H3S 5714   4.155   1.573  12.555 -0.9165 -1.4397  0.5231
   45DOPE   C24 5715   4.109   1.783  12.520  0.0266 -0.5468  0.0056
   45DOPE   H4R 5716   4.033   1.849  12.472  1.3892 -0.1498 -1.7230
   45DOPE   H4S 5717   4.197   1.800  12.453 -1.5645  1.4368 -1.7417
   45DOPE   C25 5718   4.127   1.839  12.664 -0.0325  0.2813  1.0304
   45DOPE   H5R 5719   4.025   1.849  12.706 -0.0495  0.0847  1.0396
   45DOPE   H5S 5720   4.170   1.941  12.657  0.9738 -0.1978 -0.1399
   45DOPE   C26 5721   4.214   1.749  12.762 -0.7040 -1.1837  0.0949
   45DOPE   H6R 5722   4.323   1.762  12.741 -0.7207 -0.0701  0.6463
   45DOPE   H6S 5723   4.187   1.643  12.745 -1.8389 -0.7401 -1.0322
   45DOPE   C27 5724   4.198   1.813  12.907 -0.7391  0.0211 -0.1123
   45DOPE   H7R 5725   4.099   1.786  12.951 -0.1509 -0.5728  0.9042
   45DOPE   H7S 5726   4.208   1.923  12.899 -0.9779  0.3932  3.3210
   45DOPE   C28 5727   4.306   1.760  13.000  0.3424 -0.5516  0.1710
   45DOPE   H8R 5728   4.401   1.800  12.958  0.0308 -0.5934 -0.5881
   45DOPE   H8S 5729   4.306   1.650  12.985  0.7276 -0.3312 -1.6479
   45DOPE   C29 5730   4.291   1.810  13.141 -0.5053 -0.3150 -0.5705
   45DOPE   H9R 5731   4.293   1.919  13.159 -0.1380 -0.1006 -1.8311
   45DOPE  C210 5732   4.258   1.734  13.246 -0.1549 -0.0780 -0.2589
   45DOPE  H10R 5733   4.252   1.781  13.346  1.6835  1.7285 -0.9399
   45DOPE  C211 5734   4.241   1.588  13.249  0.2596  0.3933 -0.4889
   45DOPE  H11R 5735   4.321   1.534  13.194  0.1739 -1.1146  0.7794
   45DOPE  H11S 5736   4.147   1.548  13.205  0.7016 -1.2824  0.0128
   45DOPE  C212 5737   4.239   1.532  13.396  0.0966  0.0908  0.1907
   45DOPE  H12R 5738   4.326   1.575  13.451 -0.2719  0.1363  0.7367
   45DOPE  H12S 5739   4.247   1.421  13.389  0.3971  0.0798  0.6236
   45DOPE  C213 5740   4.107   1.558  13.474  0.6262  0.4984  0.5109
   45DOPE  H13R 5741   4.019   1.516  13.421  0.0804 -0.1098  1.8513
   45DOPE  H13S 5742   4.095   1.667  13.489  2.1950  0.9095 -0.9372
   45DOPE  C214 5743   4.101   1.503  13.618 -0.3552 -0.6081  0.2750
   45DOPE  H14R 5744   4.135   1.397  13.618 -1.7537 -1.0908 -0.3704
   45DOPE  H14S 5745   3.995   1.503  13.654 -0.4274  0.2169  0.0745
   45DOPE  C215 5746   4.203   1.577  13.708  0.1473  0.4367 -0.3435
   45DOPE  H15R 5747   4.197   1.686  13.729 -0.4758 -0.1911  3.4528
   45DOPE  H15S 5748   4.299   1.552  13.659  0.7324  1.3548  0.3180
   45DOPE  C216 5749   4.223   1.517  13.850 -0.0539 -0.2568 -0.1699
   45DOPE  H16R 5750   4.244   1.409  13.834 -0.6037 -0.2545 -0.9859
   45DOPE  H16S 5751   4.132   1.542  13.909  0.7135  0.6919  0.6480
   45DOPE  C217 5752   4.341   1.572  13.937  0.6512 -0.1791  1.0513
   45DOPE  H17R 5753   4.295   1.668  13.969 -1.8272 -1.0944  0.4946
   45DOPE  H17S 5754   4.434   1.588  13.879  1.2729 -0.1153  2.0342
   45DOPE  C218 5755   4.367   1.493  14.061 -0.0527  0.2077  0.4567
   45DOPE  H18R 5756   4.456   1.534  14.114  2.4278 -2.7618 -1.0755
   45DOPE  H18S 5757   4.402   1.395  14.024 -0.9348 -0.2309  0.7563
   45DOPE  H18T 5758   4.276   1.481  14.124 -1.8286  4.3791 -0.9056
   45DOPE   C33 5759   3.373   1.650  12.671  0.1728  0.0021  0.2031
   45DOPE   H3X 5760   3.337   1.755  12.669  0.7473  0.1944 -0.6408
   45DOPE   H3Y 5761   3.480   1.664  12.697 -0.3179  2.3285  1.3112
   45DOPE   C34 5762   3.308   1.559  12.773  0.2029 -0.3898 -0.8994
   45DOPE   H4X 5763   3.197   1.559  12.767 -0.4512 -1.0626  5.1657
   45DOPE   H4Y 5764   3.355   1.459  12.771  1.8222  0.3324 -0.4701
   45DOPE   C35 5765   3.328   1.613  12.913 -0.1876 -0.4570 -0.7061
   45DOPE   H5X 5766   3.279   1.711  12.932  1.2175  0.0280  0.5849
   45DOPE   H5Y 5767   3.432   1.639  12.941 -0.9608  2.1291  0.1058
   45DOPE   C36 5768   3.272   1.515  13.019 -0.0448 -0.1478 -0.2813
   45DOPE   H6X 5769   3.308   1.411  13.004 -1.2871 -0.6095 -0.1924
   45DOPE   H6Y 5770   3.164   1.502  12.996  0.8801 -4.2742 -3.4675
   45DOPE   C37 5771   3.282   1.584  13.160  0.0733  1.2053  0.2536
   45DOPE   H7X 5772   3.387   1.596  13.192  0.3490 -0.4696  0.0415
   45DOPE   H7Y 5773   3.238   1.685  13.142 -2.4471  0.2054  0.3534
   45DOPE   C38 5774   3.197   1.519  13.271 -0.1604 -0.3937  0.6539
   45DOPE   H8X 5775   3.089   1.533  13.247 -0.3867 -2.2954  0.4376
   45DOPE   H8Y 5776   3.208   1.592  13.355  2.4214 -0.2267  0.2511
   45DOPE   C39 5777   3.232   1.379  13.305 -0.0539 -0.2460 -0.2466
   45DOPE   H9X 5778   3.212   1.316  13.217 -0.8973  3.2517 -2.8089
   45DOPE  C310 5779   3.259   1.329  13.428 -0.0212  0.0331  0.1803
   45DOPE  H10X 5780   3.293   1.227  13.452  1.0916 -0.0203 -1.4895
   45DOPE  C311 5781   3.279   1.407  13.551 -0.4208 -0.6277  0.3127
   45DOPE  H11X 5782   3.387   1.419  13.573 -0.6439  2.3456  0.2570
   45DOPE  H11Y 5783   3.233   1.507  13.564  0.8473 -0.1571  1.4381
   45DOPE  C312 5784   3.230   1.321  13.671 -0.6575  0.5244 -0.2863
   45DOPE  H12X 5785   3.284   1.224  13.684  0.0948  1.3421  4.6416
   45DOPE  H12Y 5786   3.123   1.299  13.654 -1.0988  3.9532 -3.0135
   45DOPE  C313 5787   3.245   1.396  13.806 -0.4349  0.3408 -0.6761
   45DOPE  H13X 5788   3.348   1.437  13.800 -0.5736  0.7403 -0.3878
   45DOPE  H13Y 5789   3.168   1.473  13.831  0.5486  0.8857  0.8185
   45DOPE  C314 5790   3.243   1.299  13.923  0.0578  0.4509  0.4573
   45DOPE  H14X 5791   3.322   1.221  13.912  1.0449  1.5666 -0.6792
   45DOPE  H14Y 5792   3.142   1.255  13.934 -1.2125  2.4975 -1.9515
   45DOPE  C315 5793   3.278   1.366  14.053 -0.2827 -0.9203 -0.2017
   45DOPE  H15X 5794   3.202   1.439  14.088  0.0409  0.0255 -1.4000
   45DOPE  H15Y 5795   3.374   1.420  14.035 -0.2295 -0.7190  0.6051
   45DOPE  C316 5796   3.318   1.270  14.163  0.1135  0.1355  0.0579
   45DOPE  H16X 5797   3.383   1.314  14.242 -0.4769 -0.9115  1.1583
   45DOPE  H16Y 5798   3.374   1.186  14.117  2.5932  0.4571  2.2565
   45DOPE  C317 5799   3.203   1.197  14.242 -0.3075  0.2590 -0.1729
   45DOPE  H17X 5800   3.140   1.161  14.158  1.2710  0.4436 -1.5036
   45DOPE  H17Y 5801   3.238   1.102  14.288 -2.9673 -0.3043  0.8971
   45DOPE  C318 5802   3.132   1.278  14.338 -0.3360  0.3480 -0.1208
   45DOPE  H18X 5803   3.201   1.310  14.419 -0.5519  2.0444 -0.5709
   45DOPE  H18Y 5804   3.085   1.366  14.288  0.3748  0.7235 -0.1346
   45DOPE  H18Z 5805   3.044   1.230  14.387  0.0403  1.1028  1.3711
   46DOPE     N 5806   3.705   6.496  11.771  0.3313  0.4579 -0.2609
   46DOPE   HN1 5807   3.604   6.510  11.750 -0.0258 -2.9309 -1.4952
   46DOPE   HN2 5808   3.757   6.584  11.752 -0.9111  1.2593 -0.0500
   46DOPE   HN3 5809   3.736   6.416  11.712 -0.9356  0.6608 -1.2425
   46DOPE   C12 5810   3.723   6.460  11.925 -0.1403 -0.2472 -0.4222
   46DOPE  H12A 5811   3.832   6.468  11.945 -0.3798 -0.7128  1.2116
   46DOPE  H12B 5812   3.694   6.353  11.929  1.4682 -0.7613 -1.3069
   46DOPE   C11 5813   3.646   6.559  12.012  0.6685  0.4230 -0.3455
   46DOPE  H11A 5814   3.674   6.661  11.976  0.9823 -0.0552 -1.5116
   46DOPE  H11B 5815   3.683   6.556  12.117 -0.2809 -2.8906  0.0102
   46DOPE     P 5816   3.409   6.660  12.027  0.5095 -0.2206 -0.4653
   46DOPE   O13 5817   3.263   6.609  12.022  0.3768  0.2690  0.1279
   46DOPE   O14 5818   3.455   6.770  11.935  0.1877  0.4667  0.1141
   46DOPE   O11 5819   3.442   6.693  12.183  0.3034 -0.4239 -0.1824
   46DOPE   O12 5820   3.499   6.541  11.999  0.2705  0.0908 -0.0057
   46DOPE    C1 5821   3.459   6.595  12.283  0.1525  0.2037  0.7293
   46DOPE    HA 5822   3.547   6.624  12.345  0.6887  0.9157 -0.3283
   46DOPE    HB 5823   3.471   6.493  12.241 -0.7027 -0.2746  1.6043
   46DOPE    C2 5824   3.324   6.575  12.359  0.1931 -0.1171  0.2004
   46DOPE    HS 5825   3.243   6.571  12.282  1.2077 -0.1915 -0.9015
   46DOPE   O21 5826   3.305   6.689  12.444  0.5101 -0.0640  0.0940
   46DOPE   C21 5827   3.170   6.720  12.460  0.3029  0.4091 -0.5865
   46DOPE   O22 5828   3.079   6.672  12.394  0.1507 -0.1238  0.0120
   46DOPE   C22 5829   3.150   6.835  12.557  0.2897  0.0856 -0.1806
   46DOPE   H2R 5830   3.046   6.874  12.554  0.4095  0.5148  0.8426
   46DOPE   H2S 5831   3.207   6.927  12.529 -1.4906  1.5909  0.8868
   46DOPE    C3 5832   3.331   6.446  12.451  0.2494 -0.6930 -0.0944
   46DOPE    HX 5833   3.411   6.465  12.526  0.5873  2.3385 -1.0829
   46DOPE    HY 5834   3.368   6.362  12.388  0.1099  0.0203 -1.1441
   46DOPE   O31 5835   3.203   6.416  12.512  0.3610  0.2536 -0.2942
   46DOPE   C31 5836   3.115   6.360  12.431  0.5855  0.3568  0.3165
   46DOPE   O32 5837   3.127   6.334  12.310 -0.6914 -0.0445  0.3596
   46DOPE   C32 5838   2.984   6.313  12.516  0.1576  0.0362 -0.0396
   46DOPE   H2X 5839   2.896   6.311  12.449  1.1583 -0.4994 -1.3750
   46DOPE   H2Y 5840   2.991   6.203  12.529  0.6483 -0.1503 -1.6292
   46DOPE   C23 5841   3.184   6.799  12.702  0.3489 -0.1008  0.2792
   46DOPE   H3R 5842   3.149   6.696  12.722 -0.8238 -0.2211 -1.9934
   46DOPE   H3S 5843   3.126   6.873  12.763 -0.0255 -0.0048 -0.1845
   46DOPE   C24 5844   3.328   6.818  12.744 -0.8522  0.7020  0.4837
   46DOPE   H4R 5845   3.365   6.908  12.691 -2.1079  0.9038 -0.0758
   46DOPE   H4S 5846   3.384   6.731  12.704 -0.6354  0.2616  1.6886
   46DOPE   C25 5847   3.356   6.846  12.889  0.4069 -0.1585  0.1226
   46DOPE   H5R 5848   3.317   6.949  12.904 -0.6921 -0.9925  4.3156
   46DOPE   H5S 5849   3.464   6.845  12.912  0.2950 -0.8459  0.6451
   46DOPE   C26 5850   3.301   6.746  12.992  0.4406  0.0850  0.7780
   46DOPE   H6R 5851   3.305   6.642  12.953  3.0820  0.8016 -1.1473
   46DOPE   H6S 5852   3.191   6.753  13.009  0.5215  2.1777  0.6640
   46DOPE   C27 5853   3.372   6.762  13.127  1.0762  0.4098  0.4279
   46DOPE   H7R 5854   3.479   6.739  13.107  0.3857 -2.8422 -0.2816
   46DOPE   H7S 5855   3.344   6.679  13.196  1.0360 -0.6986 -0.8550
   46DOPE   C28 5856   3.347   6.901  13.195 -0.3966  0.2422  0.8905
   46DOPE   H8R 5857   3.378   6.977  13.119  1.0608 -0.1158  1.0957
   46DOPE   H8S 5858   3.421   6.920  13.276 -0.4005  2.0403  0.5299
   46DOPE   C29 5859   3.210   6.927  13.244 -0.2347  0.2024  0.7993
   46DOPE   H9R 5860   3.149   6.989  13.177 -0.2180  1.0969  1.5827
   46DOPE  C210 5861   3.160   6.906  13.369  0.4010  0.1969 -0.3577
   46DOPE  H10R 5862   3.058   6.941  13.391  0.3995 -1.5425  3.1543
   46DOPE  C211 5863   3.229   6.819  13.472  0.1032 -0.3717  0.3692
   46DOPE  H11R 5864   3.338   6.842  13.471 -0.0573  0.5105  1.0460
   46DOPE  H11S 5865   3.221   6.712  13.445  0.3972 -0.1816 -0.5053
   46DOPE  C212 5866   3.158   6.835  13.615 -0.1552  0.0475  0.3315
   46DOPE  H12R 5867   3.058   6.787  13.617  0.2076 -0.7136  1.9824
   46DOPE  H12S 5868   3.141   6.944  13.631 -2.8920  0.0007 -1.6744
   46DOPE  C213 5869   3.237   6.764  13.731  0.1938 -0.1558  0.4291
   46DOPE  H13R 5870   3.266   6.662  13.698 -0.5453  0.2642 -1.7058
   46DOPE  H13S 5871   3.176   6.756  13.823 -0.1162  1.1523  0.3612
   46DOPE  C214 5872   3.358   6.834  13.786  0.3695  0.4990 -0.5135
   46DOPE  H14R 5873   3.332   6.939  13.811 -2.6253 -0.3784  0.5199
   46DOPE  H14S 5874   3.434   6.843  13.706  2.6407 -1.8141  1.2045
   46DOPE  C215 5875   3.416   6.763  13.911  0.2442 -0.6505 -0.1540
   46DOPE  H15R 5876   3.458   6.668  13.872  1.7936 -0.2500  0.4353
   46DOPE  H15S 5877   3.330   6.743  13.978  0.1580 -1.8030 -0.5821
   46DOPE  C216 5878   3.525   6.855  13.984  0.3212 -0.4229  0.4321
   46DOPE  H16R 5879   3.558   6.809  14.079  0.0891  0.6877  1.0621
   46DOPE  H16S 5880   3.486   6.955  14.011  0.7531  0.0818 -0.7632
   46DOPE  C217 5881   3.647   6.882  13.893  0.3091  0.2283 -0.0566
   46DOPE  H17R 5882   3.615   6.961  13.822  0.1060  0.6689  0.5198
   46DOPE  H17S 5883   3.677   6.795  13.831  2.1368  2.3807 -2.4246
   46DOPE  C218 5884   3.767   6.927  13.970  0.1849 -0.2421  0.0011
   46DOPE  H18R 5885   3.848   6.957  13.900 -0.9456 -0.1245 -1.2983
   46DOPE  H18S 5886   3.811   6.855  14.042 -0.1314 -2.0621 -1.5566
   46DOPE  H18T 5887   3.751   7.027  14.016  3.1265  1.1360 -1.6187
   46DOPE   C33 5888   2.949   6.376  12.653  0.1074 -0.4263 -0.9160
   46DOPE   H3X 5889   2.840   6.358  12.661  0.1028  0.2117  1.0344
   46DOPE   H3Y 5890   2.961   6.486  12.666 -2.9607 -0.2007  0.9428
   46DOPE   C34 5891   3.012   6.299  12.765 -0.5941  0.4378  0.3135
   46DOPE   H4X 5892   3.003   6.188  12.767  2.8636 -0.0223 -1.5704
   46DOPE   H4Y 5893   3.122   6.313  12.772 -0.3805 -1.5310  1.6815
   46DOPE   C35 5894   2.955   6.335  12.901  0.2555 -0.4629  0.7540
   46DOPE   H5X 5895   2.857   6.285  12.919  0.8888 -1.9152  0.3299
   46DOPE   H5Y 5896   2.943   6.446  12.903  2.4308 -0.1944  1.7162
   46DOPE   C36 5897   3.052   6.282  13.019  0.1071  0.1242  0.3582
   46DOPE   H6X 5898   3.146   6.340  13.022  0.5564 -0.5648 -0.1197
   46DOPE   H6Y 5899   3.072   6.176  12.993 -0.7087  0.3926 -1.5352
   46DOPE   C37 5900   2.985   6.308  13.153  0.2949  0.1512  0.5130
   46DOPE   H7X 5901   2.994   6.416  13.175  0.7335  0.4541 -1.0315
   46DOPE   H7Y 5902   2.879   6.278  13.143  0.6179 -1.1002  0.6548
   46DOPE   C38 5903   3.045   6.227  13.272 -0.3520 -0.1255  0.0580
   46DOPE   H8X 5904   3.151   6.259  13.285 -0.3955 -0.5766  1.6113
   46DOPE   H8Y 5905   3.048   6.119  13.248  0.5400 -0.4012  1.3280
   46DOPE   C39 5906   2.964   6.245  13.390 -0.2386  0.3270  0.0441
   46DOPE   H9X 5907   2.859   6.212  13.386 -0.1751  0.2420 -1.4013
   46DOPE  C310 5908   3.013   6.292  13.507 -0.3706 -0.2143  0.5914
   46DOPE  H10X 5909   2.943   6.292  13.593 -0.5411 -2.4752  0.4894
   46DOPE  C311 5910   3.160   6.324  13.535 -0.3563 -0.6715  0.1797
   46DOPE  H11X 5911   3.233   6.272  13.470  1.0213 -1.7961  2.5158
   46DOPE  H11Y 5912   3.168   6.432  13.510 -1.4956 -0.5921  0.1094
   46DOPE  C312 5913   3.211   6.300  13.681  0.6181  0.2493  0.8445
   46DOPE  H12X 5914   3.316   6.337  13.691  1.7683 -1.6280 -2.5414
   46DOPE  H12Y 5915   3.219   6.192  13.704  2.5601 -0.2085 -1.5312
   46DOPE  C313 5916   3.122   6.378  13.788 -0.9707  0.1877  0.5774
   46DOPE  H13X 5917   3.097   6.481  13.755  0.8566  0.4259 -0.1713
   46DOPE  H13Y 5918   3.031   6.316  13.797 -0.1137 -0.8890  2.3860
   46DOPE  C314 5919   3.199   6.385  13.927 -0.0667  0.1481 -0.3307
   46DOPE  H14X 5920   3.129   6.428  14.002 -0.7120 -1.8270  0.2821
   46DOPE  H14Y 5921   3.287   6.452  13.915 -0.2373  0.2454 -1.1067
   46DOPE  C315 5922   3.243   6.252  13.983  0.4846  0.4059  0.0613
   46DOPE  H15X 5923   3.305   6.194  13.912  0.0083  1.6522 -1.4140
   46DOPE  H15Y 5924   3.149   6.199  14.009  2.3250 -2.7499  0.9286
   46DOPE  C316 5925   3.319   6.269  14.117  0.2304 -0.2318  0.0491
   46DOPE  H16X 5926   3.246   6.321  14.183 -0.7204 -0.6307 -0.6653
   46DOPE  H16Y 5927   3.405   6.330  14.082  1.6713 -1.8993  0.5711
   46DOPE  C317 5928   3.382   6.145  14.185  0.0294  0.0999  0.3210
   46DOPE  H17X 5929   3.294   6.084  14.216 -0.5860  2.0952  2.8295
   46DOPE  H17Y 5930   3.448   6.093  14.112  0.2875  1.1784 -0.2218
   46DOPE  C318 5931   3.471   6.171  14.306  0.5280 -0.7172  0.4104
   46DOPE  H18X 5932   3.498   6.076  14.357 -1.4616 -0.7989  1.3941
   46DOPE  H18Y 5933   3.563   6.229  14.284  0.6083 -0.2034  2.0085
   46DOPE  H18Z 5934   3.407   6.225  14.379 -1.7626 -0.8615 -1.3747
   47DOPE     N 5935   1.871   5.673  11.987  0.1329  0.5169 -0.1998
   47DOPE   HN1 5936   1.919   5.611  11.918  0.8329 -1.3917  1.8829
   47DOPE   HN2 5937   1.779   5.699  11.946  0.3005 -2.4430 -2.8288
   47DOPE   HN3 5938   1.928   5.756  12.013 -0.3976  0.4372  1.3037
   47DOPE   C12 5939   1.860   5.598  12.112  0.1842  0.2747  0.0331
   47DOPE  H12A 5940   1.781   5.642  12.177  0.5352  0.5266  0.2945
   47DOPE  H12B 5941   1.958   5.592  12.164  0.1477  0.0545  0.0797
   47DOPE   C11 5942   1.834   5.445  12.082  0.2703  0.3239 -0.1528
   47DOPE  H11A 5943   1.833   5.396  12.182  0.1832 -2.1140 -1.2727
   47DOPE  H11B 5944   1.918   5.398  12.026  0.4984 -2.3201  2.2098
   47DOPE     P 5945   1.590   5.358  12.068 -0.1205 -0.0606 -0.4959
   47DOPE   O13 5946   1.608   5.219  12.035  0.2192  0.1920 -0.0808
   47DOPE   O14 5947   1.473   5.421  12.008 -0.3369 -0.1309 -0.1656
   47DOPE   O11 5948   1.595   5.379  12.224 -0.2566  0.2317  0.2727
   47DOPE   O12 5949   1.713   5.429  12.004 -0.3268  0.1988  0.0215
   47DOPE    C1 5950   1.536   5.496  12.280 -0.6947  0.1837 -0.4453
   47DOPE    HA 5951   1.427   5.506  12.260 -0.6917 -0.6532 -0.8830
   47DOPE    HB 5952   1.588   5.589  12.248  1.7842  0.3249  3.2596
   47DOPE    C2 5953   1.530   5.502  12.433 -0.0729  0.7346  0.2657
   47DOPE    HS 5954   1.614   5.451  12.484 -0.8582  0.1982  1.0657
   47DOPE   O21 5955   1.406   5.441  12.473 -0.6563 -0.0776  0.4219
   47DOPE   C21 5956   1.406   5.307  12.488 -1.1773 -0.0589  0.2905
   47DOPE   O22 5957   1.506   5.230  12.486  0.1491 -0.2853 -0.1756
   47DOPE   C22 5958   1.265   5.274  12.535 -1.2036  0.5809  0.0343
   47DOPE   H2R 5959   1.260   5.163  12.537 -2.0395  0.5484 -1.8474
   47DOPE   H2S 5960   1.196   5.303  12.453  0.5980 -0.9917 -2.1630
   47DOPE    C3 5961   1.543   5.649  12.485  0.0340 -0.4455  0.7964
   47DOPE    HX 5962   1.450   5.704  12.459 -0.4665 -1.2376  0.8729
   47DOPE    HY 5963   1.632   5.689  12.432  0.3726  0.4735  2.0187
   47DOPE   O31 5964   1.572   5.658  12.626  0.2822 -0.2508  0.2590
   47DOPE   C31 5965   1.472   5.689  12.699  0.4658 -0.6665  0.1095
   47DOPE   O32 5966   1.356   5.718  12.660 -1.1160 -0.6045 -0.6446
   47DOPE   C32 5967   1.515   5.708  12.848  0.2076  0.3783 -0.6824
   47DOPE   H2X 5968   1.528   5.602  12.879  0.5831  0.6270  0.0182
   47DOPE   H2Y 5969   1.607   5.770  12.856 -1.3472  2.7609  0.0422
   47DOPE   C23 5970   1.237   5.330  12.673 -0.1148 -0.7159  0.1037
   47DOPE   H3R 5971   1.137   5.304  12.714 -2.4899  2.2225 -3.3059
   47DOPE   H3S 5972   1.254   5.439  12.685 -0.1079 -0.7372  0.3023
   47DOPE   C24 5973   1.331   5.255  12.773 -0.3160  0.3093 -0.0885
   47DOPE   H4R 5974   1.436   5.239  12.738  0.5210  1.8697  1.5572
   47DOPE   H4S 5975   1.284   5.154  12.774  0.0466  0.1379  0.6167
   47DOPE   C25 5976   1.327   5.315  12.909  0.2309  0.3204  0.0196
   47DOPE   H5R 5977   1.224   5.344  12.939  0.2728 -1.7950  2.5266
   47DOPE   H5S 5978   1.377   5.414  12.903 -0.9482  0.9262  0.0157
   47DOPE   C26 5979   1.388   5.236  13.026 -0.4158 -0.2380 -0.0184
   47DOPE   H6R 5980   1.497   5.237  13.043 -0.7915 -1.3719  3.1942
   47DOPE   H6S 5981   1.375   5.130  12.996  0.9724 -0.3424 -0.3155
   47DOPE   C27 5982   1.309   5.266  13.153  0.4705 -0.5406  1.1856
   47DOPE   H7R 5983   1.204   5.287  13.122  0.4429 -1.9004  0.2659
   47DOPE   H7S 5984   1.335   5.360  13.206 -2.1265  0.2130  1.2805
   47DOPE   C28 5985   1.302   5.155  13.246  0.8926  0.6894  0.2728
   47DOPE   H8R 5986   1.292   5.060  13.191  1.1236  0.2124  1.0347
   47DOPE   H8S 5987   1.200   5.151  13.290 -0.1233  0.1007 -1.9882
   47DOPE   C29 5988   1.413   5.141  13.348  0.1572  0.1022 -0.7204
   47DOPE   H9R 5989   1.516   5.124  13.312  0.0085 -1.1464 -0.5865
   47DOPE  C210 5990   1.406   5.162  13.481  0.6703 -0.0846  0.0239
   47DOPE  H10R 5991   1.501   5.163  13.537  1.2895  0.0732 -1.0124
   47DOPE  C211 5992   1.294   5.214  13.571 -0.0215 -0.0038  0.8836
   47DOPE  H11R 5993   1.196   5.178  13.532  0.0752 -1.1538  1.6489
   47DOPE  H11S 5994   1.291   5.325  13.574 -2.6259  0.0245  0.0256
   47DOPE  C212 5995   1.308   5.162  13.715 -0.1614 -0.7362 -0.1400
   47DOPE  H12R 5996   1.400   5.196  13.766 -0.4382 -1.5966  0.9609
   47DOPE  H12S 5997   1.300   5.051  13.710  1.1554 -0.8524 -0.0272
   47DOPE  C213 5998   1.184   5.214  13.803  0.4907 -0.1886 -0.4162
   47DOPE  H13R 5999   1.098   5.148  13.778  1.5001 -1.1414 -1.4858
   47DOPE  H13S 6000   1.164   5.322  13.787 -1.7659 -0.8094 -2.2578
   47DOPE  C214 6001   1.217   5.185  13.952 -0.0597 -0.6964  0.9561
   47DOPE  H14R 6002   1.130   5.221  14.012 -0.3001  2.2323 -0.9455
   47DOPE  H14S 6003   1.303   5.251  13.976 -1.2964  1.2231  0.3216
   47DOPE  C215 6004   1.249   5.038  13.987  0.1650  0.4388  0.3722
   47DOPE  H15R 6005   1.345   5.014  13.936  0.2263 -2.6109  1.7031
   47DOPE  H15S 6006   1.171   4.971  13.944 -0.3294  0.5452  1.0913
   47DOPE  C216 6007   1.270   5.023  14.134 -0.0359  0.2561 -0.4086
   47DOPE  H16R 6008   1.179   5.058  14.186 -0.0666  0.8790 -0.8705
   47DOPE  H16S 6009   1.353   5.084  14.174  0.1483  1.3873 -2.3809
   47DOPE  C217 6010   1.289   4.875  14.175  0.2767 -0.4245 -0.1466
   47DOPE  H17R 6011   1.372   4.845  14.107  0.3152 -0.4792 -0.0751
   47DOPE  H17S 6012   1.196   4.820  14.150 -0.0919 -0.3680  1.0270
   47DOPE  C218 6013   1.328   4.857  14.320 -0.1319  0.2002 -0.2105
   47DOPE  H18R 6014   1.326   4.752  14.355  1.0758  0.8460  1.9651
   47DOPE  H18S 6015   1.258   4.904  14.393  1.0929 -0.4095  1.4145
   47DOPE  H18T 6016   1.431   4.896  14.336  0.0904 -0.8422  1.0593
   47DOPE   C33 6017   1.393   5.769  12.936  0.5321 -1.1125  0.8956
   47DOPE   H3X 6018   1.322   5.684  12.928  2.8121 -3.0723  0.3267
   47DOPE   H3Y 6019   1.362   5.859  12.878  0.1193 -1.1391  1.0749
   47DOPE   C34 6020   1.428   5.807  13.084  0.5895  0.2075 -0.1299
   47DOPE   H4X 6021   1.521   5.867  13.097 -0.6110  2.1935 -0.2505
   47DOPE   H4Y 6022   1.339   5.853  13.132  0.0772 -1.6052  0.7262
   47DOPE   C35 6023   1.446   5.679  13.165  0.1141  0.2173 -0.4645
   47DOPE   H5X 6024   1.523   5.614  13.118  2.2701 -0.3215  3.3657
   47DOPE   H5Y 6025   1.355   5.616  13.174  0.9626 -0.7521  3.1383
   47DOPE   C36 6026   1.477   5.709  13.311  0.2572  0.8355 -0.3762
   47DOPE   H6X 6027   1.391   5.775  13.338  0.5772  2.1316 -2.3456
   47DOPE   H6Y 6028   1.571   5.765  13.332  0.9311  0.2642 -1.8241
   47DOPE   C37 6029   1.453   5.588  13.398 -0.0457  0.1861 -0.5708
   47DOPE   H7X 6030   1.365   5.536  13.356 -0.8467  0.9766  0.0686
   47DOPE   H7Y 6031   1.536   5.516  13.385 -1.2400 -1.1791 -0.8046
   47DOPE   C38 6032   1.418   5.624  13.543  0.1914  0.5731  0.3189
   47DOPE   H8X 6033   1.374   5.545  13.608 -0.6054  0.8136  0.0820
   47DOPE   H8Y 6034   1.339   5.702  13.536  0.7938  1.0904 -1.1032
   47DOPE   C39 6035   1.538   5.688  13.606  0.2238 -0.0979  0.4242
   47DOPE   H9X 6036   1.572   5.777  13.551 -1.1758 -0.9178 -1.9235
   47DOPE  C310 6037   1.598   5.647  13.719  0.3367 -0.2263 -0.6818
   47DOPE  H10X 6038   1.684   5.696  13.768 -1.8083  1.4095  1.7013
   47DOPE  C311 6039   1.556   5.524  13.790  0.1931 -0.0067 -0.7328
   47DOPE  H11X 6040   1.513   5.433  13.743 -0.5572 -0.1082  0.1173
   47DOPE  H11Y 6041   1.655   5.495  13.833 -0.4943  1.8159  2.4154
   47DOPE  C312 6042   1.464   5.553  13.912 -0.0404 -0.2717  0.2222
   47DOPE  H12X 6043   1.513   5.608  13.995 -2.3131 -0.0561  1.4962
   47DOPE  H12Y 6044   1.446   5.449  13.948  1.2762 -0.7328 -0.3673
   47DOPE  C313 6045   1.328   5.620  13.871  0.7146 -0.2370 -0.4756
   47DOPE  H13X 6046   1.362   5.713  13.822 -0.1809  0.0120 -0.6574
   47DOPE  H13Y 6047   1.286   5.559  13.788 -3.0773  2.1874 -0.6020
   47DOPE  C314 6048   1.217   5.629  13.974 -0.0945 -0.0103 -0.4496
   47DOPE  H14X 6049   1.139   5.696  13.931 -0.8366 -0.8276 -0.3957
   47DOPE  H14Y 6050   1.258   5.676  14.066 -1.3849  1.4254 -0.5654
   47DOPE  C315 6051   1.139   5.499  14.007 -0.0780  0.2318  1.1265
   47DOPE  H15X 6052   1.211   5.424  14.047 -0.0895 -0.6731 -0.4828
   47DOPE  H15Y 6053   1.096   5.475  13.908  1.7282  1.0470  0.1078
   47DOPE  C316 6054   1.025   5.515  14.108 -0.2851  0.0485 -0.1211
   47DOPE  H16X 6055   0.986   5.411  14.122 -1.6947 -0.0675 -3.8646
   47DOPE  H16Y 6056   0.948   5.579  14.060  2.1083  2.3719 -1.0810
   47DOPE  C317 6057   1.067   5.573  14.243  1.4109 -0.4700  0.5566
   47DOPE  H17X 6058   1.104   5.677  14.231  2.5579 -1.0437 -1.2322
   47DOPE  H17Y 6059   0.971   5.582  14.299 -0.7381 -2.3743 -2.5225
   47DOPE  C318 6060   1.178   5.492  14.313 -0.2870  0.6124  0.2306
   47DOPE  H18X 6061   1.208   5.531  14.412  1.9892  0.9480 -0.5259
   47DOPE  H18Y 6062   1.148   5.385  14.321 -0.8706  0.8139  0.8540
   47DOPE  H18Z 6063   1.279   5.491  14.266  0.3163  2.0217  1.4346
   48DOPE     N 6064   0.093   1.215  12.058  0.8804 -0.5748 -0.0351
   48DOPE   HN1 6065   0.181   1.249  12.100  0.1774 -0.3607  1.3214
   48DOPE   HN2 6066   0.113   1.133  11.996 -1.1267 -1.2192  0.0891
   48DOPE   HN3 6067   0.049   1.295  12.008 -0.1242 -0.9667  0.1960
   48DOPE   C12 6068   0.004   1.178  12.178  0.3096  0.2533  0.0052
   48DOPE  H12A 6069   0.038   1.077  12.212 -0.3236  0.0970  0.1957
   48DOPE  H12B 6070  -0.098   1.167  12.135  0.4327 -2.0863  0.1637
   48DOPE   C11 6071   0.012   1.295  12.271  0.6376 -0.2367  0.1127
   48DOPE  H11A 6072  -0.065   1.275  12.348 -0.0838 -0.5630 -0.6914
   48DOPE  H11B 6073  -0.009   1.389  12.215  1.5127 -0.7688 -1.1472
   48DOPE     P 6074   0.172   1.421  12.433  0.3943 -0.0984 -0.3259
   48DOPE   O13 6075   0.224   1.539  12.358  0.0241 -0.4549  0.1862
   48DOPE   O14 6076   0.267   1.363  12.534  0.6964  0.2254  0.5913
   48DOPE   O11 6077   0.034   1.458  12.498  0.0062  0.2780 -0.3660
   48DOPE   O12 6078   0.141   1.310  12.327  0.1688 -0.4580 -0.1914
   48DOPE    C1 6079  -0.011   1.403  12.621 -0.1313  0.6184 -0.2407
   48DOPE    HA 6080   0.052   1.434  12.707 -2.4259  2.1259  1.0076
   48DOPE    HB 6081  -0.007   1.292  12.617 -1.1765  0.5512  0.2611
   48DOPE    C2 6082  -0.156   1.458  12.656  0.5530 -0.1934  0.1668
   48DOPE    HS 6083  -0.191   1.519  12.570 -1.0462  1.1311  1.6881
   48DOPE   O21 6084  -0.152   1.539  12.776  0.1724 -0.2265 -0.7277
   48DOPE   C21 6085  -0.255   1.621  12.803 -0.0439  0.0839  0.6577
   48DOPE   O22 6086  -0.347   1.643  12.725 -0.4025 -0.1606 -0.4003
   48DOPE   C22 6087  -0.235   1.699  12.940  0.6121  0.6163 -0.4031
   48DOPE   H2R 6088  -0.139   1.752  12.924  1.6574 -0.8005  0.9309
   48DOPE   H2S 6089  -0.228   1.635  13.030 -1.0572  0.1553 -0.5526
   48DOPE    C3 6090  -0.257   1.344  12.677 -1.0247 -0.9192 -0.0208
   48DOPE    HX 6091  -0.282   1.300  12.578 -3.3867 -1.3896  0.7205
   48DOPE    HY 6092  -0.352   1.388  12.714  0.0076  0.0239  1.6373
   48DOPE   O31 6093  -0.195   1.239  12.757 -0.2680 -0.0183 -0.3574
   48DOPE   C31 6094  -0.221   1.258  12.888 -0.0431  0.0491  0.1266
   48DOPE   O32 6095  -0.296   1.335  12.936  0.4707 -0.5464  0.3848
   48DOPE   C32 6096  -0.147   1.149  12.966 -0.4558 -0.6104 -0.2252
   48DOPE   H2X 6097  -0.141   1.054  12.908  1.4196 -1.1230  0.7431
   48DOPE   H2Y 6098  -0.046   1.195  12.975 -0.8813  0.5707 -1.2164
   48DOPE   C23 6099  -0.369   1.775  12.958 -0.2729  0.2367  0.4994
   48DOPE   H3R 6100  -0.459   1.710  12.962 -1.1743  1.4968  1.7278
   48DOPE   H3S 6101  -0.376   1.849  12.874  1.9574  1.0095  0.9212
   48DOPE   C24 6102  -0.378   1.863  13.079  0.1339  0.4825  0.2419
   48DOPE   H4R 6103  -0.471   1.922  13.064  0.9430  1.2702 -2.3039
   48DOPE   H4S 6104  -0.295   1.937  13.082 -0.0806  0.7159  2.3404
   48DOPE   C25 6105  -0.374   1.788  13.204  0.6961  0.5180  0.1219
   48DOPE   H5R 6106  -0.268   1.773  13.235  0.8119  2.2783  0.7069
   48DOPE   H5S 6107  -0.433   1.694  13.196  0.5710  0.5853  0.2561
   48DOPE   C26 6108  -0.436   1.862  13.325 -0.4116  0.7400  0.9611
   48DOPE   H6R 6109  -0.547   1.854  13.330 -0.5626  0.7078 -1.2749
   48DOPE   H6S 6110  -0.405   1.968  13.312  2.2233 -0.1308 -0.4288
   48DOPE   C27 6111  -0.385   1.799  13.457 -0.0985 -0.6841 -0.2581
   48DOPE   H7R 6112  -0.276   1.779  13.447 -0.2294 -1.0052 -1.2222
   48DOPE   H7S 6113  -0.444   1.706  13.471 -0.3307 -0.3017  1.5796
   48DOPE   C28 6114  -0.428   1.880  13.587 -0.3269 -0.1484  0.1879
   48DOPE   H8R 6115  -0.440   1.799  13.662  0.5408  0.9510  1.5508
   48DOPE   H8S 6116  -0.524   1.928  13.561  0.4901  1.0143 -0.8179
   48DOPE   C29 6117  -0.335   1.988  13.633 -0.5047 -0.5213  0.1427
   48DOPE   H9R 6118  -0.283   2.048  13.558 -0.1538  0.0711  0.8524
   48DOPE  C210 6119  -0.309   2.025  13.760 -0.7703 -0.7683 -0.4097
   48DOPE  H10R 6120  -0.277   2.129  13.774  0.1712 -1.1472  0.4343
   48DOPE  C211 6121  -0.357   1.954  13.885  0.0142 -0.8540 -0.3079
   48DOPE  H11R 6122  -0.270   1.943  13.955 -0.8495 -0.5489  0.8491
   48DOPE  H11S 6123  -0.380   1.848  13.861  0.7701 -1.4602  1.4348
   48DOPE  C212 6124  -0.468   2.022  13.953 -0.1934 -0.3640  0.1523
   48DOPE  H12R 6125  -0.554   2.020  13.882 -2.3693 -0.5649  2.5961
   48DOPE  H12S 6126  -0.440   2.127  13.976 -0.8668 -0.2055  0.2846
   48DOPE  C213 6127  -0.509   1.953  14.082  0.9041  0.1547  0.0619
   48DOPE  H13R 6128  -0.490   1.843  14.082 -1.2346 -0.2751 -0.2900
   48DOPE  H13S 6129  -0.616   1.972  14.106  0.7873 -0.3958 -0.0101
   48DOPE  C214 6130  -0.435   2.006  14.203 -0.5842  0.1017 -0.1457
   48DOPE  H14R 6131  -0.468   2.111  14.215 -2.5499  0.0660 -3.6951
   48DOPE  H14S 6132  -0.328   2.028  14.183 -0.3920 -0.8492 -0.1924
   48DOPE  C215 6133  -0.445   1.922  14.322  0.7779 -1.2137  0.3091
   48DOPE  H15R 6134  -0.401   1.821  14.307 -1.0227 -1.8899 -0.7521
   48DOPE  H15S 6135  -0.550   1.915  14.358  0.6704  0.8104  0.4655
   48DOPE  C216 6136  -0.358   1.982  14.431  0.0244  0.0613 -0.1224
   48DOPE  H16R 6137  -0.400   2.082  14.458 -0.5197  0.0565 -0.8996
   48DOPE  H16S 6138  -0.261   1.991  14.377  1.2461  2.7627  2.2162
   48DOPE  C217 6139  -0.338   1.889  14.551 -0.2465 -0.1050 -0.2366
   48DOPE  H17R 6140  -0.279   1.803  14.512  0.7885  0.5537 -0.1736
   48DOPE  H17S 6141  -0.434   1.848  14.586 -1.0656 -0.1081 -2.3402
   48DOPE  C218 6142  -0.270   1.955  14.675 -0.5035 -0.2487 -0.4756
   48DOPE  H18R 6143  -0.276   2.066  14.663  0.4671 -0.2957 -1.4717
   48DOPE  H18S 6144  -0.163   1.928  14.684 -0.1772  1.2622  0.8894
   48DOPE  H18T 6145  -0.320   1.933  14.772  1.5698  1.1649  0.9977
   48DOPE   C33 6146  -0.200   1.115  13.107  0.3619 -0.5771  0.1484
   48DOPE   H3X 6147  -0.309   1.097  13.104  0.6044 -1.9964 -0.9815
   48DOPE   H3Y 6148  -0.186   1.200  13.178  0.2987 -2.5092  2.6184
   48DOPE   C34 6149  -0.149   0.989  13.181  0.7009 -0.3451 -0.3569
   48DOPE   H4X 6150  -0.211   0.909  13.135  0.4848 -1.0070  1.0357
   48DOPE   H4Y 6151  -0.044   0.960  13.158  0.2079 -2.9615  0.3309
   48DOPE   C35 6152  -0.187   0.989  13.330  0.1411  0.0789 -0.8444
   48DOPE   H5X 6153  -0.280   1.049  13.325 -0.8154 -1.3852 -1.3404
   48DOPE   H5Y 6154  -0.114   1.054  13.383  1.0026  0.2073 -2.1158
   48DOPE   C36 6155  -0.216   0.850  13.389 -0.0466  0.0201 -0.1846
   48DOPE   H6X 6156  -0.128   0.784  13.372 -0.0852 -0.1809  0.3759
   48DOPE   H6Y 6157  -0.301   0.799  13.338 -0.9126 -0.0836  1.2753
   48DOPE   C37 6158  -0.241   0.854  13.537  0.0614  0.3596  0.2498
   48DOPE   H7X 6159  -0.146   0.853  13.596  0.7620  0.3161 -0.8572
   48DOPE   H7Y 6160  -0.283   0.954  13.560  2.8270  0.9681  3.5264
   48DOPE   C38 6161  -0.347   0.743  13.578  0.5729 -0.6040  0.1889
   48DOPE   H8X 6162  -0.314   0.640  13.549  1.9051 -0.6830  1.8702
   48DOPE   H8Y 6163  -0.441   0.768  13.524 -1.1035 -0.6549  2.9203
   48DOPE   C39 6164  -0.379   0.743  13.730 -0.3476 -0.0555  0.3230
   48DOPE   H9X 6165  -0.474   0.792  13.756 -0.4311 -1.4604  3.0824
   48DOPE  C310 6166  -0.322   0.653  13.817  0.4862  0.0118  0.4173
   48DOPE  H10X 6167  -0.346   0.662  13.924  0.7177  3.2737  0.3031
   48DOPE  C311 6168  -0.212   0.548  13.789  1.4589  0.1240 -0.0488
   48DOPE  H11X 6169  -0.182   0.558  13.682  1.6090 -2.5980 -0.3365
   48DOPE  H11Y 6170  -0.127   0.551  13.860  0.0620  0.6350  1.6618
   48DOPE  C312 6171  -0.259   0.395  13.807  0.2883  0.0265  0.1659
   48DOPE  H12X 6172  -0.166   0.335  13.810  0.8258  0.7897 -0.4697
   48DOPE  H12Y 6173  -0.322   0.369  13.720  0.7193 -1.2797  0.2248
   48DOPE  C313 6174  -0.332   0.366  13.936 -0.0193 -0.0432  0.1512
   48DOPE  H13X 6175  -0.268   0.407  14.017 -0.1500 -1.7210  1.1547
   48DOPE  H13Y 6176  -0.436   0.401  13.925 -0.5897 -1.2803  1.2919
   48DOPE  C314 6177  -0.328   0.211  13.961  0.2237 -0.2064  0.3407
   48DOPE  H14X 6178  -0.365   0.196  14.065 -1.3780 -3.7121 -0.5987
   48DOPE  H14Y 6179  -0.224   0.173  13.949 -0.4533 -1.9012 -0.3325
   48DOPE  C315 6180  -0.431   0.127  13.873 -0.4543 -0.2322  0.0213
   48DOPE  H15X 6181  -0.406   0.023  13.904 -0.9415 -0.7142 -1.1343
   48DOPE  H15Y 6182  -0.406   0.121  13.764  1.2140  1.3380  0.2641
   48DOPE  C316 6183  -0.576   0.174  13.885 -1.1243 -0.3188  0.0647
   48DOPE  H16X 6184  -0.579   0.265  13.821  0.6959 -0.3300 -0.0879
   48DOPE  H16Y 6185  -0.605   0.210  13.986 -2.0002  2.1636 -0.9696
   48DOPE  C317 6186  -0.675   0.082  13.814 -0.0595  0.8976  0.1693
   48DOPE  H17X 6187  -0.638   0.055  13.712 -0.7733  1.7431 -0.3236
   48DOPE  H17Y 6188  -0.673  -0.014  13.871  0.2199 -0.1946 -1.5858
   48DOPE  C318 6189  -0.815   0.141  13.819  0.5275  0.0118 -0.0799
   48DOPE  H18X 6190  -0.892   0.062  13.804  0.0418  0.3574  0.5650
   48DOPE  H18Y 6191  -0.841   0.195  13.913 -1.9093 -1.1254 -0.0231
   48DOPE  H18Z 6192  -0.827   0.216  13.738  0.1644 -0.0496 -0.0855
   49DOPE     N 6193   1.308   6.712  11.813 -0.9981 -0.0293 -0.2606
   49DOPE   HN1 6194   1.387   6.733  11.749  0.5087  1.6388  1.9595
   49DOPE   HN2 6195   1.229   6.665  11.765 -0.8049  0.7467 -1.3583
   49DOPE   HN3 6196   1.290   6.809  11.847  1.4758  0.1084  0.8388
   49DOPE   C12 6197   1.357   6.618  11.923 -0.6465 -0.8260  0.9839
   49DOPE  H12A 6198   1.464   6.641  11.940 -0.5193 -0.0218 -0.7754
   49DOPE  H12B 6199   1.345   6.516  11.880  1.2759 -1.1842  1.1975
   49DOPE   C11 6200   1.263   6.620  12.048 -0.4014  0.1958  0.5808
   49DOPE  H11A 6201   1.158   6.640  12.018  0.3901  1.1289 -1.7276
   49DOPE  H11B 6202   1.303   6.695  12.119 -0.4308  1.7794 -1.0220
   49DOPE     P 6203   1.385   6.432  12.186 -0.2742 -0.7291  0.0842
   49DOPE   O13 6204   1.508   6.437  12.102 -0.6733  0.0023 -0.0729
   49DOPE   O14 6205   1.342   6.305  12.252 -0.0836  0.1377 -0.3757
   49DOPE   O11 6206   1.402   6.540  12.299 -0.2341 -0.2188  0.2380
   49DOPE   O12 6207   1.267   6.489  12.107 -0.0564  0.0926  0.0571
   49DOPE    C1 6208   1.297   6.561  12.392  0.3257 -0.6818  0.3868
   49DOPE    HA 6209   1.292   6.473  12.460  1.0939 -1.1492 -0.1479
   49DOPE    HB 6210   1.207   6.598  12.338  0.4764 -0.9505 -0.0574
   49DOPE    C2 6211   1.335   6.681  12.478  0.5912 -0.0014  0.0269
   49DOPE    HS 6212   1.373   6.747  12.397 -1.2342  0.8320 -0.2002
   49DOPE   O21 6213   1.430   6.638  12.571 -0.4732 -0.1658 -0.3716
   49DOPE   C21 6214   1.556   6.668  12.553 -0.4557  0.1359  0.4925
   49DOPE   O22 6215   1.596   6.738  12.454 -0.1263  0.3069 -0.1013
   49DOPE   C22 6216   1.643   6.614  12.662 -0.1651  0.0492 -0.2432
   49DOPE   H2R 6217   1.724   6.555  12.614 -1.8034 -3.9738  1.4874
   49DOPE   H2S 6218   1.580   6.542  12.719 -0.3354  0.9455  0.7296
   49DOPE    C3 6219   1.211   6.747  12.547 -0.5081  0.5244 -0.2417
   49DOPE    HX 6220   1.157   6.664  12.597  0.4282 -0.6857 -1.1714
   49DOPE    HY 6221   1.139   6.785  12.472 -0.1490  0.5170 -0.5951
   49DOPE   O31 6222   1.250   6.845  12.646 -0.1039 -0.1081 -0.0904
   49DOPE   C31 6223   1.238   6.816  12.776 -0.3328 -0.2614 -0.1841
   49DOPE   O32 6224   1.192   6.717  12.826 -0.4619  0.1072 -0.8664
   49DOPE   C32 6225   1.296   6.934  12.859 -0.0750  1.0951 -0.0552
   49DOPE   H2X 6226   1.405   6.914  12.860 -0.3107 -0.2800  1.0157
   49DOPE   H2Y 6227   1.267   7.026  12.803 -1.6839  1.7253  1.7071
   49DOPE   C23 6228   1.697   6.726  12.758 -0.1340 -0.3450  0.2166
   49DOPE   H3R 6229   1.604   6.773  12.797 -0.7359 -0.5830 -0.8716
   49DOPE   H3S 6230   1.761   6.796  12.700  0.4486 -1.7008 -0.8351
   49DOPE   C24 6231   1.791   6.672  12.864  0.2887 -0.2501 -0.3163
   49DOPE   H4R 6232   1.867   6.748  12.892 -0.7606 -0.5673  4.0298
   49DOPE   H4S 6233   1.851   6.594  12.812  0.2178  0.0256 -0.8266
   49DOPE   C25 6234   1.709   6.623  12.990  0.1465 -0.1566  0.0208
   49DOPE   H5R 6235   1.644   6.545  12.946 -0.2551  0.3054 -0.2017
   49DOPE   H5S 6236   1.647   6.708  13.024 -0.6484 -1.0073  0.7808
   49DOPE   C26 6237   1.808   6.571  13.090 -0.0469  0.1543  0.4631
   49DOPE   H6R 6238   1.881   6.651  13.111  0.3670  0.4067 -1.6846
   49DOPE   H6S 6239   1.865   6.489  13.041 -2.9610 -1.6355 -0.2162
   49DOPE   C27 6240   1.740   6.515  13.211  0.1885  0.4578  0.4120
   49DOPE   H7R 6241   1.825   6.474  13.270  2.3960  0.0981 -2.7455
   49DOPE   H7S 6242   1.676   6.435  13.169  0.3081 -0.9175  2.7027
   49DOPE   C28 6243   1.662   6.615  13.293  1.0803  0.6848 -0.7188
   49DOPE   H8R 6244   1.630   6.553  13.380  3.4818  1.9109  1.1652
   49DOPE   H8S 6245   1.576   6.651  13.232  1.3491  1.2393 -0.7731
   49DOPE   C29 6246   1.742   6.722  13.356  0.4064  0.0598 -0.1995
   49DOPE   H9R 6247   1.813   6.770  13.286  0.6322 -1.8982 -1.3684
   49DOPE  C210 6248   1.752   6.755  13.492 -0.5256 -0.4075  0.3954
   49DOPE  H10R 6249   1.818   6.842  13.509  2.3324 -2.2897 -0.3581
   49DOPE  C211 6250   1.697   6.697  13.618 -0.2328  0.5331 -0.4291
   49DOPE  H11R 6251   1.647   6.599  13.598  3.7904 -2.1013  1.3458
   49DOPE  H11S 6252   1.623   6.761  13.670  1.1313 -0.6612  3.3173
   49DOPE  C212 6253   1.808   6.660  13.719  1.1415 -0.2172 -0.2912
   49DOPE  H12R 6254   1.856   6.757  13.744 -1.4981  1.2995 -0.6937
   49DOPE  H12S 6255   1.884   6.595  13.670 -0.0092 -0.7968 -1.3805
   49DOPE  C213 6256   1.742   6.591  13.839  0.3035 -0.3632  0.0841
   49DOPE  H13R 6257   1.692   6.497  13.808 -1.7049  1.1959 -1.6870
   49DOPE  H13S 6258   1.659   6.646  13.888 -1.0889 -1.7119 -0.6884
   49DOPE  C214 6259   1.846   6.558  13.951  0.1429  1.0836 -0.6760
   49DOPE  H14R 6260   1.911   6.645  13.971  2.2738 -1.0784  3.1101
   49DOPE  H14S 6261   1.905   6.476  13.904 -0.8652 -1.2945  1.9075
   49DOPE  C215 6262   1.778   6.505  14.080  0.2120  0.2307  0.5456
   49DOPE  H15R 6263   1.690   6.447  14.042  1.9397 -2.1234 -0.0758
   49DOPE  H15S 6264   1.745   6.581  14.154  2.1930  0.4820  1.2290
   49DOPE  C216 6265   1.870   6.404  14.149 -0.1479  0.2696 -0.0397
   49DOPE  H16R 6266   1.935   6.444  14.230 -1.5200  1.9470  0.3026
   49DOPE  H16S 6267   1.937   6.355  14.075  1.0239  0.8257  0.6203
   49DOPE  C217 6268   1.792   6.285  14.207 -0.7157 -0.1806  0.2699
   49DOPE  H17R 6269   1.747   6.239  14.117 -2.0409  1.3359  0.1292
   49DOPE  H17S 6270   1.708   6.311  14.275 -0.4864 -0.5146  0.6876
   49DOPE  C218 6271   1.880   6.197  14.290 -0.6756  1.2180 -0.4905
   49DOPE  H18R 6272   1.934   6.254  14.369 -1.4888 -0.3779  1.3175
   49DOPE  H18S 6273   1.945   6.141  14.219  0.1972 -0.0495  1.2296
   49DOPE  H18T 6274   1.808   6.128  14.339 -0.2347  0.7165 -0.5297
   49DOPE   C33 6275   1.238   6.945  13.003 -0.6926 -0.2480  0.2232
   49DOPE   H3X 6276   1.128   6.957  13.011 -0.4621  0.4182  3.5302
   49DOPE   H3Y 6277   1.277   7.041  13.045  1.2699 -1.2147  0.7317
   49DOPE   C34 6278   1.287   6.843  13.105 -0.4412 -0.4289 -0.6707
   49DOPE   H4X 6279   1.268   6.742  13.062  1.6564 -0.8904 -0.6228
   49DOPE   H4Y 6280   1.397   6.852  13.118 -0.3457  0.2340 -1.8142
   49DOPE   C35 6281   1.210   6.839  13.235  0.1736  1.0266 -0.5163
   49DOPE   H5X 6282   1.102   6.838  13.211  0.3517 -0.9098 -1.3736
   49DOPE   H5Y 6283   1.229   6.934  13.290  0.5049  0.0514  1.1099
   49DOPE   C36 6284   1.241   6.722  13.328  0.1908  0.1990  0.7308
   49DOPE   H6X 6285   1.351   6.708  13.318  0.1383  0.4916 -0.4396
   49DOPE   H6Y 6286   1.196   6.625  13.300  1.6078 -0.9991  2.3609
   49DOPE   C37 6287   1.218   6.742  13.481  0.2134 -0.4073 -0.3514
   49DOPE   H7X 6288   1.114   6.774  13.503  0.5589  1.2555 -1.0016
   49DOPE   H7Y 6289   1.249   6.648  13.531 -0.0740  0.0932  0.7873
   49DOPE   C38 6290   1.322   6.843  13.540  0.3680  0.4585  0.6477
   49DOPE   H8X 6291   1.286   6.936  13.491 -2.8561 -0.5067  0.9716
   49DOPE   H8Y 6292   1.427   6.811  13.520  0.4579  0.6035  0.8905
   49DOPE   C39 6293   1.300   6.879  13.684  0.4196 -0.0397 -1.0173
   49DOPE   H9X 6294   1.261   6.979  13.704  0.3334 -0.8153  3.6787
   49DOPE  C310 6295   1.320   6.804  13.796 -0.4842  0.1772  0.8487
   49DOPE  H10X 6296   1.297   6.843  13.896  2.2647  1.0946  1.1984
   49DOPE  C311 6297   1.355   6.660  13.798 -0.3675 -0.2920 -0.3617
   49DOPE  H11X 6298   1.373   6.610  13.700 -1.2561 -1.7656  0.1963
   49DOPE  H11Y 6299   1.454   6.642  13.845 -0.3566 -2.1975 -1.0134
   49DOPE  C312 6300   1.240   6.575  13.861  0.4412 -1.1262  0.5013
   49DOPE  H12X 6301   1.229   6.471  13.824  0.3365 -0.7302 -0.6350
   49DOPE  H12Y 6302   1.142   6.613  13.824  0.3288 -1.2119  0.7105
   49DOPE  C313 6303   1.226   6.582  14.017  0.4321  0.1739 -0.3574
   49DOPE  H13X 6304   1.231   6.685  14.058 -0.3018  1.0661 -2.3548
   49DOPE  H13Y 6305   1.133   6.539  14.060  0.4855 -1.2101 -1.5268
   49DOPE  C314 6306   1.337   6.494  14.076 -0.4830  0.4236  0.0134
   49DOPE  H14X 6307   1.413   6.477  13.997 -1.0957 -0.8366 -0.3322
   49DOPE  H14Y 6308   1.299   6.392  14.097  1.6986 -0.6821 -1.0248
   49DOPE  C315 6309   1.409   6.542  14.200  0.3458 -0.5185 -0.8484
   49DOPE  H15X 6310   1.441   6.646  14.182  0.5182 -0.3852  0.1441
   49DOPE  H15Y 6311   1.503   6.483  14.210 -0.1947 -1.2949 -0.1768
   49DOPE  C316 6312   1.327   6.524  14.330 -0.0609  0.4961  0.7038
   49DOPE  H16X 6313   1.301   6.416  14.334  1.5921 -0.0398 -1.3265
   49DOPE  H16Y 6314   1.229   6.575  14.327 -0.3470 -0.0481  0.6343
   49DOPE  C317 6315   1.401   6.568  14.454  0.2105  0.2896  0.1003
   49DOPE  H17X 6316   1.431   6.673  14.435 -0.4499  0.4755  0.0732
   49DOPE  H17Y 6317   1.343   6.570  14.549  2.6942 -1.6545  1.8180
   49DOPE  C318 6318   1.524   6.490  14.489 -0.3913 -0.1690 -0.0559
   49DOPE  H18X 6319   1.512   6.381  14.507 -0.0821  0.0408  1.6123
   49DOPE  H18Y 6320   1.596   6.514  14.407 -0.0365  0.6633  0.4875
   49DOPE  H18Z 6321   1.562   6.519  14.589  1.0736 -0.2035 -0.5720
   50DOPE     N 6322   1.608   4.451  12.196 -0.1421 -0.1515  0.2386
   50DOPE   HN1 6323   1.638   4.467  12.294 -1.3415  0.2993  0.5463
   50DOPE   HN2 6324   1.668   4.516  12.142  0.4626  0.1905  1.2839
   50DOPE   HN3 6325   1.510   4.484  12.187  0.3569  1.4500  0.3317
   50DOPE   C12 6326   1.626   4.309  12.144  0.7078 -0.3055 -0.8901
   50DOPE  H12A 6327   1.722   4.263  12.175  0.3913  0.6020  1.6674
   50DOPE  H12B 6328   1.621   4.321  12.034 -0.7184  1.9383 -0.6428
   50DOPE   C11 6329   1.512   4.223  12.210  0.0081  0.1817 -0.2096
   50DOPE  H11A 6330   1.521   4.236  12.320 -0.8936  1.5928 -0.2799
   50DOPE  H11B 6331   1.521   4.117  12.177 -1.1485  0.4956 -1.6434
   50DOPE     P 6332   1.264   4.160  12.208  0.1832 -0.0569 -0.1207
   50DOPE   O13 6333   1.299   4.019  12.176  0.0393 -0.7343 -0.1019
   50DOPE   O14 6334   1.135   4.208  12.154  0.2979 -0.0203 -0.5202
   50DOPE   O11 6335   1.257   4.173  12.365 -0.2835  0.1017  0.1516
   50DOPE   O12 6336   1.382   4.260  12.172  0.4891 -0.3843  0.2648
   50DOPE    C1 6337   1.247   4.304  12.427  0.1380  0.2767 -0.2352
   50DOPE    HA 6338   1.169   4.364  12.375 -0.0454 -0.0505 -0.3441
   50DOPE    HB 6339   1.347   4.351  12.423  1.1346 -1.7396 -0.1594
   50DOPE    C2 6340   1.197   4.300  12.577  0.1155 -0.6673 -0.0427
   50DOPE    HS 6341   1.191   4.408  12.600  1.8919  0.0231 -2.4690
   50DOPE   O21 6342   1.282   4.227  12.673 -0.6691  0.2091  0.2717
   50DOPE   C21 6343   1.383   4.302  12.710  0.3913  0.1220 -0.6946
   50DOPE   O22 6344   1.408   4.415  12.671  0.2044  0.1736 -0.0993
   50DOPE   C22 6345   1.466   4.234  12.816  0.5301  0.5504 -0.2191
   50DOPE   H2R 6346   1.567   4.234  12.770  0.4349  1.3218 -0.4432
   50DOPE   H2S 6347   1.448   4.125  12.831  2.9301  0.1990  0.5418
   50DOPE    C3 6348   1.047   4.247  12.585  0.2922  0.4350  0.1723
   50DOPE    HX 6349   1.054   4.136  12.574  1.9581  0.5849 -0.5817
   50DOPE    HY 6350   0.991   4.284  12.497 -1.1630  1.4279  1.4728
   50DOPE   O31 6351   0.989   4.286  12.709  0.0498 -0.3920  0.3288
   50DOPE   C31 6352   0.913   4.398  12.713 -0.1468  0.9061 -0.2265
   50DOPE   O32 6353   0.899   4.472  12.618  0.0796 -0.5247 -0.2321
   50DOPE   C32 6354   0.842   4.420  12.849 -0.0783 -0.0267 -0.2370
   50DOPE   H2X 6355   0.907   4.480  12.917 -0.8680 -1.3408  1.7777
   50DOPE   H2Y 6356   0.745   4.473  12.841  0.3454  0.6528 -1.0750
   50DOPE   C23 6357   1.451   4.293  12.953  0.4194 -0.4111  0.5875
   50DOPE   H3R 6358   1.344   4.283  12.982 -0.0508  1.2289 -0.4548
   50DOPE   H3S 6359   1.478   4.400  12.940  2.5832 -1.0068 -0.1513
   50DOPE   C24 6360   1.550   4.248  13.060 -0.7851 -0.0481  0.3356
   50DOPE   H4R 6361   1.654   4.246  13.021 -0.9282  0.2165 -0.0739
   50DOPE   H4S 6362   1.524   4.144  13.088 -1.9731  0.0407 -0.3526
   50DOPE   C25 6363   1.554   4.338  13.183 -0.4608 -0.6926  0.0667
   50DOPE   H5R 6364   1.449   4.368  13.200 -0.3467 -0.1562 -0.1424
   50DOPE   H5S 6365   1.606   4.429  13.144 -0.8808 -1.1863 -1.7627
   50DOPE   C26 6366   1.605   4.272  13.313 -0.3308 -0.4667  0.4720
   50DOPE   H6R 6367   1.715   4.282  13.319 -0.1731 -1.6178 -0.2214
   50DOPE   H6S 6368   1.586   4.164  13.330  2.4503 -0.6981  2.8802
   50DOPE   C27 6369   1.543   4.337  13.441  0.6013 -0.1639 -0.8290
   50DOPE   H7R 6370   1.435   4.310  13.441  0.1427  1.4809  1.2151
   50DOPE   H7S 6371   1.547   4.444  13.415  1.4210 -0.0372 -0.2257
   50DOPE   C28 6372   1.609   4.297  13.578 -0.2251  1.1770  0.2199
   50DOPE   H8R 6373   1.608   4.374  13.657  0.2407 -0.2386  1.6597
   50DOPE   H8S 6374   1.718   4.297  13.554 -0.4320  2.5517 -0.8561
   50DOPE   C29 6375   1.578   4.153  13.624 -0.4822 -0.1497 -0.3965
   50DOPE   H9R 6376   1.620   4.078  13.556  1.1434  0.5986 -0.2633
   50DOPE  C210 6377   1.477   4.113  13.702  0.2985 -0.3417  0.0060
   50DOPE  H10R 6378   1.461   4.004  13.708  1.3416 -0.4694  0.6077
   50DOPE  C211 6379   1.392   4.193  13.806  0.5905 -0.4216  0.3145
   50DOPE  H11R 6380   1.292   4.207  13.758  1.3640  0.0609 -1.2558
   50DOPE  H11S 6381   1.444   4.292  13.810  0.0817 -0.1824  1.2275
   50DOPE  C212 6382   1.388   4.107  13.926 -0.7162  0.0527  0.0244
   50DOPE  H12R 6383   1.361   4.003  13.900 -1.7468  0.5082 -0.8388
   50DOPE  H12S 6384   1.310   4.137  13.999 -0.2835 -0.1855  0.5957
   50DOPE  C213 6385   1.525   4.105  14.005 -0.2285 -0.0187 -0.0887
   50DOPE  H13R 6386   1.540   4.204  14.054 -0.4864  0.9120 -1.7824
   50DOPE  H13S 6387   1.610   4.102  13.933  0.0976  1.6529  0.1714
   50DOPE  C214 6388   1.543   3.992  14.106 -0.1169  0.0014 -0.2255
   50DOPE  H14R 6389   1.635   4.011  14.165 -0.3268 -1.1639  0.5119
   50DOPE  H14S 6390   1.546   3.898  14.047 -1.4195 -0.1471 -0.0973
   50DOPE  C215 6391   1.418   3.987  14.199  0.9417  0.2545  0.3726
   50DOPE  H15R 6392   1.347   3.920  14.147  2.5620  1.1728 -3.3798
   50DOPE  H15S 6393   1.382   4.090  14.218 -0.0945 -0.2287  1.1196
   50DOPE  C216 6394   1.460   3.925  14.335 -0.0802  0.1617 -0.1063
   50DOPE  H16R 6395   1.530   3.999  14.381 -0.1099  1.3571 -1.8541
   50DOPE  H16S 6396   1.511   3.829  14.315 -0.9134  0.0673 -1.9817
   50DOPE  C217 6397   1.342   3.905  14.424  0.5908 -0.2410  0.7236
   50DOPE  H17R 6398   1.270   3.989  14.410  0.3622 -0.6981 -1.1640
   50DOPE  H17S 6399   1.365   3.906  14.533  0.6070  0.1285  0.7200
   50DOPE  C218 6400   1.271   3.774  14.384 -0.1475 -0.2739 -0.4082
   50DOPE  H18R 6401   1.337   3.685  14.385  0.7184  0.3293  1.5229
   50DOPE  H18S 6402   1.239   3.778  14.278  1.2650 -2.1529 -0.9600
   50DOPE  H18T 6403   1.190   3.745  14.455 -1.0067 -0.7830 -1.5693
   50DOPE   C33 6404   0.810   4.292  12.938  0.2465  0.5397  0.1425
   50DOPE   H3X 6405   0.897   4.230  12.967  0.2804  1.7084  2.8421
   50DOPE   H3Y 6406   0.749   4.235  12.864 -0.3092  1.2818  0.0132
   50DOPE   C34 6407   0.717   4.329  13.054 -0.2467 -0.3462  0.1037
   50DOPE   H4X 6408   0.782   4.381  13.127 -1.4274  0.0361  0.9255
   50DOPE   H4Y 6409   0.637   4.401  13.027  0.5459  0.0448 -1.2815
   50DOPE   C35 6410   0.652   4.218  13.140 -0.1380 -0.2102  0.3310
   50DOPE   H5X 6411   0.579   4.161  13.078  1.2980 -2.4212  0.5655
   50DOPE   H5Y 6412   0.598   4.274  13.218  0.8213  0.8417  0.2648
   50DOPE   C36 6413   0.749   4.126  13.210  0.5617  0.4916 -0.0211
   50DOPE   H6X 6414   0.833   4.175  13.262  0.8399 -1.7218  1.7886
   50DOPE   H6Y 6415   0.788   4.065  13.125 -0.0655 -1.4074  0.9876
   50DOPE   C37 6416   0.694   4.023  13.309  0.3588 -0.4081 -0.9826
   50DOPE   H7X 6417   0.649   3.949  13.240  0.6701 -2.2357  0.6544
   50DOPE   H7Y 6418   0.777   3.969  13.359  0.7027 -0.4436 -1.5876
   50DOPE   C38 6419   0.592   4.079  13.415 -0.2984  1.0487  0.0044
   50DOPE   H8X 6420   0.566   3.991  13.478  0.8602  1.1611  0.6734
   50DOPE   H8Y 6421   0.500   4.107  13.359  1.5467  0.2361 -3.7582
   50DOPE   C39 6422   0.655   4.190  13.502  0.2561  0.1743  0.4946
   50DOPE   H9X 6423   0.670   4.283  13.444 -1.7822  1.4860  1.9258
   50DOPE  C310 6424   0.713   4.193  13.622  0.1904 -0.4074  0.2950
   50DOPE  H10X 6425   0.740   4.286  13.674 -2.4450  0.2375  0.6102
   50DOPE  C311 6426   0.719   4.066  13.706 -0.2711  0.1615  0.0280
   50DOPE  H11X 6427   0.694   3.975  13.647 -1.4098  0.2868  0.2892
   50DOPE  H11Y 6428   0.816   4.036  13.750 -0.9131 -1.5439  0.3450
   50DOPE  C312 6429   0.623   4.061  13.824  0.6103  1.1699  0.0140
   50DOPE  H12X 6430   0.516   4.041  13.801  0.3698 -1.1359  2.5927
   50DOPE  H12Y 6431   0.621   4.161  13.873  1.8241  1.0403  0.3536
   50DOPE  C313 6432   0.656   3.962  13.932  0.2126  0.7981  0.3656
   50DOPE  H13X 6433   0.660   3.864  13.881  1.9840  1.0923 -0.1283
   50DOPE  H13Y 6434   0.757   3.993  13.967 -0.3589  3.4651 -0.1205
   50DOPE  C314 6435   0.550   3.946  14.045  0.2476  0.2852  0.2730
   50DOPE  H14X 6436   0.568   3.847  14.091 -1.5226 -0.7906 -1.2114
   50DOPE  H14Y 6437   0.446   3.939  14.006 -0.4326  2.8213  1.3946
   50DOPE  C315 6438   0.555   4.062  14.140 -0.1462 -0.5438 -0.4404
   50DOPE  H15X 6439   0.518   4.156  14.093  0.8974  0.2288  0.2393
   50DOPE  H15Y 6440   0.661   4.079  14.168 -0.5033  3.6857 -0.9615
   50DOPE  C316 6441   0.489   4.029  14.278  0.2045  0.8715 -0.0521
   50DOPE  H16X 6442   0.498   3.922  14.307 -0.7104  0.3106 -1.6960
   50DOPE  H16Y 6443   0.380   4.052  14.275  0.2116  0.8631 -0.3601
   50DOPE  C317 6444   0.546   4.119  14.389  0.0808  0.8462 -0.4165
   50DOPE  H17X 6445   0.656   4.105  14.384  0.0716  0.4411  0.3891
   50DOPE  H17Y 6446   0.516   4.225  14.373  2.2051  1.1272 -3.3951
   50DOPE  C318 6447   0.488   4.075  14.526 -0.6251 -0.1279 -1.0702
   50DOPE  H18X 6448   0.544   3.985  14.561  0.3222  0.3202 -1.3800
   50DOPE  H18Y 6449   0.521   4.147  14.604 -0.2566 -1.0002 -0.3999
   50DOPE  H18Z 6450   0.377   4.068  14.527 -0.5648 -1.1930 -0.5990
   51DOPE     N 6451   3.643   0.274  12.005  0.0404 -0.1035  0.1093
   51DOPE   HN1 6452   3.656   0.375  11.988 -0.9800 -0.3465 -2.5414
   51DOPE   HN2 6453   3.720   0.212  11.973  1.0536  0.0289  2.1376
   51DOPE   HN3 6454   3.556   0.249  11.953 -2.7214  1.8031  3.3470
   51DOPE   C12 6455   3.635   0.265  12.156 -0.0612 -0.0853 -0.0070
   51DOPE  H12A 6456   3.731   0.308  12.194  0.8550 -1.0526 -1.1376
   51DOPE  H12B 6457   3.635   0.156  12.177  0.8702  0.1900  1.6058
   51DOPE   C11 6458   3.505   0.328  12.208 -0.0975  0.1189 -0.0677
   51DOPE  H11A 6459   3.505   0.316  12.318  0.1392 -3.1894 -0.3547
   51DOPE  H11B 6460   3.424   0.265  12.166  1.4875 -1.3373 -1.0760
   51DOPE     P 6461   3.340   0.518  12.140 -0.1837 -0.0570  0.3474
   51DOPE   O13 6462   3.245   0.462  12.241  0.1895  0.2419 -0.3322
   51DOPE   O14 6463   3.313   0.487  11.996  0.0968 -0.0263  0.4843
   51DOPE   O11 6464   3.351   0.675  12.159  0.2003 -0.2113  0.6731
   51DOPE   O12 6465   3.485   0.465  12.174 -0.1348  0.0608 -0.1214
   51DOPE    C1 6466   3.463   0.750  12.204 -0.2177 -0.4716 -0.0936
   51DOPE    HA 6467   3.479   0.844  12.146 -2.3248  0.4561  0.7505
   51DOPE    HB 6468   3.549   0.679  12.201  0.0454 -0.3373  2.2255
   51DOPE    C2 6469   3.446   0.785  12.360 -1.0204 -0.4026  0.2631
   51DOPE    HS 6470   3.546   0.811  12.401 -1.1938  1.9054 -0.5928
   51DOPE   O21 6471   3.384   0.675  12.436  0.3689 -0.2979 -0.6284
   51DOPE   C21 6472   3.474   0.591  12.493  0.4018 -0.4178 -0.4247
   51DOPE   O22 6473   3.594   0.592  12.469  0.6189 -0.0812 -0.0811
   51DOPE   C22 6474   3.408   0.497  12.584 -0.1395 -0.4738  0.5652
   51DOPE   H2R 6475   3.481   0.414  12.598 -0.4373 -0.8845 -0.2622
   51DOPE   H2S 6476   3.324   0.460  12.521  0.2545  3.0454 -2.3370
   51DOPE    C3 6477   3.359   0.909  12.366  0.4197 -0.0082 -0.2905
   51DOPE    HX 6478   3.267   0.883  12.309  0.0110  1.0584 -0.1355
   51DOPE    HY 6479   3.400   0.985  12.296 -1.7888  2.0788  0.5385
   51DOPE   O31 6480   3.329   0.953  12.498 -0.8220 -0.1228 -0.6835
   51DOPE   C31 6481   3.255   1.061  12.500 -0.5693  0.3762  0.5436
   51DOPE   O32 6482   3.211   1.127  12.407  0.7209 -0.7090  0.1645
   51DOPE   C32 6483   3.220   1.099  12.639 -0.6199  0.2585 -0.3166
   51DOPE   H2X 6484   3.284   1.187  12.662  0.6658 -0.4487 -1.1305
   51DOPE   H2Y 6485   3.114   1.132  12.631 -1.2847 -2.2388 -3.9246
   51DOPE   C23 6486   3.366   0.568  12.712  0.0508 -0.0840 -0.3694
   51DOPE   H3R 6487   3.288   0.501  12.755 -0.9451  1.0791 -0.3160
   51DOPE   H3S 6488   3.305   0.660  12.698 -0.5889 -0.5073 -0.4133
   51DOPE   C24 6489   3.478   0.592  12.814  0.0013  0.4765  0.2888
   51DOPE   H4R 6490   3.508   0.698  12.823  1.4099  0.0225  1.2083
   51DOPE   H4S 6491   3.556   0.520  12.781  0.2614  1.4615 -1.3558
   51DOPE   C25 6492   3.430   0.553  12.957 -0.0308 -0.0178 -0.1287
   51DOPE   H5R 6493   3.375   0.457  12.961 -2.6733  1.4042 -0.2012
   51DOPE   H5S 6494   3.358   0.629  12.995 -0.8568 -0.1330 -1.3824
   51DOPE   C26 6495   3.553   0.558  13.052  0.7226 -0.9012 -0.2373
   51DOPE   H6R 6496   3.595   0.660  13.064  1.0897 -1.1306  0.4377
   51DOPE   H6S 6497   3.631   0.492  13.007 -0.6584 -1.1564 -2.4229
   51DOPE   C27 6498   3.494   0.523  13.190  0.0205  0.0468  0.2867
   51DOPE   H7R 6499   3.488   0.413  13.207 -0.1121 -0.1726 -1.0797
   51DOPE   H7S 6500   3.392   0.566  13.198 -0.5378 -1.2547  0.4264
   51DOPE   C28 6501   3.573   0.588  13.302 -0.1786 -0.4656 -0.5899
   51DOPE   H8R 6502   3.592   0.693  13.273  3.2156 -0.4877  1.0534
   51DOPE   H8S 6503   3.674   0.541  13.301  0.0226 -0.0341 -1.3448
   51DOPE   C29 6504   3.505   0.577  13.437  0.0037  0.2187 -0.3404
   51DOPE   H9R 6505   3.397   0.594  13.431 -0.2034 -0.8998 -0.0795
   51DOPE  C210 6506   3.562   0.560  13.554  0.2841  0.7358 -0.9917
   51DOPE  H10R 6507   3.501   0.546  13.644  1.8823  0.8125  0.1493
   51DOPE  C211 6508   3.710   0.522  13.584  0.4697 -0.1911 -0.0405
   51DOPE  H11R 6509   3.772   0.527  13.491  0.4505 -0.6063 -0.0788
   51DOPE  H11S 6510   3.706   0.417  13.619 -0.8332 -1.0184 -2.4135
   51DOPE  C212 6511   3.793   0.605  13.685  0.3024  0.4430  0.1790
   51DOPE  H12R 6512   3.748   0.703  13.713  0.3377  0.0497  1.6825
   51DOPE  H12S 6513   3.887   0.637  13.635  1.1354 -0.9513  0.8114
   51DOPE  C213 6514   3.836   0.532  13.805 -0.2154 -0.4458 -0.9141
   51DOPE  H13R 6515   3.909   0.451  13.785  0.2360 -0.4608  0.6772
   51DOPE  H13S 6516   3.758   0.482  13.866  0.5121 -0.0752  0.3554
   51DOPE  C214 6517   3.899   0.623  13.916 -0.1200  0.4350 -0.3920
   51DOPE  H14R 6518   3.826   0.687  13.969 -1.4024 -0.9406 -0.4314
   51DOPE  H14S 6519   3.989   0.676  13.879  0.7345 -1.4635 -1.1417
   51DOPE  C215 6520   3.945   0.539  14.026  0.7651  0.0727 -0.0792
   51DOPE  H15R 6521   4.030   0.481  13.983 -0.0299 -0.8451 -0.4470
   51DOPE  H15S 6522   3.867   0.471  14.067  0.5542  0.2213 -0.2354
   51DOPE  C216 6523   4.002   0.617  14.151  1.2325  1.0368 -0.1241
   51DOPE  H16R 6524   3.920   0.675  14.198  0.2266  0.7010 -1.3952
   51DOPE  H16S 6525   4.089   0.674  14.114  1.4722 -0.5206 -2.1419
   51DOPE  C217 6526   4.039   0.514  14.258  0.1813  0.0957 -0.4128
   51DOPE  H17R 6527   4.143   0.482  14.235  0.0613 -2.2362  1.8448
   51DOPE  H17S 6528   3.974   0.424  14.274  0.7819 -0.1963  0.4715
   51DOPE  C218 6529   4.046   0.582  14.398  0.5053  0.0295  0.2603
   51DOPE  H18R 6530   4.087   0.517  14.478  1.0267 -0.7974 -0.6566
   51DOPE  H18S 6531   3.945   0.606  14.438  0.6656 -0.8026  1.1995
   51DOPE  H18T 6532   4.118   0.667  14.398  0.5058  0.0322 -0.2852
   51DOPE   C33 6533   3.233   0.985  12.749  0.0019  0.0729  0.1235
   51DOPE   H3X 6534   3.326   0.928  12.730 -1.8537 -2.2686 -2.7209
   51DOPE   H3Y 6535   3.145   0.917  12.746 -0.1553  0.3037 -0.7040
   51DOPE   C34 6536   3.238   1.047  12.894 -0.1264  0.0904 -0.3230
   51DOPE   H4X 6537   3.300   1.140  12.902 -1.3502  0.7663  2.9134
   51DOPE   H4Y 6538   3.134   1.080  12.914  0.5411  2.4513 -0.3945
   51DOPE   C35 6539   3.296   0.957  13.006 -0.4519 -0.3294  0.0821
   51DOPE   H5X 6540   3.381   0.904  12.957  0.6378  1.3147  0.1260
   51DOPE   H5Y 6541   3.216   0.881  13.026  0.9426 -2.0474 -0.5677
   51DOPE   C36 6542   3.348   1.034  13.131 -0.4210  0.5272  0.2317
   51DOPE   H6X 6543   3.255   1.085  13.165 -1.0335 -0.5056  0.1437
   51DOPE   H6Y 6544   3.414   1.115  13.093 -0.9011  0.4407 -0.8024
   51DOPE   C37 6545   3.411   0.939  13.231  0.4953 -0.1673 -0.2462
   51DOPE   H7X 6546   3.336   0.862  13.258  0.5723 -0.7183 -1.5388
   51DOPE   H7Y 6547   3.498   0.891  13.182  1.8711  0.5719  1.3632
   51DOPE   C38 6548   3.445   1.012  13.355 -0.3730 -0.2926 -0.4991
   51DOPE   H8X 6549   3.349   1.022  13.412 -1.4294 -0.5363 -2.1648
   51DOPE   H8Y 6550   3.471   1.115  13.324 -1.4783  0.4733  0.9553
   51DOPE   C39 6551   3.560   0.942  13.432  0.9108  0.1223 -0.6347
   51DOPE   H9X 6552   3.653   0.910  13.383 -0.3957 -2.5778 -1.5312
   51DOPE  C310 6553   3.559   0.918  13.569  0.1343  0.2038  0.2193
   51DOPE  H10X 6554   3.643   0.866  13.618 -0.3559  0.7778  1.7275
   51DOPE  C311 6555   3.434   0.935  13.648  0.0660 -0.4130 -0.6196
   51DOPE  H11X 6556   3.369   1.022  13.625 -0.6473 -0.5514  0.7967
   51DOPE  H11Y 6557   3.371   0.844  13.634 -0.9576  0.3290 -0.8925
   51DOPE  C312 6558   3.474   0.960  13.796  0.2093  0.6684 -0.1531
   51DOPE  H12X 6559   3.393   1.012  13.852  1.6948 -0.2309  3.0742
   51DOPE  H12Y 6560   3.559   1.032  13.798  0.7888 -0.0241  0.2331
   51DOPE  C313 6561   3.509   0.836  13.877  0.2919 -0.5528 -0.0667
   51DOPE  H13X 6562   3.551   0.769  13.799 -0.5763 -0.3797 -0.6853
   51DOPE  H13Y 6563   3.583   0.870  13.953  1.4461 -0.3728 -1.2391
   51DOPE  C314 6564   3.397   0.753  13.949  0.1217 -0.5830 -0.6416
   51DOPE  H14X 6565   3.332   0.716  13.867  0.9815 -2.0183 -0.7042
   51DOPE  H14Y 6566   3.330   0.815  14.012 -0.7506 -1.9674 -0.1690
   51DOPE  C315 6567   3.458   0.642  14.030  0.0582  0.9034  0.1408
   51DOPE  H15X 6568   3.521   0.684  14.111 -1.0800  1.9826  0.5006
   51DOPE  H15Y 6569   3.517   0.572  13.967 -1.4563 -0.6411  0.3635
   51DOPE  C316 6570   3.347   0.560  14.094  0.2525  0.4341  0.1749
   51DOPE  H16X 6571   3.281   0.631  14.149 -0.3900  1.1569 -1.4617
   51DOPE  H16Y 6572   3.390   0.485  14.164  1.3420  0.7938 -0.0980
   51DOPE  C317 6573   3.275   0.472  13.994 -0.2973 -0.2182 -0.0720
   51DOPE  H17X 6574   3.243   0.546  13.917 -0.5439  0.5331  0.7414
   51DOPE  H17Y 6575   3.340   0.403  13.935 -0.0746 -0.6846  0.7015
   51DOPE  C318 6576   3.155   0.399  14.055 -0.3204 -0.1000 -1.0920
   51DOPE  H18X 6577   3.073   0.473  14.063 -0.6480 -0.6585  1.7059
   51DOPE  H18Y 6578   3.123   0.326  13.977  2.7549 -2.1323 -0.6274
   51DOPE  H18Z 6579   3.184   0.356  14.154  0.9059  0.3154 -1.2508
   52DOPE     N 6580   0.242   3.895  12.284  0.0533 -0.4953 -0.3607
   52DOPE   HN1 6581   0.325   3.955  12.270 -0.5967  0.5935  0.3072
   52DOPE   HN2 6582   0.162   3.956  12.311 -1.5375 -2.0387 -1.3916
   52DOPE   HN3 6583   0.270   3.834  12.364  1.2162  0.7217  0.2030
   52DOPE   C12 6584   0.208   3.807  12.162 -0.4532  0.4689  0.4766
   52DOPE  H12A 6585   0.143   3.722  12.191 -1.7866  1.9853  2.1611
   52DOPE  H12B 6586   0.300   3.769  12.114 -1.4464  0.4929 -1.5546
   52DOPE   C11 6587   0.139   3.899  12.057 -0.3132  0.2393 -0.2205
   52DOPE  H11A 6588   0.053   3.954  12.100  0.9921  1.7624  0.5183
   52DOPE  H11B 6589   0.096   3.828  11.983  0.6810  0.9015 -1.4889
   52DOPE     P 6590   0.219   4.130  11.974  0.2738 -0.3918  0.0162
   52DOPE   O13 6591   0.081   4.156  11.932  0.0262  0.2988  0.0785
   52DOPE   O14 6592   0.322   4.178  11.880 -0.1375  0.4062  0.1956
   52DOPE   O11 6593   0.238   4.182  12.114 -0.5789  0.2531 -0.4995
   52DOPE   O12 6594   0.233   3.976  11.997 -0.1524  0.5261  0.0036
   52DOPE    C1 6595   0.218   4.322  12.141 -0.4106 -0.7635 -1.1264
   52DOPE    HA 6596   0.115   4.363  12.132 -0.5750 -0.3194  1.8426
   52DOPE    HB 6597   0.277   4.384  12.069 -0.0469  1.3018  0.8320
   52DOPE    C2 6598   0.265   4.358  12.290  0.1973 -0.2452  0.4152
   52DOPE    HS 6599   0.355   4.295  12.306  1.0898  0.9337  0.1723
   52DOPE   O21 6600   0.162   4.325  12.383  0.0579 -0.5713  0.5611
   52DOPE   C21 6601   0.200   4.314  12.505 -0.3214  0.6863  0.0786
   52DOPE   O22 6602   0.319   4.309  12.540  0.0050 -0.1922  0.3187
   52DOPE   C22 6603   0.087   4.295  12.601  0.1625  0.2219 -0.0878
   52DOPE   H2R 6604  -0.007   4.309  12.544  1.2346  0.9854 -1.7309
   52DOPE   H2S 6605   0.088   4.377  12.676  2.9752  0.1293  0.0714
   52DOPE    C3 6606   0.295   4.508  12.289 -0.0342  0.0630  0.3013
   52DOPE    HX 6607   0.211   4.569  12.251 -1.4469 -2.9556 -1.8542
   52DOPE    HY 6608   0.370   4.531  12.210  1.8458 -0.2244  1.8966
   52DOPE   O31 6609   0.341   4.566  12.411 -0.4947 -0.5798  0.0216
   52DOPE   C31 6610   0.473   4.548  12.451  0.6295 -0.2327 -0.2325
   52DOPE   O32 6611   0.560   4.498  12.383  0.3839 -0.1560 -0.4521
   52DOPE   C32 6612   0.495   4.597  12.598  0.5316  0.7213  0.2765
   52DOPE   H2X 6613   0.416   4.552  12.662  1.2690 -0.0766  0.6389
   52DOPE   H2Y 6614   0.588   4.549  12.635 -0.6266 -1.0405  1.0112
   52DOPE   C23 6615   0.074   4.156  12.662 -0.5328  0.2118  0.1380
   52DOPE   H3R 6616   0.085   4.081  12.581 -1.3745 -0.8658  0.9823
   52DOPE   H3S 6617  -0.025   4.150  12.711  0.2052 -0.0053  1.6555
   52DOPE   C24 6618   0.171   4.151  12.784  0.1979  0.2965  0.5775
   52DOPE   H4R 6619   0.263   4.201  12.747 -0.8387  3.5444  2.0138
   52DOPE   H4S 6620   0.179   4.045  12.817 -1.5388 -0.3465 -0.8994
   52DOPE   C25 6621   0.116   4.232  12.905 -0.2708  0.0793 -0.4464
   52DOPE   H5R 6622   0.028   4.176  12.942 -0.0711  0.1092  0.0820
   52DOPE   H5S 6623   0.083   4.331  12.869  1.3528  1.0704  0.6361
   52DOPE   C26 6624   0.207   4.237  13.026  0.6578  0.1736 -0.0199
   52DOPE   H6R 6625   0.253   4.338  13.035 -1.0499  1.0528 -0.7377
   52DOPE   H6S 6626   0.285   4.161  13.005  0.4728 -0.5891  1.9195
   52DOPE   C27 6627   0.130   4.195  13.153 -0.6305  0.3065 -0.2565
   52DOPE   H7R 6628   0.112   4.088  13.130 -0.3808  0.2837 -0.3467
   52DOPE   H7S 6629   0.033   4.247  13.173  0.1613  1.2146  1.5026
   52DOPE   C28 6630   0.210   4.196  13.285  0.4457 -0.5454  0.1086
   52DOPE   H8R 6631   0.245   4.300  13.305  2.0887 -1.4443  2.3149
   52DOPE   H8S 6632   0.298   4.130  13.267  1.1917  0.4753 -0.1323
   52DOPE   C29 6633   0.125   4.145  13.394 -0.0529 -0.0313 -0.1304
   52DOPE   H9R 6634   0.021   4.134  13.362  0.2378 -0.1782 -1.0523
   52DOPE  C210 6635   0.169   4.138  13.518  1.0675  0.2690  0.9402
   52DOPE  H10R 6636   0.094   4.108  13.592  0.5425 -3.1039 -0.7334
   52DOPE  C211 6637   0.303   4.161  13.573 -0.4520  0.2405  0.1962
   52DOPE  H11R 6638   0.374   4.213  13.505  1.1472  0.6906  2.1059
   52DOPE  H11S 6639   0.355   4.067  13.602 -1.3831 -0.3665 -0.0384
   52DOPE  C212 6640   0.289   4.247  13.705 -0.7702 -0.6030 -0.7970
   52DOPE  H12R 6641   0.250   4.349  13.684  1.1166  0.4337  0.4918
   52DOPE  H12S 6642   0.392   4.262  13.742 -0.9503 -0.1063 -0.5012
   52DOPE  C213 6643   0.215   4.172  13.816 -0.4438  0.4735  0.5313
   52DOPE  H13R 6644   0.247   4.065  13.816  1.4819  1.0001 -1.0506
   52DOPE  H13S 6645   0.114   4.186  13.774 -0.7674  1.3136  1.5530
   52DOPE  C214 6646   0.231   4.226  13.957 -0.3897  0.3239  0.9798
   52DOPE  H14R 6647   0.238   4.337  13.954  0.6808  0.2699 -1.8208
   52DOPE  H14S 6648   0.314   4.173  14.007 -2.2817 -2.4741  1.3833
   52DOPE  C215 6649   0.108   4.185  14.046  0.0547  0.5133  0.2777
   52DOPE  H15R 6650   0.093   4.075  14.043 -2.0936  0.7748 -0.4036
   52DOPE  H15S 6651   0.011   4.223  14.007  0.7734  1.7056 -0.4023
   52DOPE  C216 6652   0.129   4.246  14.186 -0.2272 -0.0789 -0.0130
   52DOPE  H16R 6653   0.173   4.348  14.181 -0.6302  0.0484 -1.3750
   52DOPE  H16S 6654   0.207   4.189  14.241  1.0337  0.3460 -1.2883
   52DOPE  C217 6655   0.005   4.234  14.285  0.6864  0.0698  0.1540
   52DOPE  H17R 6656  -0.073   4.311  14.266 -0.7450 -1.2138  0.6186
   52DOPE  H17S 6657   0.036   4.245  14.391  2.6172  1.2983 -0.4926
   52DOPE  C218 6658  -0.064   4.103  14.262  0.0104  0.2438 -0.2031
   52DOPE  H18R 6659  -0.142   4.093  14.341  0.7471 -1.1218  0.3829
   52DOPE  H18S 6660  -0.122   4.108  14.168 -0.2509  0.9810 -0.0129
   52DOPE  H18T 6661   0.002   4.014  14.263 -2.2604 -1.5324  1.0974
   52DOPE   C33 6662   0.481   4.745  12.603  0.2757 -0.5833 -0.0831
   52DOPE   H3X 6663   0.398   4.788  12.543  1.7756  0.1937 -1.6926
   52DOPE   H3Y 6664   0.575   4.791  12.568  1.5798 -2.2897  1.0013
   52DOPE   C34 6665   0.470   4.788  12.755  0.3986  0.2021  0.7741
   52DOPE   H4X 6666   0.455   4.898  12.749  1.5891  0.3799  0.7243
   52DOPE   H4Y 6667   0.388   4.737  12.809  0.5347  1.5680  2.3521
   52DOPE   C35 6668   0.593   4.753  12.838 -0.1077  0.5997 -0.6183
   52DOPE   H5X 6669   0.679   4.786  12.775 -0.5412  0.3908 -1.3302
   52DOPE   H5Y 6670   0.603   4.643  12.852  0.9081  1.0683  3.7977
   52DOPE   C36 6671   0.591   4.834  12.972  1.0765  0.1774 -0.3150
   52DOPE   H6X 6672   0.575   4.940  12.942 -1.7890 -0.2228 -0.5246
   52DOPE   H6Y 6673   0.693   4.838  13.015  0.6710  1.6991  0.5961
   52DOPE   C37 6674   0.487   4.778  13.070  0.0217 -0.4856  0.2020
   52DOPE   H7X 6675   0.439   4.862  13.124 -1.4298  0.6379 -2.6127
   52DOPE   H7Y 6676   0.405   4.731  13.012 -1.1930 -0.4642  1.8563
   52DOPE   C38 6677   0.557   4.677  13.172 -0.5462  0.5715  0.4099
   52DOPE   H8X 6678   0.618   4.739  13.240 -0.5147  0.9124  0.0765
   52DOPE   H8Y 6679   0.628   4.624  13.105  1.9858  3.7220  0.3585
   52DOPE   C39 6680   0.460   4.577  13.244  0.2888 -0.8793  0.5655
   52DOPE   H9X 6681   0.380   4.535  13.181 -1.6636 -0.4323  2.6074
   52DOPE  C310 6682   0.460   4.529  13.369 -0.1598 -0.9941 -0.4106
   52DOPE  H10X 6683   0.377   4.463  13.395 -0.6223  0.0269  0.7981
   52DOPE  C311 6684   0.564   4.578  13.479  0.3325 -0.4818  0.6335
   52DOPE  H11X 6685   0.672   4.570  13.453  0.4654  1.6284  0.3106
   52DOPE  H11Y 6686   0.552   4.688  13.494  0.4233 -0.2673 -0.7022
   52DOPE  C312 6687   0.543   4.522  13.619 -0.8047 -1.3220 -0.0684
   52DOPE  H12X 6688   0.548   4.411  13.618 -0.0244 -1.3427  1.8286
   52DOPE  H12Y 6689   0.443   4.555  13.656  0.1265  0.4532  0.9524
   52DOPE  C313 6690   0.661   4.553  13.717  0.3574  0.0902 -0.2992
   52DOPE  H13X 6691   0.758   4.512  13.683  0.7594  0.7855 -0.0077
   52DOPE  H13Y 6692   0.675   4.663  13.706 -2.8416  0.5084 -1.3007
   52DOPE  C314 6693   0.638   4.519  13.865  0.0511  0.4041 -0.5908
   52DOPE  H14X 6694   0.714   4.544  13.942 -0.9267  1.3330  0.1098
   52DOPE  H14Y 6695   0.649   4.409  13.876  1.2995  0.6657  1.4011
   52DOPE  C315 6696   0.499   4.555  13.916  0.6768  0.2024  0.8592
   52DOPE  H15X 6697   0.413   4.511  13.861  1.0180  0.0938  0.4091
   52DOPE  H15Y 6698   0.492   4.666  13.915 -0.2534  0.1736  1.8612
   52DOPE  C316 6699   0.477   4.528  14.069  0.6408  0.5564 -0.4525
   52DOPE  H16X 6700   0.518   4.425  14.080 -1.6152 -0.4214 -0.7938
   52DOPE  H16Y 6701   0.375   4.535  14.111  0.5740  1.9798 -0.7853
   52DOPE  C317 6702   0.559   4.616  14.155 -0.1966 -0.3862 -0.5716
   52DOPE  H17X 6703   0.668   4.608  14.137 -0.1442 -0.4496 -0.2267
   52DOPE  H17Y 6704   0.532   4.723  14.140  0.3837  0.0546  1.2994
   52DOPE  C318 6705   0.547   4.574  14.299  0.1569  0.6194  0.5234
   52DOPE  H18X 6706   0.623   4.624  14.363  1.0830  1.1644 -0.9467
   52DOPE  H18Y 6707   0.443   4.595  14.333 -1.0797 -1.2818 -1.7179
   52DOPE  H18Z 6708   0.561   4.464  14.313  1.7946  0.3899 -2.2758
   53DOPE     N 6709   5.465   0.228  11.875  0.2239  0.2909 -0.4409
   53DOPE   HN1 6710   5.513   0.318  11.856  2.9835 -0.1753  3.2056
   53DOPE   HN2 6711   5.362   0.244  11.876 -0.1102 -1.3657  2.0421
   53DOPE   HN3 6712   5.497   0.205  11.972 -0.5339 -0.1943 -0.3000
   53DOPE   C12 6713   5.492   0.106  11.788  0.0555 -0.5813 -0.3239
   53DOPE  H12A 6714   5.600   0.091  11.770  0.0711 -0.3645 -0.4160
   53DOPE  H12B 6715   5.455   0.127  11.685  1.6861 -0.3879 -0.8930
   53DOPE   C11 6716   5.442  -0.024  11.850  0.2383  0.3403  0.4066
   53DOPE  H11A 6717   5.504  -0.031  11.941  1.7350 -1.5095 -0.6863
   53DOPE  H11B 6718   5.469  -0.112  11.788 -0.7817  0.9188 -0.9316
   53DOPE     P 6719   5.225  -0.136  11.936  0.2300 -0.2522 -0.3929
   53DOPE   O13 6720   5.318  -0.241  11.973 -0.7880  0.3696 -0.2561
   53DOPE   O14 6721   5.118  -0.166  11.846  0.0174  0.0235 -0.0066
   53DOPE   O11 6722   5.175  -0.066  12.071  0.1498  0.0679  0.5537
   53DOPE   O12 6723   5.303  -0.018  11.870  0.8295 -0.0686 -0.1214
   53DOPE    C1 6724   5.085   0.043  12.060  0.1620  0.3457  0.4822
   53DOPE    HA 6725   4.982   0.007  12.082 -0.0235  1.3911  1.4116
   53DOPE    HB 6726   5.087   0.096  11.962 -1.0616 -1.4154 -0.5540
   53DOPE    C2 6727   5.100   0.153  12.169 -0.0602  0.5293 -0.1495
   53DOPE    HS 6728   5.199   0.202  12.156  0.7439 -0.5400  1.5508
   53DOPE   O21 6729   5.085   0.090  12.294 -0.2060  0.3312 -0.2033
   53DOPE   C21 6730   5.145   0.155  12.393  0.1486 -0.1443  0.6409
   53DOPE   O22 6731   5.212   0.258  12.384 -0.3012 -0.4268 -0.1105
   53DOPE   C22 6732   5.119   0.074  12.516 -0.2503 -0.1805 -0.6116
   53DOPE   H2R 6733   5.187  -0.014  12.509  1.3066  1.1131 -3.0410
   53DOPE   H2S 6734   5.017   0.031  12.525 -0.2652  0.1125  0.9419
   53DOPE    C3 6735   4.989   0.262  12.148 -0.0372  0.0514 -0.3286
   53DOPE    HX 6736   4.901   0.196  12.161  0.4372 -0.8142 -1.4229
   53DOPE    HY 6737   4.999   0.294  12.042  0.7373 -1.9031 -0.8932
   53DOPE   O31 6738   4.991   0.356  12.251  0.4339 -0.4619 -0.3961
   53DOPE   C31 6739   5.086   0.443  12.232  0.0744  0.3105  0.0602
   53DOPE   O32 6740   5.177   0.446  12.149  0.7023 -0.2302 -0.4550
   53DOPE   C32 6741   5.078   0.541  12.340 -0.0968 -0.0135 -0.1240
   53DOPE   H2X 6742   5.185   0.564  12.360  0.6032 -2.1717 -1.1520
   53DOPE   H2Y 6743   5.033   0.632  12.294  1.0278 -0.2902 -1.8585
   53DOPE   C23 6744   5.144   0.147  12.648 -0.3732  0.4920 -0.1736
   53DOPE   H3R 6745   5.117   0.090  12.740  0.7312 -0.4065 -0.3829
   53DOPE   H3S 6746   5.079   0.237  12.653  0.0700  0.8911 -1.3085
   53DOPE   C24 6747   5.287   0.187  12.678 -0.9375 -0.1863  0.7566
   53DOPE   H4R 6748   5.327   0.253  12.597 -1.9895  1.3065  1.3981
   53DOPE   H4S 6749   5.358   0.102  12.683 -0.5969  0.0792  0.5400
   53DOPE   C25 6750   5.306   0.274  12.804  0.0161 -0.0711 -0.3702
   53DOPE   H5R 6751   5.211   0.331  12.813  1.2294  1.7981  2.0019
   53DOPE   H5S 6752   5.394   0.341  12.787 -0.4048  0.9866  1.3083
   53DOPE   C26 6753   5.318   0.189  12.936  0.7753 -0.1681  0.7685
   53DOPE   H6R 6754   5.378   0.096  12.924  1.0548  0.2039 -1.0115
   53DOPE   H6S 6755   5.215   0.153  12.956  0.1901  0.7233 -0.5132
   53DOPE   C27 6756   5.355   0.281  13.054  0.3798  0.5354 -0.2093
   53DOPE   H7R 6757   5.282   0.365  13.052  0.7726  0.8921  0.2062
   53DOPE   H7S 6758   5.453   0.327  13.032 -0.4929  2.4155 -0.3232
   53DOPE   C28 6759   5.375   0.202  13.189  0.8431 -0.2673 -0.2338
   53DOPE   H8R 6760   5.468   0.143  13.174  0.1419 -1.1312 -1.3853
   53DOPE   H8S 6761   5.301   0.122  13.210 -0.4537  1.0000  0.1720
   53DOPE   C29 6762   5.385   0.299  13.304 -0.6834 -0.8505 -0.0243
   53DOPE   H9R 6763   5.340   0.397  13.282 -1.1134 -0.6191  1.7827
   53DOPE  C210 6764   5.433   0.275  13.428  0.8326 -0.2908 -0.2990
   53DOPE  H10R 6765   5.431   0.349  13.510  2.0717  0.5079 -0.9591
   53DOPE  C211 6766   5.496   0.152  13.478  0.3927 -0.3004 -0.5490
   53DOPE  H11R 6767   5.557   0.105  13.399  0.4927 -2.1193  0.5446
   53DOPE  H11S 6768   5.419   0.076  13.503 -0.4059  1.1302  1.7307
   53DOPE  C212 6769   5.569   0.168  13.612 -0.5181  0.2260  0.3019
   53DOPE  H12R 6770   5.639   0.254  13.600  0.7688 -0.7910  0.2197
   53DOPE  H12S 6771   5.632   0.077  13.625 -0.8035 -0.0096  0.0327
   53DOPE  C213 6772   5.474   0.192  13.724 -0.2872 -0.1980  0.2257
   53DOPE  H13R 6773   5.399   0.112  13.739 -0.2704  0.0629  1.9159
   53DOPE  H13S 6774   5.408   0.278  13.698 -1.2922 -1.9785 -3.9760
   53DOPE  C214 6775   5.542   0.231  13.858  0.4662 -0.5374 -0.2301
   53DOPE  H14R 6776   5.612   0.316  13.846 -0.2246  0.1378  0.4689
   53DOPE  H14S 6777   5.604   0.143  13.886 -0.3423 -0.3557  2.3372
   53DOPE  C215 6778   5.444   0.252  13.981 -0.7569 -0.1762 -0.0469
   53DOPE  H15R 6779   5.383   0.160  13.990  1.1468 -1.6503 -1.3821
   53DOPE  H15S 6780   5.378   0.340  13.964 -1.1031 -0.8507 -2.5132
   53DOPE  C216 6781   5.521   0.280  14.112  0.1194  1.1632 -0.2461
   53DOPE  H16R 6782   5.578   0.376  14.112  0.9565  0.6772 -0.7354
   53DOPE  H16S 6783   5.591   0.195  14.129 -1.3523 -0.0660 -0.1661
   53DOPE  C217 6784   5.428   0.276  14.240 -0.2127  0.2875  0.0900
   53DOPE  H17R 6785   5.363   0.186  14.243  0.7933 -0.4290  1.9756
   53DOPE  H17S 6786   5.364   0.367  14.228 -0.2026  0.1365 -1.2335
   53DOPE  C218 6787   5.490   0.288  14.377 -0.2487 -0.1446  0.8266
   53DOPE  H18R 6788   5.565   0.206  14.384 -0.5436 -0.3303  2.0947
   53DOPE  H18S 6789   5.415   0.285  14.458 -1.7869 -0.4617 -0.5571
   53DOPE  H18T 6790   5.541   0.387  14.381 -0.9567  0.3134 -0.6405
   53DOPE   C33 6791   5.001   0.507  12.468 -0.3852  0.2948 -0.1000
   53DOPE   H3X 6792   5.036   0.419  12.527 -0.7879  0.8060  0.9252
   53DOPE   H3Y 6793   4.893   0.484  12.455 -0.4820  0.8258 -0.2497
   53DOPE   C34 6794   5.001   0.621  12.568 -0.3656 -0.4769  0.3789
   53DOPE   H4X 6795   5.109   0.645  12.580 -0.0241 -1.2991 -0.8259
   53DOPE   H4Y 6796   4.949   0.706  12.520  0.2799  0.0934  0.6763
   53DOPE   C35 6797   4.936   0.594  12.701 -0.3483  0.1544 -0.0181
   53DOPE   H5X 6798   5.009   0.541  12.766 -0.8394  1.6451  1.8159
   53DOPE   H5Y 6799   4.856   0.518  12.689  1.9770 -2.3047 -1.1812
   53DOPE   C36 6800   4.872   0.725  12.757  0.0750 -0.3971  0.6338
   53DOPE   H6X 6801   4.816   0.774  12.674  1.2212  1.8187  1.0964
   53DOPE   H6Y 6802   4.939   0.804  12.796  1.7165 -0.7549 -1.2669
   53DOPE   C37 6803   4.768   0.695  12.868 -0.3813  0.7366  0.2717
   53DOPE   H7X 6804   4.702   0.784  12.879 -1.0322  0.0355  2.9264
   53DOPE   H7Y 6805   4.710   0.607  12.834  0.8657 -0.3131  0.7882
   53DOPE   C38 6806   4.842   0.659  12.997 -0.4399 -0.1830  0.3534
   53DOPE   H8X 6807   4.909   0.739  13.035 -0.3561  0.6617 -1.4517
   53DOPE   H8Y 6808   4.904   0.570  12.974  0.2570  0.5647 -0.7792
   53DOPE   C39 6809   4.730   0.604  13.082  1.4808  0.1514 -0.3547
   53DOPE   H9X 6810   4.677   0.527  13.025  2.3638 -2.1340  1.7802
   53DOPE  C310 6811   4.689   0.628  13.207  0.4397 -0.2678 -0.0804
   53DOPE  H10X 6812   4.596   0.587  13.250 -0.6140  3.5043  1.6707
   53DOPE  C311 6813   4.765   0.720  13.298 -0.3085  1.3669  0.2116
   53DOPE  H11X 6814   4.868   0.728  13.258 -1.0708  3.8184 -1.4798
   53DOPE  H11Y 6815   4.719   0.821  13.297 -0.6025  1.3838  3.7615
   53DOPE  C312 6816   4.750   0.663  13.436 -0.2086 -0.2943  0.0715
   53DOPE  H12X 6817   4.791   0.560  13.433  0.4130 -0.0490 -2.1515
   53DOPE  H12Y 6818   4.646   0.640  13.466 -0.8201 -1.0576 -2.3743
   53DOPE  C313 6819   4.828   0.750  13.536  0.3532  0.3921 -0.4035
   53DOPE  H13X 6820   4.929   0.769  13.495  0.5162  1.5476  0.4772
   53DOPE  H13Y 6821   4.785   0.852  13.539  1.0731  0.6742  2.0587
   53DOPE  C314 6822   4.853   0.679  13.670  0.5630  0.7106  0.7044
   53DOPE  H14X 6823   4.937   0.732  13.720  1.3860 -0.9813  1.1814
   53DOPE  H14Y 6824   4.891   0.580  13.637  1.0047  1.9193 -2.8053
   53DOPE  C315 6825   4.728   0.665  13.756  0.5933 -0.0657  0.1931
   53DOPE  H15X 6826   4.646   0.601  13.716  1.4453 -0.6680 -0.6477
   53DOPE  H15Y 6827   4.682   0.765  13.769 -0.0026 -0.0623 -1.5876
   53DOPE  C316 6828   4.762   0.595  13.893  0.3365  0.4977 -0.2758
   53DOPE  H16X 6829   4.780   0.490  13.862  1.8986  0.9546 -0.9888
   53DOPE  H16Y 6830   4.673   0.599  13.959  1.3839 -0.4503  1.2533
   53DOPE  C317 6831   4.887   0.664  13.962  0.5090 -0.1777  0.0222
   53DOPE  H17X 6832   4.984   0.635  13.914 -0.6134 -1.0711 -1.8334
   53DOPE  H17Y 6833   4.879   0.772  13.937  1.3653  0.2590  1.5466
   53DOPE  C318 6834   4.895   0.657  14.116  0.1968  0.3757  0.2976
   53DOPE  H18X 6835   4.984   0.717  14.145  0.0002  1.5266 -1.3517
   53DOPE  H18Y 6836   4.810   0.708  14.166 -0.8020 -0.7501 -0.1748
   53DOPE  H18Z 6837   4.900   0.550  14.146  2.0188  0.2735 -0.2717
   54DOPE     N 6838   1.126   2.913  12.296 -0.6243  0.2204  0.3535
   54DOPE   HN1 6839   1.173   2.972  12.368 -0.3433 -1.8534  1.9624
   54DOPE   HN2 6840   1.194   2.860  12.239 -1.3301 -0.3308  0.0016
   54DOPE   HN3 6841   1.075   2.987  12.243 -0.7045 -0.6696 -0.8573
   54DOPE   C12 6842   1.035   2.811  12.362  0.0652 -0.8182  0.1025
   54DOPE  H12A 6843   1.098   2.722  12.382 -0.5682 -1.0791  0.9553
   54DOPE  H12B 6844   0.962   2.779  12.284  2.1319  0.3631 -2.4584
   54DOPE   C11 6845   0.954   2.870  12.476 -0.3017  0.4541 -0.2640
   54DOPE  H11A 6846   1.032   2.891  12.552  0.2331  1.1938 -0.9973
   54DOPE  H11B 6847   0.884   2.793  12.515 -0.3093  0.7700  0.3439
   54DOPE     P 6848   0.735   3.005  12.432 -0.1840  0.0280 -0.2371
   54DOPE   O13 6849   0.693   2.907  12.334 -0.1131 -0.3231 -0.3931
   54DOPE   O14 6850   0.708   3.149  12.406 -0.1640 -0.1810  0.7388
   54DOPE   O11 6851   0.709   2.957  12.578 -0.2581  0.0897  0.2927
   54DOPE   O12 6852   0.894   2.990  12.443  0.3864  0.3801  0.1526
   54DOPE    C1 6853   0.748   3.031  12.691 -0.9973 -0.4174  0.5102
   54DOPE    HA 6854   0.704   3.133  12.697 -3.4347 -1.4178  0.8393
   54DOPE    HB 6855   0.858   3.045  12.685 -0.9271 -0.4380  1.5677
   54DOPE    C2 6856   0.721   2.954  12.820 -0.2703 -0.0290 -0.0767
   54DOPE    HS 6857   0.612   2.959  12.843 -0.6493  2.0443 -1.9712
   54DOPE   O21 6858   0.793   3.003  12.932 -0.0913 -0.2634 -0.7520
   54DOPE   C21 6859   0.746   3.120  12.980 -1.1214 -0.3955  0.1996
   54DOPE   O22 6860   0.658   3.187  12.932  0.5099  0.0098  0.1690
   54DOPE   C22 6861   0.821   3.169  13.103  0.5604 -0.3377  0.4295
   54DOPE   H2R 6862   0.843   3.277  13.087 -2.2666  0.0440 -1.5723
   54DOPE   H2S 6863   0.915   3.112  13.116 -0.4226 -1.9642  0.5956
   54DOPE    C3 6864   0.747   2.803  12.800 -0.5494 -0.5492  0.0204
   54DOPE    HX 6865   0.857   2.799  12.786 -0.0765  1.1916  2.5172
   54DOPE    HY 6866   0.705   2.762  12.706 -0.9989 -1.0222  0.4213
   54DOPE   O31 6867   0.694   2.733  12.918 -0.0453 -0.6891 -0.0559
   54DOPE   C31 6868   0.740   2.618  12.921  0.4837  0.2805 -0.1498
   54DOPE   O32 6869   0.806   2.560  12.833  0.2140  0.0794  0.5141
   54DOPE   C32 6870   0.689   2.560  13.056  0.4397  0.8381  0.0936
   54DOPE   H2X 6871   0.732   2.633  13.128  0.4278  1.7935 -0.8373
   54DOPE   H2Y 6872   0.579   2.559  13.068  0.4154  1.6057 -0.0103
   54DOPE   C23 6873   0.711   3.176  13.220  0.2505 -0.2583  0.1896
   54DOPE   H3R 6874   0.633   3.098  13.209  0.1891  0.0068 -1.7278
   54DOPE   H3S 6875   0.652   3.269  13.212  0.2546 -0.2231  0.5545
   54DOPE   C24 6876   0.769   3.181  13.369 -0.2597 -0.1727  0.2519
   54DOPE   H4R 6877   0.801   3.081  13.405  0.8341  0.0159 -0.1664
   54DOPE   H4S 6878   0.683   3.200  13.437 -0.9174 -1.1294 -0.2847
   54DOPE   C25 6879   0.877   3.284  13.394 -0.6107  0.5578  0.5003
   54DOPE   H5R 6880   0.853   3.381  13.345 -0.6883  0.0798 -0.4144
   54DOPE   H5S 6881   0.965   3.246  13.338  0.5298 -0.2392  2.6904
   54DOPE   C26 6882   0.907   3.302  13.545  0.0364 -0.1393 -0.2956
   54DOPE   H6R 6883   0.825   3.249  13.598  0.2163 -0.0118  0.1207
   54DOPE   H6S 6884   0.894   3.408  13.575 -2.0781  0.1600 -2.0395
   54DOPE   C27 6885   1.039   3.245  13.606  0.2826  0.6792  0.2327
   54DOPE   H7R 6886   1.130   3.261  13.545 -0.3379 -0.4159 -1.0452
   54DOPE   H7S 6887   1.036   3.134  13.611 -0.8297  0.6267 -0.9385
   54DOPE   C28 6888   1.059   3.301  13.748  0.2202 -0.4240  0.3229
   54DOPE   H8R 6889   0.975   3.260  13.809 -1.4577 -0.6220 -1.9561
   54DOPE   H8S 6890   1.041   3.410  13.737  2.9146 -0.0266 -0.7480
   54DOPE   C29 6891   1.201   3.271  13.795  0.6692  0.0049 -0.1301
   54DOPE   H9R 6892   1.276   3.345  13.765  0.0714  0.3682 -0.7356
   54DOPE  C210 6893   1.227   3.169  13.879 -0.3444 -0.3355 -0.0357
   54DOPE  H10R 6894   1.334   3.156  13.903  0.4330  1.5207 -2.1262
   54DOPE  C211 6895   1.137   3.061  13.928  0.0159 -0.2461  0.2887
   54DOPE  H11R 6896   1.164   2.965  13.879 -1.4249 -1.0270  0.9465
   54DOPE  H11S 6897   1.034   3.092  13.899  0.4047 -0.6476 -1.6983
   54DOPE  C212 6898   1.145   3.050  14.083 -0.4191  0.2245 -0.9361
   54DOPE  H12R 6899   1.115   3.146  14.131  0.0185  0.2186 -0.6410
   54DOPE  H12S 6900   1.239   3.019  14.134 -1.0529  1.1020  0.8256
   54DOPE  C213 6901   1.025   2.965  14.136  0.5174  0.3026 -0.1111
   54DOPE  H13R 6902   1.008   2.865  14.092 -1.2329 -1.1031  3.3759
   54DOPE  H13S 6903   0.925   3.012  14.122  0.0322 -0.7561 -0.2579
   54DOPE  C214 6904   1.035   2.931  14.289  0.2374 -0.3534 -0.6640
   54DOPE  H14R 6905   1.027   3.025  14.348  0.0240 -0.9829  0.3253
   54DOPE  H14S 6906   1.134   2.882  14.300 -0.2693 -0.9189  2.0707
   54DOPE  C215 6907   0.916   2.851  14.353  0.4699  0.2854  0.3937
   54DOPE  H15R 6908   0.883   2.778  14.276  1.7879 -0.8091  0.8363
   54DOPE  H15S 6909   0.831   2.922  14.366  0.6023 -0.0208  3.8754
   54DOPE  C216 6910   0.941   2.796  14.492 -0.0072  0.3814  0.6194
   54DOPE  H16R 6911   0.952   2.879  14.565 -1.9461  0.8597  0.4256
   54DOPE  H16S 6912   1.030   2.731  14.485 -1.8847 -2.2151 -1.5100
   54DOPE  C217 6913   0.831   2.693  14.529 -0.0737 -0.5648 -0.2419
   54DOPE  H17R 6914   0.728   2.734  14.541 -0.4116 -1.3892 -0.2797
   54DOPE  H17S 6915   0.860   2.660  14.631  4.6486  1.8213 -0.5596
   54DOPE  C218 6916   0.828   2.566  14.447  0.0509  0.0490 -0.4973
   54DOPE  H18R 6917   0.930   2.527  14.428 -0.1471  0.1709 -1.8728
   54DOPE  H18S 6918   0.796   2.588  14.343  2.5191 -3.0879 -2.1163
   54DOPE  H18T 6919   0.765   2.487  14.493  0.1460 -0.0093 -0.4658
   54DOPE   C33 6920   0.760   2.425  13.083  0.6498  0.6297 -0.3283
   54DOPE   H3X 6921   0.870   2.435  13.072  0.7363 -0.2859 -0.3516
   54DOPE   H3Y 6922   0.731   2.346  13.011  0.6441  0.0534  0.3000
   54DOPE   C34 6923   0.729   2.368  13.225 -0.2334 -0.2588 -0.2208
   54DOPE   H4X 6924   0.621   2.379  13.247 -0.5941 -0.8361 -1.5980
   54DOPE   H4Y 6925   0.762   2.263  13.238  1.9551  0.3763 -0.1342
   54DOPE   C35 6926   0.789   2.461  13.334  0.2485 -0.2947  0.5947
   54DOPE   H5X 6927   0.752   2.566  13.326  1.1300 -0.0053  0.1280
   54DOPE   H5Y 6928   0.900   2.449  13.337 -0.0050 -3.2429  1.3958
   54DOPE   C36 6929   0.755   2.413  13.471 -0.1716  0.5264 -0.2610
   54DOPE   H6X 6930   0.835   2.427  13.548  0.2334 -1.7708 -0.1846
   54DOPE   H6Y 6931   0.750   2.303  13.482  1.0206  0.4945  0.1394
   54DOPE   C37 6932   0.614   2.462  13.515  0.5376  1.1295 -0.3886
   54DOPE   H7X 6933   0.605   2.571  13.495  2.2400  0.9913 -2.1012
   54DOPE   H7Y 6934   0.531   2.424  13.451  0.6562  1.6723 -0.8716
   54DOPE   C38 6935   0.592   2.440  13.667 -0.7101  0.0257 -0.2660
   54DOPE   H8X 6936   0.597   2.333  13.695  0.8529  0.2477  0.4096
   54DOPE   H8Y 6937   0.490   2.471  13.698 -0.8673  1.4177 -2.0391
   54DOPE   C39 6938   0.683   2.530  13.742  0.2969  0.0707  0.2453
   54DOPE   H9X 6939   0.721   2.620  13.692 -1.0318  0.2935 -0.4145
   54DOPE  C310 6940   0.730   2.507  13.861 -0.4516  0.6554 -0.1477
   54DOPE  H10X 6941   0.797   2.581  13.905  1.3394  0.0050 -1.6544
   54DOPE  C311 6942   0.691   2.380  13.949  0.2119 -0.1615 -0.1810
   54DOPE  H11X 6943   0.621   2.308  13.900  2.6774 -0.1646 -4.2274
   54DOPE  H11Y 6944   0.788   2.330  13.969  1.2506  1.8756  0.0628
   54DOPE  C312 6945   0.634   2.414  14.095  0.5377  0.3863 -0.3262
   54DOPE  H12X 6946   0.528   2.443  14.077  0.6591  0.4932 -0.9087
   54DOPE  H12Y 6947   0.692   2.488  14.153  1.4300 -0.9578  0.5492
   54DOPE  C313 6948   0.619   2.279  14.174 -0.2355  0.2143 -1.1395
   54DOPE  H13X 6949   0.540   2.216  14.127 -1.1871  1.4561 -1.2710
   54DOPE  H13Y 6950   0.718   2.231  14.175  0.1839  1.0683 -0.0301
   54DOPE  C314 6951   0.577   2.303  14.319 -0.0413 -0.1353  0.0638
   54DOPE  H14X 6952   0.509   2.391  14.322 -0.2809 -0.3200  0.1201
   54DOPE  H14Y 6953   0.671   2.336  14.368  0.7724 -1.2150 -0.7108
   54DOPE  C315 6954   0.527   2.170  14.381  0.5403 -0.5159 -0.0952
   54DOPE  H15X 6955   0.434   2.135  14.332  0.3312  0.5875 -0.4974
   54DOPE  H15Y 6956   0.493   2.191  14.485 -0.9996 -0.1781 -0.6593
   54DOPE  C316 6957   0.630   2.062  14.373  0.1815 -0.0095 -0.8169
   54DOPE  H16X 6958   0.725   2.091  14.424  0.1773  1.5337 -1.6159
   54DOPE  H16Y 6959   0.655   2.051  14.266 -0.5888 -1.4269 -0.8684
   54DOPE  C317 6960   0.593   1.918  14.426  0.1212 -0.2315  0.3809
   54DOPE  H17X 6961   0.505   1.888  14.366  1.2834 -0.3706 -1.3307
   54DOPE  H17Y 6962   0.668   1.839  14.403  2.5322  1.5901  1.5548
   54DOPE  C318 6963   0.568   1.921  14.583 -0.4267  0.7927 -0.8867
   54DOPE  H18X 6964   0.504   2.007  14.610 -1.7423  0.0775 -1.6231
   54DOPE  H18Y 6965   0.516   1.828  14.615  0.4241  1.0204  1.3414
   54DOPE  H18Z 6966   0.667   1.924  14.634  0.5783 -0.2230 -2.6476
   55DOPE     N 6967   1.139   6.217  12.400  0.2211  0.3772  0.1699
   55DOPE   HN1 6968   1.216   6.233  12.333 -0.0122  2.7852  0.3872
   55DOPE   HN2 6969   1.073   6.298  12.403 -0.0376  0.2165 -0.7691
   55DOPE   HN3 6970   1.182   6.218  12.494  0.3353  0.1734  0.1208
   55DOPE   C12 6971   1.066   6.084  12.385 -0.1557 -0.0380  0.6340
   55DOPE  H12A 6972   1.012   6.084  12.288  0.1725 -1.6020  0.4210
   55DOPE  H12B 6973   0.988   6.075  12.464 -1.6339  2.2229 -0.4465
   55DOPE   C11 6974   1.169   5.971  12.389 -0.0801 -0.2566  0.4985
   55DOPE  H11A 6975   1.234   5.987  12.477  1.0626  0.5214 -0.4464
   55DOPE  H11B 6976   1.218   5.983  12.290 -0.8345  1.4116  0.2796
   55DOPE     P 6977   1.073   5.749  12.285 -0.0643 -0.2982  0.3096
   55DOPE   O13 6978   1.193   5.721  12.203  0.2348  0.0976  0.6992
   55DOPE   O14 6979   0.959   5.806  12.213  0.0059  0.1793 -0.5806
   55DOPE   O11 6980   1.031   5.613  12.355 -0.5970 -0.7576  0.2082
   55DOPE   O12 6981   1.114   5.845  12.408  0.0554  0.2433 -0.2667
   55DOPE    C1 6982   1.066   5.588  12.495 -0.3948  0.3889 -0.3237
   55DOPE    HA 6983   1.164   5.629  12.527 -0.5918  1.4828 -1.0855
   55DOPE    HB 6984   1.074   5.477  12.490 -0.5796  0.3606 -0.0154
   55DOPE    C2 6985   0.952   5.640  12.587  0.2629 -0.1218  0.2195
   55DOPE    HS 6986   0.967   5.750  12.580  2.0774 -0.4171 -1.9741
   55DOPE   O21 6987   0.979   5.573  12.713 -0.2839 -0.1411  0.3290
   55DOPE   C21 6988   0.970   5.649  12.815 -0.7849  0.4649 -0.6762
   55DOPE   O22 6989   0.926   5.759  12.834  0.1815  0.2330  0.2163
   55DOPE   C22 6990   1.022   5.569  12.942  0.2973 -0.3518  0.1262
   55DOPE   H2R 6991   1.126   5.535  12.925  0.1540 -0.3452 -0.8059
   55DOPE   H2S 6992   0.960   5.477  12.947  0.4997 -0.5271 -0.4720
   55DOPE    C3 6993   0.814   5.599  12.534  0.0935 -0.0999  0.2129
   55DOPE    HX 6994   0.804   5.488  12.525 -0.2336 -0.0406 -0.2243
   55DOPE    HY 6995   0.800   5.644  12.433  0.7392  3.9761  1.7623
   55DOPE   O31 6996   0.707   5.637  12.622  0.7441  0.1905  0.0458
   55DOPE   C31 6997   0.648   5.757  12.614  0.3373  0.1128 -0.8201
   55DOPE   O32 6998   0.668   5.838  12.526  0.0952  0.1946  0.0950
   55DOPE   C32 6999   0.541   5.770  12.721  0.0455 -0.2591  0.7429
   55DOPE   H2X 7000   0.517   5.878  12.733  1.4001  0.0660  0.7008
   55DOPE   H2Y 7001   0.446   5.722  12.691 -0.0589  0.3977 -0.0218
   55DOPE   C23 7002   1.004   5.644  13.079 -0.0306 -0.3061  0.1157
   55DOPE   H3R 7003   0.896   5.670  13.081  0.0749  0.1667 -0.2004
   55DOPE   H3S 7004   1.062   5.738  13.088 -1.8293  0.8342  0.3494
   55DOPE   C24 7005   1.030   5.557  13.200 -0.0054 -0.0608  0.4756
   55DOPE   H4R 7006   1.141   5.557  13.209  0.0918  0.7169 -0.5590
   55DOPE   H4S 7007   0.993   5.456  13.173 -0.3550 -0.5257  2.5718
   55DOPE   C25 7008   0.968   5.589  13.339  0.7950 -0.4042 -0.0017
   55DOPE   H5R 7009   0.857   5.593  13.340  0.7862 -0.4272 -0.4960
   55DOPE   H5S 7010   1.005   5.692  13.358 -0.2323 -0.1250  0.5458
   55DOPE   C26 7011   1.032   5.491  13.439  0.2556  0.1574  0.3277
   55DOPE   H6R 7012   1.141   5.490  13.419 -0.0616 -0.4042 -1.6023
   55DOPE   H6S 7013   0.998   5.386  13.421  1.3897 -0.6851  2.7057
   55DOPE   C27 7014   1.005   5.529  13.587 -0.3153 -0.8678  0.8726
   55DOPE   H7R 7015   1.032   5.636  13.595 -1.4881 -0.3050 -1.7275
   55DOPE   H7S 7016   1.079   5.473  13.648  0.2536 -1.6776 -0.5029
   55DOPE   C28 7017   0.857   5.522  13.633 -0.0732 -0.6406  0.5022
   55DOPE   H8R 7018   0.792   5.585  13.570  1.7441  0.8922  0.0475
   55DOPE   H8S 7019   0.865   5.576  13.730  3.3988 -0.0597  0.0272
   55DOPE   C29 7020   0.808   5.380  13.628  0.4239  0.2827 -0.4808
   55DOPE   H9R 7021   0.797   5.340  13.526  0.4859  1.2561 -0.8772
   55DOPE  C210 7022   0.761   5.309  13.734  0.5058 -0.1455  1.0638
   55DOPE  H10R 7023   0.726   5.208  13.711  2.1129 -0.7582  1.1535
   55DOPE  C211 7024   0.756   5.360  13.880 -0.0555  0.3763 -0.0187
   55DOPE  H11R 7025   0.771   5.469  13.891 -0.3836  0.2144  3.0461
   55DOPE  H11S 7026   0.830   5.309  13.947  0.5877 -0.5777 -1.4117
   55DOPE  C212 7027   0.612   5.338  13.945  0.5670 -1.2797  0.3511
   55DOPE  H12R 7028   0.592   5.229  13.943 -0.6070 -1.0737 -0.3419
   55DOPE  H12S 7029   0.539   5.385  13.875 -0.7785 -1.4351  1.6171
   55DOPE  C213 7030   0.588   5.388  14.088  0.1677  0.4152  0.3815
   55DOPE  H13R 7031   0.486   5.424  14.112 -0.2930 -0.3185 -0.4307
   55DOPE  H13S 7032   0.663   5.470  14.095 -0.4961  1.3052 -1.8429
   55DOPE  C214 7033   0.627   5.282  14.192  0.1105  0.3158  0.6252
   55DOPE  H14R 7034   0.733   5.260  14.170 -0.4833 -0.6427 -1.6522
   55DOPE  H14S 7035   0.576   5.187  14.164  1.7971 -0.8472  1.3383
   55DOPE  C215 7036   0.618   5.317  14.339 -0.2057  0.4870  0.0063
   55DOPE  H15R 7037   0.659   5.232  14.396 -0.3936  1.0150  0.9589
   55DOPE  H15S 7038   0.511   5.330  14.366 -0.8719  0.4357 -2.3713
   55DOPE  C216 7039   0.715   5.430  14.381  0.2482  0.4606  1.0089
   55DOPE  H16R 7040   0.665   5.521  14.341 -0.6484  0.3142  1.7717
   55DOPE  H16S 7041   0.810   5.425  14.324 -1.7809  1.7675 -2.8459
   55DOPE  C217 7042   0.730   5.451  14.536  0.3499 -0.5843 -0.0941
   55DOPE  H17R 7043   0.634   5.445  14.591  0.6663 -1.8456  0.3517
   55DOPE  H17S 7044   0.775   5.552  14.547  0.0970 -0.4252 -0.5034
   55DOPE  C218 7045   0.827   5.354  14.600  0.0975 -0.0844  0.0605
   55DOPE  H18R 7046   0.853   5.380  14.705 -2.7598  2.6348  0.2383
   55DOPE  H18S 7047   0.922   5.356  14.542  0.1510 -0.6629  0.1238
   55DOPE  H18T 7048   0.779   5.254  14.598 -1.3263  0.5726 -2.0579
   55DOPE   C33 7049   0.592   5.731  12.864 -0.3237 -0.0203 -0.2723
   55DOPE   H3X 7050   0.685   5.792  12.875 -0.9596  1.0858 -0.8272
   55DOPE   H3Y 7051   0.628   5.626  12.864  1.1501  0.4544 -0.4102
   55DOPE   C34 7052   0.499   5.746  12.983 -0.3997  0.4815  1.2267
   55DOPE   H4X 7053   0.462   5.848  13.007 -0.1594  0.6209  1.0067
   55DOPE   H4Y 7054   0.404   5.694  12.956 -0.2354  0.1434  1.2925
   55DOPE   C35 7055   0.550   5.690  13.112 -0.4398 -0.4205  0.6170
   55DOPE   H5X 7056   0.631   5.755  13.151 -2.0329  1.8628  0.3784
   55DOPE   H5Y 7057   0.581   5.587  13.085 -1.8536 -0.8166  0.3900
   55DOPE   C36 7058   0.432   5.697  13.213 -0.1505  0.2623 -0.0242
   55DOPE   H6X 7059   0.353   5.629  13.174  0.6404 -1.2659  0.9102
   55DOPE   H6Y 7060   0.394   5.801  13.212  0.5128  0.5301 -2.0201
   55DOPE   C37 7061   0.471   5.652  13.363  0.0852 -0.2239 -0.0234
   55DOPE   H7X 7062   0.519   5.552  13.363 -1.4762 -1.0620  2.6671
   55DOPE   H7Y 7063   0.555   5.718  13.391 -0.2756 -0.1077  0.8219
   55DOPE   C38 7064   0.368   5.658  13.469 -0.1374 -0.4053 -0.5334
   55DOPE   H8X 7065   0.313   5.752  13.444  1.5702  0.0687 -2.8043
   55DOPE   H8Y 7066   0.405   5.676  13.573 -2.3444 -1.0496  0.4237
   55DOPE   C39 7067   0.278   5.539  13.466 -0.2973  0.1147 -0.8933
   55DOPE   H9X 7068   0.206   5.537  13.383  0.3969  0.0080 -1.5073
   55DOPE  C310 7069   0.263   5.454  13.563 -0.1477  0.4510  0.5931
   55DOPE  H10X 7070   0.200   5.367  13.543  1.1711 -0.3691 -0.1217
   55DOPE  C311 7071   0.346   5.444  13.692  1.0405  0.3261  1.3968
   55DOPE  H11X 7072   0.362   5.341  13.732  1.0434 -0.2616 -0.0308
   55DOPE  H11Y 7073   0.448   5.484  13.670  1.2498 -0.3994  0.9871
   55DOPE  C312 7074   0.291   5.534  13.802 -0.2025 -0.3077 -0.4681
   55DOPE  H12X 7075   0.285   5.636  13.758 -0.8657 -1.4292 -3.1918
   55DOPE  H12Y 7076   0.361   5.532  13.888 -0.0829 -0.7142 -0.5725
   55DOPE  C313 7077   0.151   5.502  13.866 -0.1266 -0.2580 -0.0903
   55DOPE  H13X 7078   0.085   5.496  13.777 -0.0319  1.7387 -0.3543
   55DOPE  H13Y 7079   0.144   5.400  13.909 -1.0380 -0.2623 -0.2377
   55DOPE  C314 7080   0.098   5.596  13.976 -0.1712 -0.5427  0.0039
   55DOPE  H14X 7081  -0.006   5.573  14.005 -0.6547  1.0609 -0.3265
   55DOPE  H14Y 7082   0.096   5.698  13.931  0.8158 -0.1393  0.8344
   55DOPE  C315 7083   0.193   5.599  14.102 -0.1683  0.2736  0.2274
   55DOPE  H15X 7084   0.288   5.640  14.062  0.4387  0.0790  1.4253
   55DOPE  H15Y 7085   0.206   5.496  14.140  0.7781  0.4147  0.3161
   55DOPE  C316 7086   0.151   5.694  14.211 -0.6087  0.0996 -0.2645
   55DOPE  H16X 7087   0.133   5.799  14.181  4.3491  1.1782 -0.3595
   55DOPE  H16Y 7088   0.228   5.686  14.291  1.2098  0.0261 -1.9268
   55DOPE  C317 7089   0.031   5.653  14.280 -0.1190  0.2286 -0.6372
   55DOPE  H17X 7090  -0.055   5.660  14.211 -2.1063  0.8291  1.7629
   55DOPE  H17Y 7091   0.029   5.548  14.316 -1.6422  0.5085  0.1615
   55DOPE  C318 7092  -0.004   5.739  14.398  0.6554  0.0116  0.3702
   55DOPE  H18X 7093   0.047   5.703  14.490  5.3275 -0.0209 -1.9542
   55DOPE  H18Y 7094   0.033   5.842  14.379 -0.9586  0.5939  0.1992
   55DOPE  H18Z 7095  -0.112   5.734  14.424  0.2269  2.7237 -0.5179
   56DOPE     N 7096   0.105   0.099  11.989 -0.1855  0.2670 -0.1519
   56DOPE   HN1 7097   0.096   0.137  11.892  0.1809  0.4095 -0.1328
   56DOPE   HN2 7098   0.171   0.019  11.981 -0.5132  0.0892 -1.3381
   56DOPE   HN3 7099   0.010   0.075  12.024 -0.2078  0.8456  0.1932
   56DOPE   C12 7100   0.181   0.198  12.076 -0.0441 -0.3426  0.6342
   56DOPE  H12A 7101   0.117   0.234  12.159 -1.2471  0.6856 -0.6749
   56DOPE  H12B 7102   0.207   0.279  12.004  0.7949 -1.0952  0.0787
   56DOPE   C11 7103   0.310   0.139  12.137  0.5398  0.4556 -0.3390
   56DOPE  H11A 7104   0.298   0.059  12.212  3.8102  1.0985  1.0794
   56DOPE  H11B 7105   0.354   0.225  12.192  1.3117  0.0766 -0.3410
   56DOPE     P 7106   0.426  -0.036  11.976  0.3387 -0.5695  0.4679
   56DOPE   O13 7107   0.546  -0.032  11.893  0.1023 -0.3928 -0.1005
   56DOPE   O14 7108   0.296  -0.076  11.919 -0.5055 -1.1336  0.4403
   56DOPE   O11 7109   0.457  -0.110  12.106 -0.1926 -0.3520 -0.6866
   56DOPE   O12 7110   0.408   0.113  12.035  0.1844 -0.2466  0.4184
   56DOPE    C1 7111   0.592  -0.145  12.140  0.5520 -0.3312 -0.5500
   56DOPE    HA 7112   0.663  -0.064  12.112 -0.8622  0.6425 -1.4494
   56DOPE    HB 7113   0.625  -0.237  12.087 -0.7673 -0.2044 -1.6494
   56DOPE    C2 7114   0.616  -0.166  12.297  0.6695 -0.5503  0.5795
   56DOPE    HS 7115   0.725  -0.151  12.309  0.4321  2.2975 -0.0093
   56DOPE   O21 7116   0.560  -0.294  12.345  0.0002  1.1940 -0.1755
   56DOPE   C21 7117   0.640  -0.359  12.431 -0.5840 -0.0213  0.0273
   56DOPE   O22 7118   0.746  -0.311  12.472  0.5222  0.2524  0.1715
   56DOPE   C22 7119   0.566  -0.478  12.490 -0.0054  0.5437 -0.0572
   56DOPE   H2R 7120   0.514  -0.534  12.410 -1.9238  0.8235  0.9403
   56DOPE   H2S 7121   0.481  -0.424  12.538 -0.1438  0.4392 -0.1872
   56DOPE    C3 7122   0.547  -0.052  12.380  0.3824  0.8944  0.0550
   56DOPE    HX 7123   0.440  -0.072  12.363  0.3449  0.2144  1.0421
   56DOPE    HY 7124   0.583   0.043  12.333  0.7693  0.5742 -0.3140
   56DOPE   O31 7125   0.589  -0.052  12.516  0.0726  0.8367  0.3494
   56DOPE   C31 7126   0.714  -0.026  12.549 -0.1621 -0.1733  0.0846
   56DOPE   O32 7127   0.801   0.023  12.474 -0.0080 -0.3767  0.0843
   56DOPE   C32 7128   0.736  -0.066  12.697  0.3274 -0.5966  0.1289
   56DOPE   H2X 7129   0.713   0.018  12.767  0.0841 -2.0030  1.8157
   56DOPE   H2Y 7130   0.655  -0.140  12.714 -1.9479  1.5105 -1.0396
   56DOPE   C23 7131   0.641  -0.578  12.578 -0.1927  0.0075  0.1601
   56DOPE   H3R 7132   0.740  -0.609  12.537 -0.2480 -3.2748  2.1719
   56DOPE   H3S 7133   0.592  -0.678  12.584 -0.8125  0.2844 -0.1619
   56DOPE   C24 7134   0.663  -0.521  12.721 -0.1167  0.2837  0.3030
   56DOPE   H4R 7135   0.567  -0.479  12.757  1.1422  2.6726  1.1447
   56DOPE   H4S 7136   0.739  -0.442  12.702  1.1053 -0.9760 -0.2096
   56DOPE   C25 7137   0.732  -0.616  12.825 -0.3264  0.4298  0.2428
   56DOPE   H5R 7138   0.840  -0.594  12.840 -0.4735  0.9623  0.5911
   56DOPE   H5S 7139   0.717  -0.722  12.798 -2.0397  0.3027  1.5416
   56DOPE   C26 7140   0.672  -0.606  12.968 -0.2418 -0.2805 -0.7154
   56DOPE   H6R 7141   0.578  -0.665  12.981 -0.6679  0.7613  1.5947
   56DOPE   H6S 7142   0.639  -0.504  12.997 -1.9470 -1.2334  0.9166
   56DOPE   C27 7143   0.776  -0.643  13.074  0.3114  0.7826  0.2444
   56DOPE   H7R 7144   0.864  -0.576  13.079 -0.1429  1.3943  0.0890
   56DOPE   H7S 7145   0.828  -0.735  13.038  1.9169  1.5908  0.3926
   56DOPE   C28 7146   0.717  -0.655  13.216 -0.5675  0.0083  0.1215
   56DOPE   H8R 7147   0.620  -0.708  13.208 -0.3639 -0.1263 -1.8551
   56DOPE   H8S 7148   0.683  -0.553  13.247 -0.6084  0.4756 -1.4080
   56DOPE   C29 7149   0.813  -0.727  13.309  0.0097  1.1802 -1.0688
   56DOPE   H9R 7150   0.887  -0.781  13.249 -0.5740 -1.0386  0.0710
   56DOPE  C210 7151   0.801  -0.740  13.445  0.1059  0.0504  0.1060
   56DOPE  H10R 7152   0.891  -0.766  13.503 -0.5555 -0.1902  1.0446
   56DOPE  C211 7153   0.683  -0.665  13.511  0.1391 -0.6397  0.2619
   56DOPE  H11R 7154   0.589  -0.697  13.460 -0.0563  0.6585 -0.2455
   56DOPE  H11S 7155   0.696  -0.555  13.508  1.6976 -0.8194 -2.2642
   56DOPE  C212 7156   0.665  -0.701  13.661 -0.3758 -0.2425  0.3062
   56DOPE  H12R 7157   0.571  -0.646  13.685  0.1479  1.2900 -0.9475
   56DOPE  H12S 7158   0.751  -0.655  13.714 -0.1104 -0.6181  0.2067
   56DOPE  C213 7159   0.660  -0.849  13.694 -0.2952  0.7520  0.8447
   56DOPE  H13R 7160   0.766  -0.880  13.682 -0.5249  0.4912 -0.6873
   56DOPE  H13S 7161   0.594  -0.896  13.618  1.2162  0.4133 -0.3073
   56DOPE  C214 7162   0.609  -0.884  13.835 -0.0028 -0.1978  0.1009
   56DOPE  H14R 7163   0.604  -0.993  13.859  0.0723 -0.6448 -1.7941
   56DOPE  H14S 7164   0.503  -0.858  13.819  0.0550 -0.4023 -0.6342
   56DOPE  C215 7165   0.682  -0.811  13.945 -0.2475 -0.5951 -0.7793
   56DOPE  H15R 7166   0.669  -0.701  13.950 -0.1115 -0.6003 -0.2785
   56DOPE  H15S 7167   0.786  -0.847  13.936 -0.2020 -0.7239  0.2083
   56DOPE  C216 7168   0.609  -0.846  14.073 -0.5204 -0.0363  0.2372
   56DOPE  H16R 7169   0.601  -0.954  14.096  0.2561 -0.1927 -0.1936
   56DOPE  H16S 7170   0.506  -0.805  14.062 -0.7865 -0.8236 -0.2762
   56DOPE  C217 7171   0.657  -0.765  14.198 -0.6318 -0.7828 -0.7267
   56DOPE  H17R 7172   0.567  -0.750  14.260 -1.8861  1.0482 -2.8742
   56DOPE  H17S 7173   0.682  -0.663  14.162  1.3531 -1.4545 -1.3967
   56DOPE  C218 7174   0.778  -0.823  14.274  0.1773 -0.0600 -0.7382
   56DOPE  H18R 7175   0.817  -0.754  14.352 -0.7026 -0.2806 -0.0968
   56DOPE  H18S 7176   0.871  -0.838  14.215 -1.4528  1.6953 -4.0485
   56DOPE  H18T 7177   0.745  -0.913  14.330 -0.5968  1.4780  1.4114
   56DOPE   C33 7178   0.875  -0.126  12.735 -0.6564 -0.5017  0.3098
   56DOPE   H3X 7179   0.960  -0.057  12.718 -1.4351  0.5847  0.7437
   56DOPE   H3Y 7180   0.902  -0.204  12.661 -0.4237  0.6375 -0.8295
   56DOPE   C34 7181   0.876  -0.205  12.871 -0.0270 -0.2151  0.0728
   56DOPE   H4X 7182   0.776  -0.250  12.885  1.1424 -2.4619  1.7629
   56DOPE   H4Y 7183   0.949  -0.288  12.876  1.6725  1.1134 -1.3660
   56DOPE   C35 7184   0.905  -0.105  12.986  0.1810  1.1336 -0.4487
   56DOPE   H5X 7185   0.854  -0.013  12.951 -1.0957  1.4252  1.9523
   56DOPE   H5Y 7186   1.015  -0.100  13.004  0.3464 -2.1566  0.2281
   56DOPE   C36 7187   0.832  -0.139  13.115  0.5009  0.2775 -0.0946
   56DOPE   H6X 7188   0.721  -0.130  13.115  0.4206 -0.3591 -1.8618
   56DOPE   H6Y 7189   0.868  -0.052  13.175  2.4115  0.3199 -1.2476
   56DOPE   C37 7190   0.874  -0.265  13.193 -0.2720 -0.8873  0.7691
   56DOPE   H7X 7191   0.820  -0.348  13.143  1.0717 -1.5959  0.4386
   56DOPE   H7Y 7192   0.984  -0.272  13.174 -0.5269 -1.3607 -0.6661
   56DOPE   C38 7193   0.836  -0.263  13.340 -0.6190  0.0006 -0.8724
   56DOPE   H8X 7194   0.890  -0.354  13.372 -0.5500 -0.0153 -1.0397
   56DOPE   H8Y 7195   0.728  -0.277  13.366  0.1174 -1.6469  1.7151
   56DOPE   C39 7196   0.878  -0.140  13.426  0.4297  0.1037 -0.2565
   56DOPE   H9X 7197   0.873  -0.041  13.378  2.1053  0.7403  0.7781
   56DOPE  C310 7198   0.936  -0.158  13.549  0.6869  0.6682  0.4364
   56DOPE  H10X 7199   0.969  -0.067  13.602 -0.4646  1.7222 -0.6004
   56DOPE  C311 7200   0.961  -0.287  13.624 -0.1410  0.4791 -1.4129
   56DOPE  H11X 7201   0.953  -0.380  13.564  0.7693 -1.5814  1.4183
   56DOPE  H11Y 7202   1.067  -0.296  13.657 -0.1764  0.8679 -1.1819
   56DOPE  C312 7203   0.876  -0.287  13.742 -0.0741  0.2309  0.3540
   56DOPE  H12X 7204   0.769  -0.287  13.715 -0.0662 -0.8913  0.2769
   56DOPE  H12Y 7205   0.899  -0.195  13.801 -0.8799  1.1029 -0.6424
   56DOPE  C313 7206   0.912  -0.390  13.849  0.4954  0.0344  0.1664
   56DOPE  H13X 7207   0.918  -0.494  13.809  1.2002  0.5554 -1.1429
   56DOPE  H13Y 7208   1.012  -0.366  13.891  0.3421 -1.5802  1.5956
   56DOPE  C314 7209   0.813  -0.385  13.965 -0.2085 -0.0493 -0.2436
   56DOPE  H14X 7210   0.731  -0.459  13.960 -1.3811  1.1568  0.4596
   56DOPE  H14Y 7211   0.766  -0.284  13.961 -0.3635 -0.0515  1.0753
   56DOPE  C315 7212   0.874  -0.390  14.105  0.3001  0.6292 -0.1132
   56DOPE  H15X 7213   0.787  -0.381  14.174 -0.7417 -0.1035 -1.2827
   56DOPE  H15Y 7214   0.936  -0.299  14.118  1.3294  0.0197 -0.6387
   56DOPE  C316 7215   0.959  -0.513  14.144 -0.3028  0.3458 -0.5932
   56DOPE  H16X 7216   1.051  -0.520  14.081 -0.7263  1.1663 -1.3256
   56DOPE  H16Y 7217   0.888  -0.598  14.148 -3.4732  2.8659  2.1185
   56DOPE  C317 7218   1.016  -0.515  14.286  0.5727  0.8477 -0.7850
   56DOPE  H17X 7219   1.041  -0.622  14.304 -0.1214  1.1095  2.0874
   56DOPE  H17Y 7220   1.110  -0.459  14.308  0.4019  0.3849  1.2336
   56DOPE  C318 7221   0.911  -0.473  14.394  0.6714 -0.0479  0.2053
   56DOPE  H18X 7222   0.879  -0.367  14.385 -0.1417 -0.2937  0.0805
   56DOPE  H18Y 7223   0.819  -0.534  14.378 -0.2377  1.3013  0.0883
   56DOPE  H18Z 7224   0.960  -0.468  14.494 -0.1547  1.4747  0.5781
   57DOPE     N 7225   1.642   3.460  12.549  0.5538 -0.1897 -0.0090
   57DOPE   HN1 7226   1.728   3.506  12.514 -0.4275  1.5327 -0.2734
   57DOPE   HN2 7227   1.613   3.505  12.639  0.0633  1.7338 -1.0692
   57DOPE   HN3 7228   1.660   3.358  12.550  0.7785 -0.1590 -0.9133
   57DOPE   C12 7229   1.534   3.476  12.437 -0.3909  0.3948  0.2774
   57DOPE  H12A 7230   1.580   3.435  12.344  0.1102  2.8887 -0.6462
   57DOPE  H12B 7231   1.517   3.583  12.413 -1.6044 -0.3776 -2.8910
   57DOPE   C11 7232   1.395   3.415  12.472 -0.1051  0.5598 -0.6478
   57DOPE  H11A 7233   1.326   3.445  12.390 -0.8739  0.2297 -0.1374
   57DOPE  H11B 7234   1.355   3.473  12.558 -1.7771  0.8872 -1.6073
   57DOPE     P 7235   1.402   3.163  12.400 -0.4405  0.2603  0.7866
   57DOPE   O13 7236   1.507   3.068  12.440 -0.3845 -0.5771  0.3587
   57DOPE   O14 7237   1.407   3.215  12.261 -0.7053 -0.0167 -0.2054
   57DOPE   O11 7238   1.259   3.105  12.431  0.0714  0.3608  0.1816
   57DOPE   O12 7239   1.406   3.276  12.509 -0.0356  0.3009 -0.0458
   57DOPE    C1 7240   1.150   3.182  12.490 -0.6403  0.1705  0.3216
   57DOPE    HA 7241   1.057   3.126  12.467 -1.5332  1.6166  0.3487
   57DOPE    HB 7242   1.129   3.278  12.440  0.0199  1.2141  1.9458
   57DOPE    C2 7243   1.153   3.188  12.650  0.2528  1.0088  0.3122
   57DOPE    HS 7244   1.247   3.239  12.678  0.8345  0.8389 -1.2372
   57DOPE   O21 7245   1.146   3.058  12.708 -0.4839  0.2108  0.2410
   57DOPE   C21 7246   1.241   3.032  12.786  0.5654  0.3509 -0.1685
   57DOPE   O22 7247   1.329   3.103  12.817 -0.6864 -0.1582  0.2187
   57DOPE   C22 7248   1.216   2.894  12.850 -0.2872  0.5943  1.0354
   57DOPE   H2R 7249   1.316   2.846  12.852 -0.6710 -0.2276  0.9537
   57DOPE   H2S 7250   1.144   2.840  12.784  1.1563  0.0810 -0.1879
   57DOPE    C3 7251   1.035   3.280  12.705 -0.2412  0.1938  0.2395
   57DOPE    HX 7252   0.937   3.251  12.662 -2.4535  2.3530  3.3983
   57DOPE    HY 7253   1.056   3.384  12.672 -3.6884  0.7315 -0.6022
   57DOPE   O31 7254   1.038   3.282  12.851 -0.2075  0.0292  0.1631
   57DOPE   C31 7255   1.135   3.356  12.905  0.0331 -0.6093  0.1773
   57DOPE   O32 7256   1.221   3.410  12.841  0.2518 -0.5976  0.4159
   57DOPE   C32 7257   1.124   3.349  13.059  0.0813 -0.2006  0.0759
   57DOPE   H2X 7258   1.058   3.433  13.090  0.9356  0.6144 -0.2939
   57DOPE   H2Y 7259   1.078   3.251  13.084 -1.5011  0.9765  2.1148
   57DOPE   C23 7260   1.134   2.905  12.979 -0.1036  0.3079 -0.5545
   57DOPE   H3R 7261   1.041   2.960  12.953 -0.0233 -0.2439 -2.1913
   57DOPE   H3S 7262   1.190   2.944  13.065  1.3493 -1.0941 -0.8175
   57DOPE   C24 7263   1.084   2.763  13.011 -0.4649 -0.0805 -0.4120
   57DOPE   H4R 7264   1.169   2.690  13.007  0.5920  1.1534 -1.5073
   57DOPE   H4S 7265   1.022   2.734  12.924 -0.4900 -0.9507 -0.1121
   57DOPE   C25 7266   1.000   2.739  13.135  0.3527 -0.8254 -0.2701
   57DOPE   H5R 7267   0.949   2.640  13.137  2.8119 -2.1383  0.8996
   57DOPE   H5S 7268   0.914   2.807  13.117  0.8587  0.0673  0.6252
   57DOPE   C26 7269   1.063   2.768  13.273 -0.0686 -0.2891  0.0208
   57DOPE   H6R 7270   1.090   2.875  13.273  0.4101 -0.3824  1.4892
   57DOPE   H6S 7271   1.150   2.700  13.284  0.3382  0.2884  0.3824
   57DOPE   C27 7272   0.962   2.740  13.385 -0.4227  0.7714  0.3429
   57DOPE   H7R 7273   0.973   2.632  13.409 -1.0190  0.6373  0.0245
   57DOPE   H7S 7274   0.862   2.749  13.338 -0.3843 -0.8674 -0.1079
   57DOPE   C28 7275   0.980   2.825  13.502 -0.2177 -0.0692 -0.5149
   57DOPE   H8R 7276   0.906   2.800  13.581 -0.1276  0.3961 -0.2771
   57DOPE   H8S 7277   0.952   2.933  13.493  1.9654  0.5481 -0.4521
   57DOPE   C29 7278   1.116   2.817  13.574  0.0896 -0.4044  0.0500
   57DOPE   H9R 7279   1.171   2.908  13.545 -2.1360  0.7755 -0.7052
   57DOPE  C210 7280   1.166   2.726  13.661 -0.2855  0.0892 -0.4038
   57DOPE  H10R 7281   1.253   2.765  13.716 -0.8483 -2.3656  2.5032
   57DOPE  C211 7282   1.106   2.604  13.725  0.4458  0.4598  0.7277
   57DOPE  H11R 7283   1.160   2.517  13.681  1.0811  1.1688  0.0897
   57DOPE  H11S 7284   1.002   2.586  13.690  0.6180 -0.7061  0.7454
   57DOPE  C212 7285   1.106   2.608  13.881  0.3758  0.0550  0.6862
   57DOPE  H12R 7286   1.049   2.520  13.917  1.3730 -1.0076 -0.2284
   57DOPE  H12S 7287   1.060   2.704  13.912  3.1952  1.2058  1.5828
   57DOPE  C213 7288   1.246   2.613  13.948 -0.1853 -0.2764  0.3186
   57DOPE  H13R 7289   1.307   2.703  13.923  0.2017 -1.0271 -1.6336
   57DOPE  H13S 7290   1.303   2.525  13.911  1.5966  0.9534  0.0155
   57DOPE  C214 7291   1.238   2.603  14.107 -0.2812  0.1882  0.4493
   57DOPE  H14R 7292   1.201   2.499  14.118 -0.1187 -0.2449 -2.3438
   57DOPE  H14S 7293   1.155   2.664  14.149 -1.6220 -3.0915  3.1105
   57DOPE  C215 7294   1.383   2.611  14.172 -0.0623 -0.1147 -1.3532
   57DOPE  H15R 7295   1.439   2.692  14.121 -1.5115  0.2321 -2.4286
   57DOPE  H15S 7296   1.447   2.523  14.146  1.3983  0.6862 -0.6270
   57DOPE  C216 7297   1.383   2.619  14.325 -0.4967 -0.9869  0.7929
   57DOPE  H16R 7298   1.318   2.704  14.354 -0.2635 -0.2766 -0.6773
   57DOPE  H16S 7299   1.482   2.652  14.363  1.2218 -4.6813  0.0209
   57DOPE  C217 7300   1.322   2.501  14.400  0.1813 -0.4130 -0.4581
   57DOPE  H17R 7301   1.229   2.463  14.353  0.9043 -1.0847 -1.3606
   57DOPE  H17S 7302   1.287   2.539  14.499 -0.0241  0.2620 -0.7778
   57DOPE  C218 7303   1.417   2.384  14.422 -0.7606 -0.1134  0.0696
   57DOPE  H18R 7304   1.519   2.417  14.451 -1.1210 -0.0696  1.3477
   57DOPE  H18S 7305   1.423   2.330  14.325  0.5075  0.4858 -0.2011
   57DOPE  H18T 7306   1.376   2.327  14.508  0.1369  0.6070  1.0007
   57DOPE   C33 7307   1.251   3.364  13.137  0.4884  0.3582  0.1947
   57DOPE   H3X 7308   1.223   3.384  13.243 -1.2025  1.2611 -0.3952
   57DOPE   H3Y 7309   1.319   3.447  13.109  0.1848 -0.0671 -1.9275
   57DOPE   C34 7310   1.320   3.224  13.134  0.0242 -0.4798  0.0537
   57DOPE   H4X 7311   1.248   3.145  13.165 -1.1792 -0.1291 -1.6439
   57DOPE   H4Y 7312   1.355   3.198  13.031  1.2707 -0.9991  0.5933
   57DOPE   C35 7313   1.445   3.213  13.218 -0.0620 -0.0466  0.4162
   57DOPE   H5X 7314   1.498   3.311  13.212 -2.9377  1.7379  1.9036
   57DOPE   H5Y 7315   1.503   3.123  13.189  1.2190  0.6960  0.5779
   57DOPE   C36 7316   1.423   3.206  13.370  0.1295 -0.9299  0.6001
   57DOPE   H6X 7317   1.370   3.114  13.402  1.1619 -2.6283 -2.2204
   57DOPE   H6Y 7318   1.363   3.295  13.398  1.3867  0.5113 -1.1079
   57DOPE   C37 7319   1.557   3.203  13.438 -0.1401 -0.1276  0.8427
   57DOPE   H7X 7320   1.625   3.117  13.418  0.3650  0.7750 -1.6107
   57DOPE   H7Y 7321   1.608   3.293  13.397 -1.0978 -0.7498 -1.9371
   57DOPE   C38 7322   1.530   3.224  13.585  0.7032  0.5226 -0.1865
   57DOPE   H8X 7323   1.448   3.294  13.610  1.7668  0.9000  2.6641
   57DOPE   H8Y 7324   1.619   3.274  13.630  0.0626  2.4084 -0.9484
   57DOPE   C39 7325   1.501   3.094  13.645 -0.1245 -0.1045  0.1874
   57DOPE   H9X 7326   1.416   3.040  13.600  1.3200 -1.3831 -1.1497
   57DOPE  C310 7327   1.562   3.039  13.750  0.0644  0.2693 -0.0089
   57DOPE  H10X 7328   1.537   2.935  13.775  2.0264 -0.4365 -0.8039
   57DOPE  C311 7329   1.689   3.081  13.814 -0.2036 -0.0232 -0.5871
   57DOPE  H11X 7330   1.770   3.005  13.801 -0.9214 -0.9855  0.3472
   57DOPE  H11Y 7331   1.736   3.173  13.773  0.8388 -1.0597 -1.8361
   57DOPE  C312 7332   1.681   3.088  13.973 -0.0771  0.4282 -0.1132
   57DOPE  H12X 7333   1.599   3.159  13.998  0.8784  2.5531 -2.5860
   57DOPE  H12Y 7334   1.781   3.115  14.012  0.4955 -0.6397 -0.7804
   57DOPE  C313 7335   1.640   2.952  14.025  0.6800  0.1277 -0.0542
   57DOPE  H13X 7336   1.530   2.947  14.008  0.5199 -0.1850  1.0330
   57DOPE  H13Y 7337   1.687   2.869  13.968 -1.2002 -0.2424 -1.1596
   57DOPE  C314 7338   1.672   2.949  14.171 -0.2764  0.0931 -0.6523
   57DOPE  H14X 7339   1.781   2.967  14.187 -0.7455  1.7308  0.9162
   57DOPE  H14Y 7340   1.660   2.848  14.216 -0.3947  0.4901  0.2114
   57DOPE  C315 7341   1.586   3.043  14.257  0.8990  0.5317  1.0781
   57DOPE  H15X 7342   1.478   3.015  14.252  1.3095 -0.9627 -1.1800
   57DOPE  H15Y 7343   1.594   3.143  14.210 -0.4309  1.5085  2.7851
   57DOPE  C316 7344   1.634   3.050  14.400  0.5493 -0.4909 -0.2484
   57DOPE  H16X 7345   1.736   3.094  14.392  0.1627  0.4944  0.0637
   57DOPE  H16Y 7346   1.628   2.946  14.441 -0.2731 -1.3422 -2.4019
   57DOPE  C317 7347   1.563   3.160  14.482  0.3748 -0.2617  0.2757
   57DOPE  H17X 7348   1.570   3.250  14.416  1.3067 -1.1880 -0.9250
   57DOPE  H17Y 7349   1.453   3.145  14.483  0.3871 -0.3549  0.1876
   57DOPE  C318 7350   1.609   3.188  14.615 -0.0888  0.3955 -0.1119
   57DOPE  H18X 7351   1.715   3.221  14.615 -0.7304  2.6871  1.5804
   57DOPE  H18Y 7352   1.550   3.265  14.669  1.3195  0.6145  1.1974
   57DOPE  H18Z 7353   1.609   3.091  14.671 -0.7413  1.9052  2.7028
   58DOPE     N 7354   0.991   5.399  12.212 -0.5779 -0.6618 -0.2548
   58DOPE   HN1 7355   1.086   5.437  12.194 -0.3054 -0.5518  1.2426
   58DOPE   HN2 7356   0.929   5.477  12.243 -0.6144 -0.7521 -0.0998
   58DOPE   HN3 7357   1.006   5.330  12.289 -0.8451 -1.9109 -1.2977
   58DOPE   C12 7358   0.953   5.315  12.092 -0.0235  0.7975 -0.1672
   58DOPE  H12A 7359   0.871   5.245  12.116 -0.0536  1.1463  0.7866
   58DOPE  H12B 7360   1.046   5.259  12.068  0.3867  1.5136 -0.2686
   58DOPE   C11 7361   0.907   5.392  11.967 -0.0724  0.0978 -0.3620
   58DOPE  H11A 7362   0.893   5.332  11.874 -1.0399 -1.7659  0.9324
   58DOPE  H11B 7363   0.995   5.452  11.934  0.2491 -0.0715  0.1754
   58DOPE     P 7364   0.659   5.459  11.964  0.0553 -0.1434 -0.1999
   58DOPE   O13 7365   0.607   5.320  11.982  0.1554 -0.0670 -0.1708
   58DOPE   O14 7366   0.650   5.513  11.827 -0.2397  0.3906  0.0258
   58DOPE   O11 7367   0.576   5.550  12.061  0.4194 -0.7847  0.2925
   58DOPE   O12 7368   0.801   5.470  12.013 -0.9262  0.0970 -0.0649
   58DOPE    C1 7369   0.633   5.625  12.161  0.4544 -0.0054 -0.0636
   58DOPE    HA 7370   0.619   5.733  12.139  0.6578 -0.1109 -0.7690
   58DOPE    HB 7371   0.740   5.604  12.182  0.1219 -1.5042  0.2866
   58DOPE    C2 7372   0.549   5.606  12.288  0.0957  0.0210  0.0146
   58DOPE    HS 7373   0.616   5.650  12.366 -0.5392  2.5293 -0.7774
   58DOPE   O21 7374   0.524   5.472  12.331  0.7590 -0.1713  0.4020
   58DOPE   C21 7375   0.611   5.371  12.316 -0.7274  0.2010 -0.3913
   58DOPE   O22 7376   0.730   5.391  12.327 -0.3434  0.0232 -0.5603
   58DOPE   C22 7377   0.536   5.236  12.299 -0.3623 -0.7088  0.2158
   58DOPE   H2R 7378   0.541   5.210  12.191  0.2998  1.7354 -0.4009
   58DOPE   H2S 7379   0.428   5.256  12.315 -0.7154  0.7693 -3.1198
   58DOPE    C3 7380   0.422   5.688  12.307 -0.5497  0.2698 -0.2709
   58DOPE    HX 7381   0.353   5.657  12.225  0.1784 -0.5106 -0.6054
   58DOPE    HY 7382   0.445   5.796  12.289 -0.0222 -0.0845 -1.9707
   58DOPE   O31 7383   0.367   5.673  12.440 -0.4199  0.1980  0.5988
   58DOPE   C31 7384   0.255   5.609  12.445 -0.1687 -0.5494  0.2798
   58DOPE   O32 7385   0.194   5.547  12.357 -0.2381 -0.0248 -0.3694
   58DOPE   C32 7386   0.197   5.636  12.590  0.1526  0.0026 -0.4978
   58DOPE   H2X 7387   0.247   5.564  12.658  1.7413 -0.7120 -2.3159
   58DOPE   H2Y 7388   0.238   5.736  12.619  1.5440 -0.4511 -0.8006
   58DOPE   C23 7389   0.606   5.125  12.371 -0.6155  1.0082 -0.0961
   58DOPE   H3R 7390   0.716   5.138  12.373 -0.7416  2.1975 -0.0442
   58DOPE   H3S 7391   0.592   5.033  12.310  2.3394 -0.3125  1.0632
   58DOPE   C24 7392   0.546   5.096  12.510 -0.3118  0.7396 -0.1106
   58DOPE   H4R 7393   0.601   5.006  12.543 -2.1310  0.0104  1.0866
   58DOPE   H4S 7394   0.438   5.069  12.508  0.2900 -1.8716 -1.1130
   58DOPE   C25 7395   0.559   5.210  12.611 -0.0040  0.5765  0.4376
   58DOPE   H5R 7396   0.485   5.293  12.611  2.8802  3.3545  1.1030
   58DOPE   H5S 7397   0.654   5.264  12.589 -1.2501  2.1309 -1.5215
   58DOPE   C26 7398   0.559   5.168  12.755  0.3624  0.2035 -0.4707
   58DOPE   H6R 7399   0.629   5.082  12.761 -0.2791 -0.2822  0.3632
   58DOPE   H6S 7400   0.459   5.123  12.773  0.3149 -0.6586 -2.6095
   58DOPE   C27 7401   0.585   5.286  12.846 -0.4331  0.1657 -0.3162
   58DOPE   H7R 7402   0.500   5.357  12.836 -1.0696 -0.6553 -0.7752
   58DOPE   H7S 7403   0.675   5.338  12.807  0.2401 -1.2997 -0.7877
   58DOPE   C28 7404   0.608   5.252  12.995  0.7515  0.4031  0.7475
   58DOPE   H8R 7405   0.634   5.348  13.044 -0.9412  0.9750  0.5865
   58DOPE   H8S 7406   0.694   5.181  12.996  0.4020 -0.0271  0.4434
   58DOPE   C29 7407   0.482   5.190  13.043  0.7610  0.9522 -0.2808
   58DOPE   H9R 7408   0.403   5.178  12.968 -0.8029  0.5297  1.3872
   58DOPE  C210 7409   0.464   5.146  13.169  0.9026 -0.6520  0.0524
   58DOPE  H10R 7410   0.369   5.098  13.198  0.4217  0.1800 -0.1091
   58DOPE  C211 7411   0.570   5.160  13.281  1.0104 -0.0479  0.0149
   58DOPE  H11R 7412   0.610   5.264  13.274 -1.2658  1.0197  1.6527
   58DOPE  H11S 7413   0.654   5.088  13.268  2.1105  1.2584 -0.3827
   58DOPE  C212 7414   0.507   5.149  13.414 -0.3166  0.0380 -0.0966
   58DOPE  H12R 7415   0.407   5.198  13.412 -2.5309 -4.0708  0.4006
   58DOPE  H12S 7416   0.579   5.198  13.484  1.6765 -1.7763 -0.7582
   58DOPE  C213 7417   0.481   5.004  13.454 -0.1662  0.9246  0.8960
   58DOPE  H13R 7418   0.568   4.945  13.490 -1.3736 -1.6501 -0.1431
   58DOPE  H13S 7419   0.447   4.944  13.367 -0.2578  0.0357  1.5242
   58DOPE  C214 7420   0.375   4.978  13.560 -0.4764 -0.1855  0.5202
   58DOPE  H14R 7421   0.362   4.867  13.555  1.0784 -0.3540 -0.4245
   58DOPE  H14S 7422   0.282   5.034  13.535 -0.1311  0.2153  0.1325
   58DOPE  C215 7423   0.414   5.021  13.707 -0.1999 -0.2890  0.3521
   58DOPE  H15R 7424   0.406   5.131  13.714  2.2860  0.2765 -3.1196
   58DOPE  H15S 7425   0.523   5.001  13.710 -0.6782 -3.3477  0.5207
   58DOPE  C216 7426   0.341   4.943  13.821  0.3665 -0.0998  0.1268
   58DOPE  H16R 7427   0.360   4.834  13.814 -1.9026 -0.7548  2.4768
   58DOPE  H16S 7428   0.234   4.958  13.796 -0.3666 -1.3583  2.1983
   58DOPE  C217 7429   0.381   4.990  13.970  0.1928 -0.2635  0.5411
   58DOPE  H17R 7430   0.489   4.983  13.994 -0.1037 -0.2524  1.9899
   58DOPE  H17S 7431   0.331   4.912  14.031  0.6490 -0.1388  1.0878
   58DOPE  C218 7432   0.321   5.119  14.019  0.3133  0.6141 -0.0583
   58DOPE  H18R 7433   0.384   5.203  13.984  0.0388  0.2316 -1.5677
   58DOPE  H18S 7434   0.310   5.125  14.129 -2.6169  1.3533 -0.3132
   58DOPE  H18T 7435   0.219   5.132  13.977  0.5268 -1.2288 -1.2915
   58DOPE   C33 7436   0.039   5.637  12.606 -0.6118 -0.0686  0.6319
   58DOPE   H3X 7437  -0.007   5.552  12.551 -0.9610  0.9405 -0.6965
   58DOPE   H3Y 7438  -0.012   5.718  12.549  1.4300  0.1003 -1.1139
   58DOPE   C34 7439  -0.008   5.636  12.753  0.0302 -0.8088  0.3870
   58DOPE   H4X 7440  -0.111   5.601  12.771  0.0605 -1.5903 -0.7909
   58DOPE   H4Y 7441   0.053   5.567  12.814  0.2908 -0.3481  0.6585
   58DOPE   C35 7442  -0.010   5.779  12.799 -0.1868  0.0484 -0.6775
   58DOPE   H5X 7443  -0.093   5.834  12.749 -2.4523 -0.7166  1.9874
   58DOPE   H5Y 7444   0.081   5.842  12.784 -2.1332  2.8721 -1.3288
   58DOPE   C36 7445  -0.043   5.798  12.950 -0.2929 -0.5366  0.2308
   58DOPE   H6X 7446  -0.140   5.745  12.965 -0.3722 -0.4321  0.0780
   58DOPE   H6Y 7447  -0.062   5.906  12.970  0.2552 -0.6707  1.5922
   58DOPE   C37 7448   0.065   5.746  13.052  0.4145 -0.0355  0.7208
   58DOPE   H7X 7449   0.125   5.662  13.011  1.1556  0.1534  1.3974
   58DOPE   H7Y 7450   0.131   5.833  13.071 -0.9480  1.7392 -1.9837
   58DOPE   C38 7451  -0.004   5.686  13.177  0.5901 -0.1568  0.2535
   58DOPE   H8X 7452   0.072   5.648  13.249  0.4707  0.7605  0.8754
   58DOPE   H8Y 7453  -0.072   5.605  13.142  1.5568  0.0029 -2.2125
   58DOPE   C39 7454  -0.065   5.803  13.242  0.3710  0.0518 -1.0183
   58DOPE   H9X 7455  -0.077   5.883  13.167  1.4895  0.3657 -0.8781
   58DOPE  C310 7456  -0.137   5.806  13.357  0.9129 -0.0661  0.0034
   58DOPE  H10X 7457  -0.173   5.906  13.385  0.5194 -0.4498  0.8991
   58DOPE  C311 7458  -0.142   5.690  13.458  0.1786  0.3019  0.0366
   58DOPE  H11X 7459  -0.221   5.617  13.431  1.5349 -1.1661 -0.0972
   58DOPE  H11Y 7460  -0.053   5.624  13.454 -1.2050 -1.6193 -0.7576
   58DOPE  C312 7461  -0.182   5.732  13.600 -0.6571 -0.0699  0.5396
   58DOPE  H12X 7462  -0.268   5.803  13.606 -1.2532 -0.8571  1.6705
   58DOPE  H12Y 7463  -0.089   5.778  13.638 -0.1539  0.5976 -1.4095
   58DOPE  C313 7464  -0.212   5.611  13.687  0.1091  0.0627 -0.3906
   58DOPE  H13X 7465  -0.303   5.563  13.644 -0.2208 -0.4474  0.8252
   58DOPE  H13Y 7466  -0.128   5.538  13.688  1.2939  1.3105 -2.4503
   58DOPE  C314 7467  -0.248   5.670  13.826  0.1347  0.3777  0.3247
   58DOPE  H14X 7468  -0.329   5.745  13.818  1.0622  1.2902 -0.8838
   58DOPE  H14Y 7469  -0.160   5.716  13.876 -0.8500 -0.3596  2.9041
   58DOPE  C315 7470  -0.290   5.569  13.922 -0.5052  0.2292 -0.0137
   58DOPE  H15X 7471  -0.201   5.510  13.954 -0.6625 -0.4496 -0.7968
   58DOPE  H15Y 7472  -0.361   5.503  13.869  0.8870 -0.6252 -0.8879
   58DOPE  C316 7473  -0.343   5.634  14.050  1.3254  0.4378  0.0128
   58DOPE  H16X 7474  -0.451   5.657  14.033  1.7948  1.9279 -1.1217
   58DOPE  H16Y 7475  -0.284   5.721  14.085  2.0530  0.4374 -1.1479
   58DOPE  C317 7476  -0.326   5.532  14.166  0.7348 -0.2955  0.4212
   58DOPE  H17X 7477  -0.378   5.436  14.149 -2.4558  1.6995 -2.2343
   58DOPE  H17Y 7478  -0.219   5.502  14.169  0.0997 -2.9095 -0.6532
   58DOPE  C318 7479  -0.384   5.595  14.291 -0.5536 -0.0517 -0.3901
   58DOPE  H18X 7480  -0.316   5.677  14.321 -0.1777 -0.1021 -1.0946
   58DOPE  H18Y 7481  -0.485   5.637  14.271 -0.3489  0.9197  0.5463
   58DOPE  H18Z 7482  -0.390   5.522  14.375 -0.6463  1.2675  0.7787
   59DOPE     N 7483   0.484   1.843  12.245 -0.0363 -0.3966  0.3130
   59DOPE   HN1 7484   0.458   1.790  12.159 -3.5200  2.0756 -0.3421
   59DOPE   HN2 7485   0.580   1.808  12.266  1.2854  1.6565 -1.7980
   59DOPE   HN3 7486   0.426   1.799  12.319  0.1659 -4.0990 -1.4711
   59DOPE   C12 7487   0.492   1.994  12.231 -0.3147 -0.1190  0.3871
   59DOPE  H12A 7488   0.388   2.025  12.205  0.5984  0.6495 -2.8544
   59DOPE  H12B 7489   0.556   2.010  12.142 -0.3447 -0.0796  0.3725
   59DOPE   C11 7490   0.549   2.050  12.360 -0.2085 -1.0696 -0.4444
   59DOPE  H11A 7491   0.500   2.007  12.450  0.7971 -1.0499  0.1230
   59DOPE  H11B 7492   0.508   2.153  12.355  1.7797 -0.2537 -0.9694
   59DOPE     P 7493   0.763   1.923  12.430 -0.3847  0.4100 -0.0492
   59DOPE   O13 7494   0.896   1.955  12.490 -0.1222 -0.1004 -0.0783
   59DOPE   O14 7495   0.765   1.820  12.330 -0.2845 -0.8596 -0.2492
   59DOPE   O11 7496   0.667   1.875  12.546 -0.1386 -0.5830 -0.0069
   59DOPE   O12 7497   0.696   2.050  12.370 -0.5978 -0.2511  0.0942
   59DOPE    C1 7498   0.660   1.938  12.676  0.1675  0.2613  0.5604
   59DOPE    HA 7499   0.556   1.925  12.714  0.1695 -2.6735 -0.1881
   59DOPE    HB 7500   0.693   2.043  12.667  1.1483 -0.0602  0.2342
   59DOPE    C2 7501   0.751   1.869  12.775  0.1571  0.3559 -0.1877
   59DOPE    HS 7502   0.840   1.830  12.721  1.0086  0.4677  1.0982
   59DOPE   O21 7503   0.693   1.748  12.835 -0.6489 -0.3726  0.3810
   59DOPE   C21 7504   0.776   1.663  12.881 -0.0958 -0.4392 -0.6389
   59DOPE   O22 7505   0.896   1.684  12.904 -0.4999 -0.3315 -0.1529
   59DOPE   C22 7506   0.706   1.536  12.911  0.2061 -0.3802  0.2437
   59DOPE   H2R 7507   0.755   1.459  12.847  0.8443 -0.4198  0.7627
   59DOPE   H2S 7508   0.602   1.538  12.871  1.6285 -1.5083 -4.1252
   59DOPE    C3 7509   0.793   1.974  12.879 -0.2462 -0.0178  0.0717
   59DOPE    HX 7510   0.836   2.067  12.835 -0.9791  0.5065  0.4444
   59DOPE    HY 7511   0.872   1.938  12.949 -1.9337 -1.5250  1.2935
   59DOPE   O31 7512   0.678   2.021  12.956  0.0665 -0.2663 -0.2726
   59DOPE   C31 7513   0.663   1.965  13.074  1.0116 -0.0388 -0.4314
   59DOPE   O32 7514   0.749   1.898  13.134 -0.0156 -0.1875  0.4770
   59DOPE   C32 7515   0.525   2.003  13.133 -0.0505  0.9367  0.5953
   59DOPE   H2X 7516   0.522   2.113  13.120  0.4964  0.9694  0.7204
   59DOPE   H2Y 7517   0.447   1.963  13.064 -0.5859 -1.0124  2.2645
   59DOPE   C23 7518   0.722   1.487  13.059  0.2215 -0.3665  0.4429
   59DOPE   H3R 7519   0.812   1.533  13.106 -0.1483  1.4841 -0.5743
   59DOPE   H3S 7520   0.728   1.376  13.052 -1.5785 -0.4198 -1.2378
   59DOPE   C24 7521   0.601   1.521  13.148 -0.3306 -0.0540 -0.7522
   59DOPE   H4R 7522   0.512   1.467  13.109 -0.8509 -1.1540  1.7525
   59DOPE   H4S 7523   0.575   1.629  13.154 -1.0057 -0.2952  2.3799
   59DOPE   C25 7524   0.622   1.469  13.290  0.2650  0.9690  0.0860
   59DOPE   H5R 7525   0.729   1.495  13.307  1.0589 -1.7403 -0.2208
   59DOPE   H5S 7526   0.622   1.358  13.282  1.4122  0.8212  1.7091
   59DOPE   C26 7527   0.521   1.518  13.391 -0.6086  0.8617  0.5864
   59DOPE   H6R 7528   0.430   1.459  13.370  0.8373 -1.5223  0.5934
   59DOPE   H6S 7529   0.507   1.628  13.397  1.0867  1.0482  1.8737
   59DOPE   C27 7530   0.558   1.462  13.529  0.1086 -0.6944 -0.0807
   59DOPE   H7R 7531   0.668   1.477  13.530  0.2116 -1.1581  2.3902
   59DOPE   H7S 7532   0.552   1.352  13.545  0.0737 -0.5991  0.5595
   59DOPE   C28 7533   0.480   1.516  13.649 -0.2018 -0.4274  0.6407
   59DOPE   H8R 7534   0.495   1.625  13.635  1.5760 -0.8364 -0.9788
   59DOPE   H8S 7535   0.529   1.476  13.741 -1.5245 -0.2313  1.4660
   59DOPE   C29 7536   0.334   1.484  13.640 -0.0212  0.0670  0.4430
   59DOPE   H9R 7537   0.283   1.543  13.563  1.8249  2.2362  0.7688
   59DOPE  C210 7538   0.262   1.405  13.723  0.1356 -1.2096  0.2370
   59DOPE  H10R 7539   0.154   1.395  13.704 -1.1339  3.1823  3.4305
   59DOPE  C211 7540   0.313   1.328  13.843 -0.7819 -0.0538  0.0229
   59DOPE  H11R 7541   0.423   1.315  13.846 -0.9064 -1.1640  2.6508
   59DOPE  H11S 7542   0.273   1.227  13.820 -1.9645  0.5147 -0.5451
   59DOPE  C212 7543   0.268   1.367  13.988  0.5063  0.5638 -0.2404
   59DOPE  H12R 7544   0.157   1.372  13.991  0.5537  2.7953  2.1005
   59DOPE  H12S 7545   0.306   1.471  14.001 -1.2861  1.2689 -0.3880
   59DOPE  C213 7546   0.323   1.276  14.098  0.0663 -0.0080 -0.2961
   59DOPE  H13R 7547   0.434   1.277  14.093  0.0188  1.1345 -1.8984
   59DOPE  H13S 7548   0.284   1.173  14.083  0.8074 -0.4565  0.7034
   59DOPE  C214 7549   0.279   1.330  14.238 -0.7665  0.2355  0.1535
   59DOPE  H14R 7550   0.170   1.349  14.237 -0.6597  0.9235 -1.0887
   59DOPE  H14S 7551   0.321   1.432  14.254 -0.6112 -0.3289  4.2233
   59DOPE  C215 7552   0.330   1.239  14.359  0.2056  0.8575  0.3585
   59DOPE  H15R 7553   0.432   1.204  14.335 -0.2618  1.1460 -2.3518
   59DOPE  H15S 7554   0.264   1.150  14.369 -0.4596  1.3179  0.1287
   59DOPE  C216 7555   0.316   1.319  14.487 -0.1080  0.2336 -0.0856
   59DOPE  H16R 7556   0.212   1.349  14.512 -0.6348 -0.8915 -0.8148
   59DOPE  H16S 7557   0.364   1.417  14.466 -0.0018  0.0761 -0.6016
   59DOPE  C217 7558   0.384   1.246  14.603 -0.0961 -0.1536  0.2215
   59DOPE  H17R 7559   0.479   1.197  14.571 -1.2540 -2.5753  0.2467
   59DOPE  H17S 7560   0.330   1.153  14.631 -0.0142 -0.1678  0.3342
   59DOPE  C218 7561   0.400   1.313  14.740  0.2458  0.1345 -0.5195
   59DOPE  H18R 7562   0.446   1.246  14.816  3.8314  3.7884  0.9034
   59DOPE  H18S 7563   0.308   1.354  14.786 -0.8297 -2.0145 -0.6037
   59DOPE  H18T 7564   0.469   1.399  14.729  2.0485 -1.3142 -1.2067
   59DOPE   C33 7565   0.503   1.960  13.283 -0.0547 -0.2568  0.0854
   59DOPE   H3X 7566   0.541   1.860  13.311 -1.6426 -0.9379 -0.0803
   59DOPE   H3Y 7567   0.392   1.955  13.289 -0.1413 -0.6233 -1.5094
   59DOPE   C34 7568   0.555   2.078  13.374 -0.5868  0.1630  0.3818
   59DOPE   H4X 7569   0.665   2.093  13.377 -0.7120  1.0359  0.8738
   59DOPE   H4Y 7570   0.509   2.172  13.336  0.4626  0.8589  0.7998
   59DOPE   C35 7571   0.512   2.066  13.521  0.7583  0.0636  0.5198
   59DOPE   H5X 7572   0.405   2.036  13.527  0.7522  0.2655  1.5989
   59DOPE   H5Y 7573   0.515   2.166  13.569 -0.7883  0.4214 -0.0640
   59DOPE   C36 7574   0.612   1.976  13.592  0.0181 -0.0421  0.2240
   59DOPE   H6X 7575   0.716   1.991  13.556  0.1849 -3.2044 -0.9448
   59DOPE   H6Y 7576   0.587   1.868  13.580 -1.0976  0.1001  1.0591
   59DOPE   C37 7577   0.597   1.994  13.743 -0.4503 -0.2269 -0.0385
   59DOPE   H7X 7578   0.657   2.079  13.780  0.0235 -0.2220 -0.7978
   59DOPE   H7Y 7579   0.491   2.027  13.753 -0.6840 -0.4741 -1.4229
   59DOPE   C38 7580   0.610   1.864  13.826  0.1537  0.1899  0.3509
   59DOPE   H8X 7581   0.703   1.816  13.790 -0.2842 -0.9132  0.6377
   59DOPE   H8Y 7582   0.518   1.805  13.804  1.5925 -1.3465 -1.9741
   59DOPE   C39 7583   0.626   1.885  13.976 -0.1461 -0.0167  0.1885
   59DOPE   H9X 7584   0.675   1.979  14.005  0.2761  0.5591 -2.1859
   59DOPE  C310 7585   0.593   1.798  14.066  0.3994  0.5506 -0.7558
   59DOPE  H10X 7586   0.602   1.821  14.173  0.7276  1.6874 -1.0225
   59DOPE  C311 7587   0.538   1.659  14.043  0.4765 -0.3938 -0.0424
   59DOPE  H11X 7588   0.445   1.637  14.099 -1.3315  1.1482 -2.2309
   59DOPE  H11Y 7589   0.514   1.637  13.936 -1.1157 -0.6585  0.3482
   59DOPE  C312 7590   0.650   1.568  14.096 -0.1577  0.2987  0.0218
   59DOPE  H12X 7591   0.751   1.593  14.058 -0.5551  0.5394 -0.9145
   59DOPE  H12Y 7592   0.633   1.466  14.056 -0.3321  0.0761  0.6462
   59DOPE  C313 7593   0.663   1.550  14.244  0.4358 -0.7217 -0.4676
   59DOPE  H13X 7594   0.733   1.626  14.283 -1.8005  0.3658  1.7067
   59DOPE  H13Y 7595   0.566   1.566  14.296 -0.6316 -0.0847 -2.5176
   59DOPE  C314 7596   0.715   1.421  14.291  0.1370  0.9163 -0.1741
   59DOPE  H14X 7597   0.807   1.388  14.239 -0.5010 -1.2848 -0.0426
   59DOPE  H14Y 7598   0.649   1.332  14.280 -0.2948  0.6623  3.2633
   59DOPE  C315 7599   0.754   1.428  14.436 -0.1530 -0.0871  0.3114
   59DOPE  H15X 7600   0.668   1.470  14.491  1.7418  3.0168  1.1985
   59DOPE  H15Y 7601   0.835   1.504  14.448 -0.8444  0.4604  1.6586
   59DOPE  C316 7602   0.783   1.296  14.496  0.3441 -0.1003 -0.5413
   59DOPE  H16X 7603   0.868   1.249  14.442  0.3975 -0.1340 -0.4277
   59DOPE  H16Y 7604   0.709   1.220  14.463  0.8158 -0.8853  0.1490
   59DOPE  C317 7605   0.793   1.298  14.652 -0.6293  0.2593  0.1298
   59DOPE  H17X 7606   0.877   1.368  14.666  0.1104 -0.9305  1.9285
   59DOPE  H17Y 7607   0.705   1.354  14.690 -1.2116  0.6283 -1.6623
   59DOPE  C318 7608   0.815   1.154  14.705 -0.2308 -0.1353  0.3509
   59DOPE  H18X 7609   0.899   1.111  14.646  0.4549  0.1309  1.1086
   59DOPE  H18Y 7610   0.829   1.164  14.815 -2.2168  0.5959  0.5736
   59DOPE  H18Z 7611   0.724   1.090  14.697  0.8307 -1.4836 -1.9014
   60DOPE     N 7612   0.139   6.207  11.977 -0.9011  0.0064  0.3882
   60DOPE   HN1 7613   0.194   6.139  11.921  0.7806 -1.3393  3.4590
   60DOPE   HN2 7614   0.223   6.245  12.025  1.0071 -1.1415 -1.8100
   60DOPE   HN3 7615   0.071   6.157  12.036 -0.0910  0.1156  1.4418
   60DOPE   C12 7616   0.078   6.317  11.883  0.5732  0.1211 -0.4485
   60DOPE  H12A 7617  -0.003   6.257  11.836 -0.8766  1.6962 -0.0468
   60DOPE  H12B 7618   0.149   6.340  11.800 -0.3305 -2.0242 -1.9092
   60DOPE   C11 7619   0.036   6.446  11.959 -0.0404  0.2559  0.3800
   60DOPE  H11A 7620   0.005   6.522  11.884  1.4315  2.2164  1.6418
   60DOPE  H11B 7621   0.130   6.481  12.006 -0.3877  0.5061  0.8929
   60DOPE     P 7622  -0.115   6.525  12.169 -0.2377  0.1281  0.2295
   60DOPE   O13 7623  -0.239   6.480  12.225  0.1136 -0.0629  0.3125
   60DOPE   O14 7624  -0.107   6.660  12.122 -0.1545 -0.0616 -0.0382
   60DOPE   O11 7625   0.013   6.514  12.271  0.2068 -0.2061 -0.5291
   60DOPE   O12 7626  -0.079   6.421  12.049 -0.1876 -0.7648 -0.7792
   60DOPE    C1 7627   0.040   6.372  12.303 -0.1594  0.7089  0.1438
   60DOPE    HA 7628   0.105   6.333  12.221 -2.3678  1.1923 -1.9658
   60DOPE    HB 7629  -0.050   6.308  12.312  0.7473 -0.6182  0.1288
   60DOPE    C2 7630   0.100   6.374  12.447 -0.2135 -0.0777  0.3437
   60DOPE    HS 7631   0.126   6.276  12.492 -0.1650 -0.0943  0.2799
   60DOPE   O21 7632  -0.002   6.440  12.531 -0.7352 -0.4583 -0.1676
   60DOPE   C21 7633  -0.113   6.377  12.560 -0.9649 -0.6973  0.6530
   60DOPE   O22 7634  -0.135   6.257  12.540  0.3301 -0.0109  0.5580
   60DOPE   C22 7635  -0.204   6.480  12.632 -0.0128  0.1543  0.1013
   60DOPE   H2R 7636  -0.243   6.563  12.569  1.0516 -0.2468 -1.1384
   60DOPE   H2S 7637  -0.149   6.536  12.710 -1.4602  0.6985  0.7619
   60DOPE    C3 7638   0.229   6.459  12.442  0.3619  0.0054  0.4257
   60DOPE    HX 7639   0.204   6.548  12.380 -0.3556 -0.6979 -0.3178
   60DOPE    HY 7640   0.303   6.399  12.385 -2.2670 -1.1143 -2.0929
   60DOPE   O31 7641   0.274   6.491  12.573  0.3527 -0.2018 -0.2950
   60DOPE   C31 7642   0.265   6.616  12.609  0.2285 -0.7477 -0.2193
   60DOPE   O32 7643   0.209   6.703  12.544  0.4063  0.3045 -0.0414
   60DOPE   C32 7644   0.313   6.642  12.748 -0.2049  0.4568 -0.1833
   60DOPE   H2X 7645   0.382   6.728  12.739  0.0248  0.3990  0.9399
   60DOPE   H2Y 7646   0.229   6.661  12.818 -0.0165 -3.9809  1.6021
   60DOPE   C23 7647  -0.333   6.419  12.692  0.2999  0.8791  0.7911
   60DOPE   H3R 7648  -0.388   6.372  12.607  2.6266 -1.7022  0.5566
   60DOPE   H3S 7649  -0.395   6.502  12.732  0.1624  1.6544 -0.9462
   60DOPE   C24 7650  -0.303   6.321  12.805  0.1541  0.3057  0.0318
   60DOPE   H4R 7651  -0.228   6.359  12.877  0.2319  0.2361 -0.0125
   60DOPE   H4S 7652  -0.270   6.222  12.767 -4.5748 -1.4271 -0.2373
   60DOPE   C25 7653  -0.436   6.274  12.870 -0.3776 -0.2525  0.0490
   60DOPE   H5R 7654  -0.479   6.211  12.790  1.7624 -0.7284 -0.8069
   60DOPE   H5S 7655  -0.502   6.360  12.892  0.7695  0.6162  0.2009
   60DOPE   C26 7656  -0.425   6.191  12.997 -0.5095 -0.0251 -0.2793
   60DOPE   H6R 7657  -0.530   6.180  13.031 -0.3637  1.4047  0.7327
   60DOPE   H6S 7658  -0.376   6.239  13.084  0.5170 -0.3433 -0.6677
   60DOPE   C27 7659  -0.362   6.055  12.980 -0.3366  0.0021  0.0155
   60DOPE   H7R 7660  -0.253   6.061  12.961 -0.2771 -1.8954 -0.4256
   60DOPE   H7S 7661  -0.404   6.001  12.893  0.3714  0.0272 -0.3447
   60DOPE   C28 7662  -0.375   5.961  13.103 -0.7236 -0.8715  0.8098
   60DOPE   H8R 7663  -0.339   6.026  13.186 -0.8580 -0.1908  0.3381
   60DOPE   H8S 7664  -0.301   5.880  13.086  2.2938  1.3266  2.5356
   60DOPE   C29 7665  -0.508   5.899  13.131 -0.9280 -0.5545  0.4376
   60DOPE   H9R 7666  -0.530   5.820  13.058  0.1988 -0.3768 -0.1172
   60DOPE  C210 7667  -0.589   5.922  13.237  0.4494 -0.5122 -0.8165
   60DOPE  H10R 7668  -0.688   5.873  13.236  1.0316 -1.7312 -2.2591
   60DOPE  C211 7669  -0.567   6.024  13.347 -0.4236  0.7787  0.1791
   60DOPE  H11R 7670  -0.659   6.080  13.371 -0.4641  0.9649 -0.3962
   60DOPE  H11S 7671  -0.490   6.099  13.320  1.0368 -0.5767  0.3973
   60DOPE  C212 7672  -0.511   5.952  13.468 -0.5797  0.1825 -0.3206
   60DOPE  H12R 7673  -0.492   6.034  13.541 -1.6324  1.4185 -1.3771
   60DOPE  H12S 7674  -0.413   5.909  13.439 -0.3516  1.3424 -1.3698
   60DOPE  C213 7675  -0.597   5.847  13.547 -0.3873  0.0244  0.9822
   60DOPE  H13R 7676  -0.544   5.819  13.640  1.6044 -0.1688 -0.1540
   60DOPE  H13S 7677  -0.618   5.751  13.495 -3.1552  0.9675  0.1561
   60DOPE  C214 7678  -0.732   5.900  13.590  0.4559  0.4590  0.2688
   60DOPE  H14R 7679  -0.793   5.886  13.499 -0.7012 -4.0552  1.4777
   60DOPE  H14S 7680  -0.733   6.008  13.618  0.2158  1.2195 -2.4071
   60DOPE  C215 7681  -0.796   5.810  13.698  0.1315  0.2363  0.2924
   60DOPE  H15R 7682  -0.778   5.710  13.652  1.2858 -0.1965  1.5953
   60DOPE  H15S 7683  -0.904   5.828  13.712 -0.0361 -1.6523  1.8223
   60DOPE  C216 7684  -0.726   5.788  13.836 -0.4658 -0.5923  0.2299
   60DOPE  H16R 7685  -0.624   5.744  13.823 -0.1720  0.2795 -0.4583
   60DOPE  H16S 7686  -0.778   5.706  13.891  0.4711 -0.9894  0.5584
   60DOPE  C217 7687  -0.740   5.920  13.922 -0.0955 -0.0425  0.4540
   60DOPE  H17R 7688  -0.848   5.944  13.915 -0.6428 -2.7364 -2.3783
   60DOPE  H17S 7689  -0.704   6.007  13.863 -0.8147  0.1089  0.2301
   60DOPE  C218 7690  -0.677   5.908  14.060 -0.2457  0.1805  0.1878
   60DOPE  H18R 7691  -0.700   5.819  14.122 -0.9242  0.4266  0.2971
   60DOPE  H18S 7692  -0.720   5.992  14.119  1.2994  0.9784  0.2206
   60DOPE  H18T 7693  -0.566   5.917  14.063 -0.2051 -0.4751  0.9430
   60DOPE   C33 7694   0.382   6.519  12.812  0.0166 -1.1321 -0.0554
   60DOPE   H3X 7695   0.452   6.471  12.740 -0.5328 -1.2657 -0.5110
   60DOPE   H3Y 7696   0.297   6.451  12.834 -0.5535 -0.2933  0.3811
   60DOPE   C34 7697   0.454   6.549  12.945  0.0118 -0.4113  0.5060
   60DOPE   H4X 7698   0.498   6.452  12.977  0.1616 -0.2588  0.7670
   60DOPE   H4Y 7699   0.540   6.618  12.930  1.4760 -2.0820  0.8506
   60DOPE   C35 7700   0.369   6.597  13.060 -0.3706  0.4407  0.4939
   60DOPE   H5X 7701   0.285   6.526  13.071 -1.2271  1.1794 -1.0219
   60DOPE   H5Y 7702   0.311   6.688  13.034 -1.2164  0.0938  1.1446
   60DOPE   C36 7703   0.450   6.619  13.186 -0.0510  0.2650 -0.7743
   60DOPE   H6X 7704   0.504   6.716  13.175  0.8626 -0.2412 -0.7961
   60DOPE   H6Y 7705   0.538   6.553  13.196  0.3146  0.9052  0.6364
   60DOPE   C37 7706   0.382   6.658  13.315  0.2119  0.3682 -1.2066
   60DOPE   H7X 7707   0.326   6.754  13.306 -0.0993  0.0869 -2.5831
   60DOPE   H7Y 7708   0.311   6.576  13.340  0.9864 -0.2114 -0.8766
   60DOPE   C38 7709   0.485   6.648  13.430  0.3347 -0.0462  0.2716
   60DOPE   H8X 7710   0.581   6.695  13.402  0.9140 -0.6123  1.2556
   60DOPE   H8Y 7711   0.526   6.545  13.427  1.8032  0.5566 -1.8244
   60DOPE   C39 7712   0.446   6.704  13.573  0.0819 -0.1769  1.2193
   60DOPE   H9X 7713   0.471   6.810  13.590  0.1252 -0.3837  2.6016
   60DOPE  C310 7714   0.383   6.638  13.666  0.4234  0.3223 -0.1437
   60DOPE  H10X 7715   0.383   6.695  13.760 -2.1192 -0.8064  0.6222
   60DOPE  C311 7716   0.349   6.487  13.672  0.2338 -0.1916  0.2527
   60DOPE  H11X 7717   0.240   6.466  13.682  0.5554 -2.0398  0.2400
   60DOPE  H11Y 7718   0.386   6.435  13.581 -1.4550  0.4183 -0.8291
   60DOPE  C312 7719   0.422   6.412  13.790  0.2255 -0.1479  0.0108
   60DOPE  H12X 7720   0.523   6.457  13.804  0.0514  0.4319 -0.5570
   60DOPE  H12Y 7721   0.440   6.308  13.755 -1.7129 -0.5233  0.0243
   60DOPE  C313 7722   0.336   6.405  13.920 -0.3367  0.8995 -0.0166
   60DOPE  H13X 7723   0.330   6.504  13.970  0.6207  0.9657 -0.0034
   60DOPE  H13Y 7724   0.236   6.366  13.891 -0.9904  1.4255  1.4196
   60DOPE  C314 7725   0.405   6.308  14.018  0.2978 -0.1797 -0.1459
   60DOPE  H14X 7726   0.504   6.356  14.036 -0.0685  0.0522  1.3861
   60DOPE  H14Y 7727   0.435   6.211  13.972  1.4600  0.4215 -0.7022
   60DOPE  C315 7728   0.325   6.283  14.141  0.6762 -0.3355 -0.0954
   60DOPE  H15X 7729   0.300   6.380  14.189 -2.7779 -0.6763 -0.9725
   60DOPE  H15Y 7730   0.393   6.241  14.218 -0.7154  2.0164  2.6184
   60DOPE  C316 7731   0.196   6.193  14.135  0.5203 -0.6525  0.0033
   60DOPE  H16X 7732   0.230   6.098  14.087  0.5549 -1.7329  2.0693
   60DOPE  H16Y 7733   0.121   6.244  14.070  0.9517 -1.9276 -1.5746
   60DOPE  C317 7734   0.142   6.172  14.275  0.3739 -0.1002  0.2805
   60DOPE  H17X 7735   0.210   6.097  14.320  0.1212  0.0111  0.8714
   60DOPE  H17Y 7736   0.151   6.259  14.344  2.6100 -0.3415  0.3658
   60DOPE  C318 7737  -0.002   6.122  14.276 -0.1055  0.8898 -0.3513
   60DOPE  H18X 7738  -0.002   6.020  14.233 -0.8620  0.9194 -0.4374
   60DOPE  H18Y 7739  -0.027   6.115  14.384  1.1026  4.0249  0.2504
   60DOPE  H18Z 7740  -0.067   6.195  14.224 -0.7001  0.2327 -0.5314
   6123SM     N 7741   2.841   4.421  17.677 -0.1827 -0.2359  0.0727
   6123SM   C15 7742   2.829   4.335  17.805  0.0276  0.7385  0.4105
   6123SM  H15A 7743   2.728   4.303  17.829  1.0517 -1.2882  2.3142
   6123SM  H15B 7744   2.870   4.380  17.893  0.8610 -2.4829  1.8326
   6123SM  H15C 7745   2.891   4.248  17.789 -1.8341 -0.3350 -1.7127
   6123SM   C14 7746   2.779   4.552  17.695 -0.7974 -0.7414 -0.4945
   6123SM  H14A 7747   2.829   4.610  17.771  0.1919  0.7084 -2.1730
   6123SM  H14B 7748   2.674   4.543  17.719 -0.2050 -0.6056  2.4129
   6123SM  H14C 7749   2.788   4.612  17.605 -0.3754 -0.7476 -0.4549
   6123SM   C13 7750   2.983   4.444  17.653  0.1169 -0.4036 -0.2169
   6123SM  H13A 7751   3.049   4.359  17.659  0.8761  0.1508 -0.5794
   6123SM  H13B 7752   3.034   4.518  17.714  2.0291  0.3969 -2.6196
   6123SM  H13C 7753   2.992   4.475  17.549  0.1509  1.0142  0.1835
   6123SM   C12 7754   2.783   4.343  17.551 -0.0606 -0.2418  0.1460
   6123SM  H12A 7755   2.686   4.303  17.576  0.1705 -2.2828 -1.9721
   6123SM  H12B 7756   2.847   4.258  17.532 -1.0459 -0.4349 -2.8375
   6123SM   C11 7757   2.769   4.423  17.413  0.1147 -0.1019 -0.5769
   6123SM  H11A 7758   2.718   4.521  17.426  0.3095 -0.0784  0.0360
   6123SM  H11B 7759   2.708   4.357  17.348 -0.9264  0.7304 -0.4654
   6123SM     P 7760   2.976   4.325  17.278 -0.2361 -0.2004  0.1665
   6123SM   O13 7761   3.096   4.387  17.210 -0.4475  0.0818 -0.5058
   6123SM   O14 7762   3.007   4.216  17.372 -0.0030 -0.0062  0.2562
   6123SM   O11 7763   2.882   4.270  17.168  0.1908 -0.5365  0.3380
   6123SM   O12 7764   2.901   4.440  17.351  0.5943  0.3923 -0.0821
   6123SM   C1S 7765   2.811   4.338  17.061 -0.6292  0.6308 -0.3902
   6123SM   H1S 7766   2.835   4.446  17.064  0.2559  0.4349  0.9019
   6123SM   H1T 7767   2.702   4.323  17.076 -0.1765 -1.5541  1.1763
   6123SM    NF 7768   2.800   4.367  16.820  0.0255  0.0572  0.6013
   6123SM   HNF 7769   2.722   4.330  16.771 -0.4030 -0.5343  1.6993
   6123SM   C2S 7770   2.866   4.289  16.923  0.2503  0.3283  0.2697
   6123SM   H2S 7771   2.975   4.303  16.912  0.2528 -0.2693 -0.5609
   6123SM   C3S 7772   2.834   4.135  16.916  0.3763  0.0651  0.1061
   6123SM   H3S 7773   2.724   4.118  16.918  0.5469 -1.0397  1.4292
   6123SM    O3 7774   2.889   4.059  17.023  0.3648  0.1074 -0.0393
   6123SM   HO3 7775   2.941   4.115  17.081 -1.6565 -1.2441  3.3639
   6123SM   C4S 7776   2.870   4.079  16.777 -0.7544 -0.3340 -0.8443
   6123SM   H4S 7777   2.776   4.079  16.719 -2.4402 -1.2624  1.7409
   6123SM   C5S 7778   2.995   4.048  16.725  0.7835 -0.2926  0.8609
   6123SM   H5S 7779   3.084   4.059  16.789 -0.2498 -1.5593  2.6003
   6123SM   C6S 7780   3.032   3.986  16.591  0.3939 -1.0897 -0.1658
   6123SM   H6S 7781   3.088   3.892  16.607 -2.1971 -2.3715  2.2142
   6123SM   H6T 7782   3.092   4.068  16.546  2.4445 -0.9788  2.4399
   6123SM   C7S 7783   2.919   3.950  16.489 -0.2744 -0.3907  0.1276
   6123SM   H7S 7784   2.854   4.039  16.481  0.0588  0.0359  1.7053
   6123SM   H7T 7785   2.868   3.862  16.535 -0.2520 -0.5733 -0.1951
   6123SM   C8S 7786   2.986   3.915  16.361  0.4426 -0.3529  0.3352
   6123SM   H8S 7787   3.051   3.826  16.373  1.1109  0.0226 -0.3798
   6123SM   H8T 7788   3.058   3.994  16.332 -1.4025  0.8785 -1.1178
   6123SM   C9S 7789   2.891   3.890  16.244 -0.4355  0.4425 -0.8287
   6123SM   H9S 7790   2.807   3.962  16.240 -0.4042  0.5122 -0.2713
   6123SM   H9T 7791   2.832   3.797  16.262 -1.1117  1.2791  1.6287
   6123SM  C10S 7792   2.967   3.890  16.109  0.4759  0.9716  0.3951
   6123SM  H10S 7793   3.017   3.792  16.094 -0.4845  0.3568  1.0894
   6123SM  H10T 7794   3.027   3.982  16.091  1.9287  0.1500  0.8971
   6123SM  C11S 7795   2.868   3.913  15.994 -0.9354  0.0828 -0.5571
   6123SM  H11S 7796   2.847   4.022  15.995  0.6796  0.4319 -1.1481
   6123SM  H11T 7797   2.778   3.848  16.002 -0.1736 -1.1246 -1.3932
   6123SM  C12S 7798   2.939   3.874  15.861  1.2648 -0.1372  0.1063
   6123SM  H12S 7799   2.963   3.765  15.862 -1.9190 -1.0766  4.0815
   6123SM  H12T 7800   3.028   3.935  15.838  0.3901  0.2694 -2.4743
   6123SM  C13S 7801   2.827   3.884  15.756 -0.2691  0.1311 -0.1704
   6123SM  H13S 7802   2.789   3.987  15.742  1.3196  0.4490 -2.7824
   6123SM  H13T 7803   2.744   3.821  15.795 -0.2444  1.4993  2.2357
   6123SM  C14S 7804   2.871   3.833  15.619  0.0195  0.0352  0.2627
   6123SM  H14S 7805   2.785   3.820  15.550  1.2025  2.6540 -1.8985
   6123SM  H14T 7806   2.913   3.731  15.628  2.2367  0.9662  1.0015
   6123SM  C15S 7807   2.964   3.925  15.550 -0.2575 -0.0603 -0.0071
   6123SM  H15S 7808   3.061   3.938  15.602 -0.3261 -0.2462  0.1681
   6123SM  H15T 7809   2.918   4.026  15.552 -0.4118 -0.0563 -1.7666
   6123SM  C16S 7810   2.976   3.889  15.401  0.0670  0.5535  0.7104
   6123SM  H16S 7811   3.035   3.970  15.353 -0.5976  0.4817 -0.2657
   6123SM  H16T 7812   2.877   3.888  15.350 -0.3142  1.1836  1.4170
   6123SM  C17S 7813   3.045   3.750  15.367 -0.5986  0.1148  0.2957
   6123SM  H17S 7814   2.988   3.665  15.409  1.9791 -0.8264  2.1682
   6123SM  H17T 7815   3.139   3.749  15.426 -1.7161 -3.1327  2.2711
   6123SM  C18S 7816   3.068   3.720  15.216 -0.1567 -0.0643 -0.2218
   6123SM  H18S 7817   2.971   3.731  15.163 -1.2564  1.7210  1.9717
   6123SM  H18T 7818   3.118   3.623  15.197  0.2728  0.0914  0.0847
   6123SM  H18U 7819   3.134   3.802  15.180  0.4861  0.2586  1.5507
   6123SM   C1F 7820   2.819   4.495  16.800  0.0036  0.1183 -0.0343
   6123SM    OF 7821   2.912   4.550  16.863 -0.1007  0.2883 -0.7697
   6123SM   C2F 7822   2.744   4.561  16.692  0.4376 -0.2974 -1.0090
   6123SM   H2F 7823   2.634   4.569  16.697  0.2561 -2.3945 -0.5223
   6123SM   H2G 7824   2.751   4.494  16.604 -1.1574 -2.5233  0.4467
   6123SM   C3F 7825   2.813   4.696  16.646 -0.0060  0.9628  0.3717
   6123SM   H3F 7826   2.921   4.674  16.638 -0.4838 -1.4530 -0.4088
   6123SM   H3G 7827   2.797   4.779  16.717  0.0235 -0.0400  1.5793
   6123SM   C4F 7828   2.762   4.727  16.502  0.2999 -0.1196 -0.1939
   6123SM   H4F 7829   2.653   4.744  16.510  0.2353 -0.4053 -0.4492
   6123SM   H4G 7830   2.789   4.643  16.434 -0.9888  0.5700 -1.6140
   6123SM   C5F 7831   2.837   4.847  16.430 -0.6071  0.3097  0.8095
   6123SM   H5F 7832   2.946   4.836  16.417 -0.3838  3.5534 -1.3175
   6123SM   H5G 7833   2.810   4.936  16.490 -0.8416  2.2608 -1.9580
   6123SM   C6F 7834   2.785   4.877  16.288 -0.2607 -0.3312  0.3018
   6123SM   H6F 7835   2.844   4.960  16.243  0.1590 -1.3755 -1.1617
   6123SM   H6G 7836   2.676   4.897  16.295  0.0154  0.7244  5.0656
   6123SM   C7F 7837   2.821   4.764  16.185  0.0854 -0.4180 -0.7808
   6123SM   H7F 7838   2.733   4.696  16.181 -0.1450 -0.3033  1.0837
   6123SM   H7G 7839   2.900   4.703  16.233 -0.5430  0.3332  1.3235
   6123SM   C8F 7840   2.847   4.833  16.048 -0.2219  0.3593  0.0657
   6123SM   H8F 7841   2.944   4.885  16.064 -0.2828  0.4763  0.0557
   6123SM   H8G 7842   2.775   4.917  16.035 -1.1203 -0.3346  0.3970
   6123SM   C9F 7843   2.850   4.737  15.928  0.6737 -0.4899  0.2984
   6123SM   H9F 7844   2.747   4.704  15.902  0.5766  0.7988 -1.1395
   6123SM   H9G 7845   2.908   4.646  15.952  0.7783 -1.1057 -1.9922
   6123SM  C10F 7846   2.914   4.801  15.805 -0.5852 -0.4746  0.3136
   6123SM  H10F 7847   3.017   4.842  15.815 -0.9922  1.3832 -2.0295
   6123SM  H10G 7848   2.853   4.882  15.761 -0.1468 -1.1177 -1.5829
   6123SM  C11F 7849   2.940   4.700  15.693  0.3358 -0.3421  0.1663
   6123SM  H11F 7850   2.845   4.643  15.686 -0.6904  1.3930 -0.7285
   6123SM  H11G 7851   3.021   4.631  15.724  2.0083  0.7266 -1.6305
   6123SM  C12F 7852   2.955   4.756  15.552  0.4694 -0.8423 -0.3840
   6123SM  H12F 7853   3.055   4.803  15.550 -0.2376  0.7782  0.3282
   6123SM  H12G 7854   2.886   4.843  15.540 -0.8426 -1.3861  2.4246
   6123SM  C13F 7855   2.953   4.653  15.430 -0.2839  0.3386 -0.3430
   6123SM  H13F 7856   2.863   4.589  15.439 -0.0529 -0.0825 -1.0040
   6123SM  H13G 7857   3.052   4.604  15.420 -0.8226 -0.6998 -0.6838
   6123SM  C14F 7858   2.932   4.731  15.299 -0.4083  0.1745 -0.5383
   6123SM  H14F 7859   3.014   4.806  15.291 -0.0271 -0.3288 -1.4089
   6123SM  H14G 7860   2.834   4.783  15.288 -2.3876 -2.9312  1.0697
   6123SM  C15F 7861   2.934   4.632  15.184  0.0818 -0.1464  0.0381
   6123SM  H15F 7862   2.860   4.556  15.216  0.5444 -0.8761 -0.6111
   6123SM  H15G 7863   3.029   4.577  15.170  0.4492  0.2175  0.9837
   6123SM  C16F 7864   2.884   4.690  15.054 -0.1836 -0.0767  0.2152
   6123SM  H16F 7865   2.955   4.769  15.021 -1.7381  1.2629 -0.0504
   6123SM  H16G 7866   2.786   4.737  15.075 -0.7659 -0.0026 -2.3367
   6123SM  C17F 7867   2.847   4.586  14.957 -0.3045  0.5991  0.3675
   6123SM  H17F 7868   2.777   4.510  14.998  2.1631 -1.1443  1.5668
   6123SM  H17G 7869   2.935   4.532  14.917 -0.2345  1.1019 -0.1755
   6123SM  C18F 7870   2.816   4.645  14.817  0.0563 -0.1028 -0.7180
   6123SM  H18F 7871   2.799   4.577  14.731 -1.0639 -0.4464 -0.2419
   6123SM  H18G 7872   2.900   4.715  14.799  0.8643  0.1176  3.0916
   6123SM  C19F 7873   2.692   4.733  14.830  0.1492 -0.4706 -0.4555
   6123SM  H19F 7874   2.718   4.822  14.891 -1.8350 -0.7181  0.8552
   6123SM  H19G 7875   2.616   4.678  14.890 -1.7866  3.6675  1.3079
   6123SM  C20F 7876   2.625   4.772  14.693  0.2177 -0.5907 -0.2287
   6123SM  H20F 7877   2.517   4.797  14.707  0.7802  3.0998 -1.5302
   6123SM  H20G 7878   2.639   4.679  14.634  5.1866  0.5005 -1.1474
   6123SM  C21F 7879   2.699   4.887  14.617  0.3420  0.0940 -0.6094
   6123SM  H21F 7880   2.799   4.859  14.579  0.8886  1.8826 -0.6002
   6123SM  H21G 7881   2.721   4.963  14.695 -0.9580 -0.5134  0.3957
   6123SM  C22F 7882   2.629   4.956  14.507 -0.3272 -0.2886  0.7323
   6123SM  H22F 7883   2.678   5.051  14.476  0.5776 -0.7905  0.5996
   6123SM  H22G 7884   2.534   4.999  14.545 -0.9463 -1.1785  0.2400
   6123SM  C23F 7885   2.618   4.871  14.384  0.4735  0.6864 -0.1797
   6123SM  H23F 7886   2.530   4.806  14.400 -0.5389  1.8703 -0.8164
   6123SM  H23G 7887   2.708   4.809  14.363 -1.3156 -1.6517 -1.4252
   6123SM  H23H 7888   2.588   4.921  14.290  0.5975 -0.3712 -0.8013
   6223SM     N 7889   3.016   2.591  17.527 -0.4127 -0.0713 -0.1595
   6223SM   C15 7890   2.991   2.689  17.635 -0.5245 -0.0354 -0.2705
   6223SM  H15A 7891   2.941   2.777  17.599  1.6007  1.5322  0.4003
   6223SM  H15B 7892   3.085   2.724  17.674 -0.9155 -0.7423  1.3775
   6223SM  H15C 7893   2.940   2.644  17.719  0.7903 -0.2048  0.4707
   6223SM   C14 7894   3.095   2.479  17.584 -0.0463  0.1112  0.8280
   6223SM  H14A 7895   3.117   2.400  17.514  0.8949  0.1768  1.0374
   6223SM  H14B 7896   3.039   2.424  17.658 -1.3323 -0.9115 -0.8318
   6223SM  H14C 7897   3.185   2.508  17.635  0.2796 -2.0034  1.5495
   6223SM   C13 7898   2.882   2.541  17.483 -0.1472  0.0819  0.0185
   6223SM  H13A 7899   2.839   2.485  17.565  1.9462 -0.0878  1.0502
   6223SM  H13B 7900   2.901   2.467  17.406  0.3367  1.8836 -1.6709
   6223SM  H13C 7901   2.817   2.619  17.447  1.4972 -0.1778 -4.1105
   6223SM   C12 7902   3.084   2.657  17.407  1.0033  0.4851  0.3157
   6223SM  H12A 7903   3.008   2.724  17.372 -0.6786 -1.1396  0.6779
   6223SM  H12B 7904   3.090   2.585  17.327  0.4164  0.5546  0.2102
   6223SM   C11 7905   3.222   2.720  17.429 -0.0572 -0.4056  0.8707
   6223SM  H11A 7906   3.258   2.744  17.326 -1.3008  1.6907  0.8669
   6223SM  H11B 7907   3.288   2.641  17.469 -1.1147 -1.2428  0.9932
   6223SM     P 7908   3.169   2.980  17.460 -0.0979  0.1680  0.3057
   6223SM   O13 7909   3.021   2.972  17.466 -0.0728  0.8038  0.2596
   6223SM   O14 7910   3.240   3.074  17.545  0.8285 -0.0699  0.4180
   6223SM   O11 7911   3.211   2.995  17.305  0.6383  0.3962 -0.1014
   6223SM   O12 7912   3.221   2.837  17.507  0.1519 -0.0171  0.0976
   6223SM   C1S 7913   3.170   3.112  17.241 -0.5051 -1.6362  0.6920
   6223SM   H1S 7914   3.252   3.188  17.245 -1.1270 -0.8928 -0.1869
   6223SM   H1T 7915   3.078   3.153  17.287 -1.0058 -1.7521 -0.1795
   6223SM    NF 7916   3.117   3.219  17.026  0.0187  0.3009  0.1715
   6223SM   HNF 7917   3.023   3.250  17.016  0.4746  1.8378  0.3648
   6223SM   C2S 7918   3.148   3.091  17.088  0.1205  0.6407 -0.2312
   6223SM   H2S 7919   3.233   3.041  17.036  0.0139  0.7772 -0.5361
   6223SM   C3S 7920   3.032   2.981  17.077 -0.7954  0.2355 -0.3855
   6223SM   H3S 7921   2.949   3.006  17.147  0.9245  1.2314  1.3982
   6223SM    O3 7922   3.057   2.843  17.116 -0.1365 -0.2259  0.1156
   6223SM   HO3 7923   3.146   2.841  17.152  0.5165  1.6025 -1.2206
   6223SM   C4S 7924   2.973   2.983  16.935 -0.8668 -0.3245 -0.7838
   6223SM   H4S 7925   2.914   3.075  16.922 -0.0268  0.1652 -1.1823
   6223SM   C5S 7926   2.992   2.899  16.833 -1.2507 -0.3617 -0.1958
   6223SM   H5S 7927   3.076   2.830  16.853 -0.1840  1.4622  2.2329
   6223SM   C6S 7928   2.952   2.905  16.686  0.3114 -0.3340 -0.9296
   6223SM   H6S 7929   2.871   2.831  16.671  0.5827 -0.3236 -2.6495
   6223SM   H6T 7930   3.045   2.874  16.634 -0.2301 -0.0047 -2.1300
   6223SM   C7S 7931   2.898   3.033  16.634  0.0363 -0.1662  0.5059
   6223SM   H7S 7932   2.965   3.118  16.657 -0.0601 -0.1678  0.8001
   6223SM   H7T 7933   2.797   3.050  16.678 -1.2729 -3.4712 -0.8698
   6223SM   C8S 7934   2.854   3.030  16.481  0.0297 -0.1923  0.0924
   6223SM   H8S 7935   2.787   3.118  16.475  0.5249  0.3410  1.7070
   6223SM   H8T 7936   2.795   2.938  16.460  0.5822 -0.5228 -0.0334
   6223SM   C9S 7937   2.968   3.046  16.379 -0.1103 -0.3645  0.3310
   6223SM   H9S 7938   3.047   2.971  16.396  0.2022 -0.4579 -1.3810
   6223SM   H9T 7939   3.011   3.142  16.415  0.2398 -1.1553  2.0849
   6223SM  C10S 7940   2.934   3.062  16.232 -0.7891  0.1457  0.1938
   6223SM  H10S 7941   3.017   3.122  16.188 -2.0370  1.0799 -0.9718
   6223SM  H10T 7942   2.840   3.114  16.204 -0.7585  1.8880  2.8989
   6223SM  C11S 7943   2.934   2.923  16.168 -0.5106 -0.2763 -0.3859
   6223SM  H11S 7944   2.860   2.862  16.223 -0.1217  1.7807  2.6632
   6223SM  H11T 7945   3.038   2.887  16.183 -0.0983  0.3899 -1.4966
   6223SM  C12S 7946   2.898   2.943  16.024  0.2214 -0.1228 -0.4622
   6223SM  H12S 7947   2.794   2.980  16.019 -0.1576 -1.1495 -0.4754
   6223SM  H12T 7948   2.888   2.838  15.990 -2.2352 -0.2010  0.3694
   6223SM  C13S 7949   2.988   3.018  15.924  0.0893 -0.3099 -0.0611
   6223SM  H13S 7950   3.090   2.975  15.918  0.7139  1.1721 -0.6214
   6223SM  H13T 7951   3.000   3.128  15.938  1.0441 -0.5193  0.9348
   6223SM  C14S 7952   2.937   2.988  15.779 -0.8726 -0.0936  0.3405
   6223SM  H14S 7953   2.827   2.998  15.793 -0.6405  0.2623  2.1251
   6223SM  H14T 7954   2.967   2.886  15.747  0.5465 -0.1177  1.6379
   6223SM  C15S 7955   2.984   3.094  15.678 -0.1439 -0.2582 -0.8013
   6223SM  H15S 7956   3.092   3.092  15.652 -0.6326 -1.9414 -2.9455
   6223SM  H15T 7957   2.967   3.194  15.723  0.9083 -0.0171 -0.9236
   6223SM  C16S 7958   2.913   3.099  15.543 -0.0333  0.6165 -0.4114
   6223SM  H16S 7959   2.947   3.193  15.495  1.0305  0.8620  0.7728
   6223SM  H16T 7960   2.806   3.103  15.571  0.0455  1.7562 -0.2297
   6223SM  C17S 7961   2.943   2.980  15.452 -0.4058 -0.2053  0.2991
   6223SM  H17S 7962   2.930   2.885  15.508 -0.1065  0.3233  1.2770
   6223SM  H17T 7963   3.049   2.990  15.422 -0.8709  0.2115 -1.3099
   6223SM  C18S 7964   2.859   2.976  15.324 -0.7781  0.1910 -0.9551
   6223SM  H18S 7965   2.883   3.066  15.264 -3.0344  0.4139 -1.5905
   6223SM  H18T 7966   2.752   2.976  15.354 -0.6961 -2.4519 -0.4131
   6223SM  H18U 7967   2.875   2.886  15.261  3.5554  0.3051 -0.3312
   6223SM   C1F 7968   3.223   3.301  17.014  0.4631 -0.8549  0.0823
   6223SM    OF 7969   3.333   3.277  17.053  0.6443 -0.1049 -0.0168
   6223SM   C2F 7970   3.204   3.444  16.945  0.4790 -0.4660 -0.3541
   6223SM   H2F 7971   3.307   3.473  16.915  0.5620 -0.2596  0.1072
   6223SM   H2G 7972   3.155   3.510  17.020 -0.7613 -0.4788 -1.1319
   6223SM   C3F 7973   3.107   3.435  16.824  0.0167  0.5292 -0.0448
   6223SM   H3F 7974   3.005   3.401  16.851 -0.0119  1.9099  1.7743
   6223SM   H3G 7975   3.155   3.360  16.757  2.1539  1.2711  0.5543
   6223SM   C4F 7976   3.091   3.575  16.764 -0.7792 -0.9110  0.3960
   6223SM   H4F 7977   3.192   3.619  16.753 -1.1737  0.2245  1.1632
   6223SM   H4G 7978   3.034   3.642  16.832 -0.7147  0.1350 -0.5548
   6223SM   C5F 7979   3.033   3.567  16.627 -0.2188  0.3924 -0.2360
   6223SM   H5F 7980   3.020   3.662  16.571 -1.5587 -0.9064 -2.2751
   6223SM   H5G 7981   2.937   3.513  16.615 -0.5710  1.3305 -1.8774
   6223SM   C6F 7982   3.123   3.495  16.525 -0.0780  0.6221 -0.3151
   6223SM   H6F 7983   3.146   3.390  16.553 -0.6528  1.0045  1.7681
   6223SM   H6G 7984   3.221   3.546  16.522 -0.6690  1.7466 -1.2767
   6223SM   C7F 7985   3.073   3.491  16.375 -0.3298  0.2947  0.2979
   6223SM   H7F 7986   3.031   3.590  16.347 -2.5884 -0.7194 -0.0822
   6223SM   H7G 7987   2.982   3.429  16.365  0.1715 -0.5257  0.7548
   6223SM   C8F 7988   3.176   3.436  16.278  0.1078  1.4426 -0.1719
   6223SM   H8F 7989   3.178   3.325  16.282  2.6501  1.4613  2.0292
   6223SM   H8G 7990   3.279   3.468  16.305  0.9352  0.3949 -1.9872
   6223SM   C9F 7991   3.141   3.464  16.127 -0.2555 -0.7697 -0.6360
   6223SM   H9F 7992   3.163   3.571  16.107  1.4364 -0.9591  0.0277
   6223SM   H9G 7993   3.032   3.445  16.111 -0.4673 -1.2944  1.1621
   6223SM  C10F 7994   3.218   3.373  16.026  0.3303 -0.2212  0.3832
   6223SM  H10F 7995   3.208   3.267  16.060 -1.0525 -0.2040  0.0877
   6223SM  H10G 7996   3.324   3.401  16.044  0.0454  1.0222  0.1774
   6223SM  C11F 7997   3.167   3.393  15.884 -0.0537 -0.3369 -0.2274
   6223SM  H11F 7998   3.144   3.502  15.874 -0.3606 -0.3209  0.5541
   6223SM  H11G 7999   3.074   3.334  15.871 -1.2418  1.6916 -1.6164
   6223SM  C12F 8000   3.276   3.362  15.780 -0.3136 -0.5626  0.0646
   6223SM  H12F 8001   3.299   3.255  15.793 -1.2677 -0.6323  1.5002
   6223SM  H12G 8002   3.378   3.403  15.791  0.2547 -1.6351 -1.0631
   6223SM  C13F 8003   3.229   3.394  15.642  0.1843  0.3111  0.4648
   6223SM  H13F 8004   3.206   3.503  15.643 -2.2308  0.0059 -2.9015
   6223SM  H13G 8005   3.141   3.332  15.616 -1.2116  2.6115 -0.6390
   6223SM  C14F 8006   3.341   3.375  15.541  0.7239 -0.0299  0.0611
   6223SM  H14F 8007   3.377   3.270  15.537  1.4954  0.2590 -1.0317
   6223SM  H14G 8008   3.425   3.446  15.557 -0.6591  1.2303  2.2726
   6223SM  C15F 8009   3.294   3.401  15.396  0.3465  0.3725  0.0329
   6223SM  H15F 8010   3.389   3.385  15.342  1.7774 -1.9336  2.9111
   6223SM  H15G 8011   3.260   3.506  15.391  2.5585  1.4019  3.3032
   6223SM  C16F 8012   3.188   3.309  15.341 -0.3917 -0.0287 -0.2118
   6223SM  H16F 8013   3.098   3.311  15.407 -0.4076 -2.1697 -0.0774
   6223SM  H16G 8014   3.224   3.204  15.339  0.5331  0.2769  0.0212
   6223SM  C17F 8015   3.145   3.342  15.196 -0.3491  0.4181  0.0238
   6223SM  H17F 8016   3.077   3.430  15.195 -1.3320 -0.3275  0.2796
   6223SM  H17G 8017   3.100   3.245  15.168 -3.3308  1.7346 -0.0643
   6223SM  C18F 8018   3.259   3.373  15.093 -0.3170 -0.5585 -0.5053
   6223SM  H18F 8019   3.333   3.291  15.092  0.3789  0.0376  0.4592
   6223SM  H18G 8020   3.307   3.465  15.131  1.0043 -2.8068  4.0035
   6223SM  C19F 8021   3.196   3.390  14.954 -0.0371 -0.2156  0.1444
   6223SM  H19F 8022   3.113   3.463  14.954 -0.3624 -0.5623 -1.3585
   6223SM  H19G 8023   3.143   3.297  14.925  0.9329 -0.3084 -1.4366
   6223SM  C20F 8024   3.308   3.409  14.852  0.2985 -0.0775  0.3368
   6223SM  H20F 8025   3.382   3.327  14.867  0.1207 -0.5606 -1.3068
   6223SM  H20G 8026   3.359   3.504  14.876 -0.3651 -0.2684  2.8532
   6223SM  C21F 8027   3.260   3.421  14.705 -0.5706 -0.2442 -0.3888
   6223SM  H21F 8028   3.196   3.509  14.680 -0.0104  0.2276 -0.1724
   6223SM  H21G 8029   3.196   3.332  14.686 -1.9775  0.0863  2.2042
   6223SM  C22F 8030   3.380   3.438  14.615  0.1908  0.2258  0.0871
   6223SM  H22F 8031   3.434   3.343  14.596 -1.2557 -0.1421 -2.8134
   6223SM  H22G 8032   3.444   3.514  14.664 -1.9464  2.4420 -0.3624
   6223SM  C23F 8033   3.353   3.486  14.472  0.2898  0.7123 -0.2771
   6223SM  H23F 8034   3.441   3.490  14.405  1.7128  0.1870  1.4680
   6223SM  H23G 8035   3.307   3.587  14.480  0.3661  0.8001 -0.9492
   6223SM  H23H 8036   3.283   3.420  14.416  1.0498  0.2474 -0.7006
   6323SM     N 8037   2.979   5.579  17.003 -0.1964  0.5963 -0.1862
   6323SM   C15 8038   2.842   5.557  17.036  0.6633  1.1460  0.5387
   6323SM  H15A 8039   2.831   5.457  17.075 -0.0800  1.6700  1.7100
   6323SM  H15B 8040   2.794   5.580  16.942  0.9924  1.3457  0.4154
   6323SM  H15C 8041   2.810   5.628  17.110  1.6049 -0.6538  2.8000
   6323SM   C14 8042   3.012   5.727  16.982 -0.2954  0.2522 -0.1668
   6323SM  H14A 8043   2.940   5.775  16.917  0.8133 -0.5137 -2.0523
   6323SM  H14B 8044   3.110   5.723  16.935 -0.1233 -0.0760  0.2144
   6323SM  H14C 8045   3.020   5.777  17.077  0.0925  0.7222 -0.4405
   6323SM   C13 8046   3.068   5.525  17.113 -0.0432 -0.3677  0.4258
   6323SM  H13A 8047   3.054   5.419  17.130  1.0733 -0.2929  2.1229
   6323SM  H13B 8048   3.044   5.577  17.205  0.8441 -1.8286  1.5168
   6323SM  H13C 8049   3.174   5.538  17.093 -0.5190 -1.4785 -3.7247
   6323SM   C12 8050   3.008   5.492  16.876 -0.7565  0.0247  0.2569
   6323SM  H12A 8051   2.937   5.506  16.796 -0.1743 -0.4720 -0.3579
   6323SM  H12B 8052   2.990   5.390  16.907  0.7899 -0.0585  0.9726
   6323SM   C11 8053   3.153   5.468  16.821  0.0953  0.5217 -0.2946
   6323SM  H11A 8054   3.209   5.563  16.804 -0.1918  0.7284 -0.0932
   6323SM  H11B 8055   3.158   5.426  16.718  2.8772 -1.1471  0.4118
   6323SM     P 8056   3.200   5.234  16.938 -0.2328  0.3818 -0.1447
   6323SM   O13 8057   3.325   5.183  16.997 -0.2675  0.6800 -0.5302
   6323SM   O14 8058   3.086   5.219  17.029  0.2154  0.9024 -0.2942
   6323SM   O11 8059   3.173   5.185  16.785  0.1235  0.0058 -0.4898
   6323SM   O12 8060   3.228   5.383  16.909 -0.3910  0.7991 -0.7473
   6323SM   C1S 8061   3.297   5.165  16.708  0.3165 -0.3462 -0.3598
   6323SM   H1S 8062   3.368   5.095  16.758 -0.5289 -0.6591  0.4255
   6323SM   H1T 8063   3.359   5.255  16.689  0.9208 -0.7836 -0.5166
   6323SM    NF 8064   3.389   5.068  16.490 -0.2444  0.0145 -0.1938
   6323SM   HNF 8065   3.426   5.125  16.417  2.8343 -3.3717 -1.6124
   6323SM   C2S 8066   3.273   5.112  16.563 -0.2607  0.5868 -0.7801
   6323SM   H2S 8067   3.218   5.016  16.571 -0.8998  0.6222 -3.6424
   6323SM   C3S 8068   3.192   5.217  16.483 -0.0377  0.1174  0.3740
   6323SM   H3S 8069   3.255   5.309  16.487  1.2683 -0.6564 -1.1982
   6323SM    O3 8070   3.065   5.253  16.533  0.2149  0.3945  0.6268
   6323SM   HO3 8071   3.070   5.224  16.624  0.8682  2.3941  1.2727
   6323SM   C4S 8072   3.164   5.158  16.354  0.6310  0.0334 -0.3893
   6323SM   H4S 8073   3.094   5.073  16.354  0.2954  0.3092  0.0360
   6323SM   C5S 8074   3.215   5.192  16.236  0.4180  0.5696  0.4320
   6323SM   H5S 8075   3.290   5.272  16.228  0.9606  0.0138 -0.1286
   6323SM   C6S 8076   3.182   5.130  16.100  0.3699  0.2719 -0.3871
   6323SM   H6S 8077   3.194   5.210  16.024 -1.3210  1.3461  0.4073
   6323SM   H6T 8078   3.078   5.096  16.083 -0.1187  2.7023 -3.1843
   6323SM   C7S 8079   3.294   5.029  16.083 -0.1984 -0.1924  0.4168
   6323SM   H7S 8080   3.294   4.964  16.173  0.5273 -1.4105 -0.4275
   6323SM   H7T 8081   3.390   5.081  16.067  0.0910 -0.5228  1.0318
   6323SM   C8S 8082   3.268   4.923  15.968 -0.5518 -0.1160 -0.7469
   6323SM   H8S 8083   3.159   4.901  15.969 -0.5874  0.0729 -0.5245
   6323SM   H8T 8084   3.331   4.833  15.989  1.0197  1.3592  1.1332
   6323SM   C9S 8085   3.312   4.966  15.831 -0.0804 -0.0272  0.6952
   6323SM   H9S 8086   3.414   5.007  15.847 -0.0062 -0.4788  1.4518
   6323SM   H9T 8087   3.232   5.037  15.803  1.3675  2.0543  1.5801
   6323SM  C10S 8088   3.314   4.854  15.726  1.0960 -0.1644 -0.2254
   6323SM  H10S 8089   3.218   4.798  15.714  0.5360  1.0211 -1.7171
   6323SM  H10T 8090   3.402   4.787  15.733 -2.1487 -4.7043  1.7366
   6323SM  C11S 8091   3.335   4.924  15.591 -0.3389  0.3036 -0.0715
   6323SM  H11S 8092   3.427   4.984  15.604 -0.8536  0.7918  1.5646
   6323SM  H11T 8093   3.248   4.987  15.561 -0.7251 -0.5554 -0.7838
   6323SM  C12S 8094   3.363   4.816  15.491  0.1449  0.3663  0.6134
   6323SM  H12S 8095   3.276   4.749  15.475  0.0013  1.3459 -4.1559
   6323SM  H12T 8096   3.454   4.759  15.519 -0.9295 -1.7747 -0.0878
   6323SM  C13S 8097   3.396   4.882  15.353 -0.0225 -0.4064  0.3863
   6323SM  H13S 8098   3.490   4.942  15.361 -0.0700 -0.5188  2.0907
   6323SM  H13T 8099   3.314   4.950  15.325  0.0370 -1.1886 -1.9044
   6323SM  C14S 8100   3.406   4.791  15.231  0.3946  0.1310 -0.2643
   6323SM  H14S 8101   3.315   4.729  15.216  1.0720 -0.3359 -3.2093
   6323SM  H14T 8102   3.486   4.714  15.240  0.8695  0.4765 -1.3383
   6323SM  C15S 8103   3.434   4.871  15.108 -0.0298  0.5357  0.3228
   6323SM  H15S 8104   3.526   4.924  15.140  1.6647 -2.8765  1.5493
   6323SM  H15T 8105   3.346   4.931  15.078 -1.0319 -0.8198  0.4517
   6323SM  C16S 8106   3.469   4.784  14.985  0.0572 -0.1750 -0.1009
   6323SM  H16S 8107   3.579   4.768  14.987  0.0848 -0.5617  4.0576
   6323SM  H16T 8108   3.460   4.846  14.893  1.8774  1.6747  0.9036
   6323SM  C17S 8109   3.389   4.654  14.965  0.4688 -0.8007  0.2515
   6323SM  H17S 8110   3.389   4.597  15.061 -0.4228 -0.5587  0.4029
   6323SM  H17T 8111   3.444   4.599  14.887 -2.0680  0.1443 -2.3615
   6323SM  C18S 8112   3.243   4.680  14.927 -0.5927 -0.0994 -0.3379
   6323SM  H18S 8113   3.188   4.588  14.898 -0.0597 -0.6101  0.2440
   6323SM  H18T 8114   3.239   4.733  14.830 -0.9637 -0.7189 -0.6680
   6323SM  H18U 8115   3.194   4.743  15.004  2.3305  0.1060  1.5295
   6323SM   C1F 8116   3.448   4.950  16.516 -1.2815  0.3480 -0.3271
   6323SM    OF 8117   3.412   4.885  16.608  0.0152  0.3145 -0.2732
   6323SM   C2F 8118   3.564   4.909  16.428  0.6235 -0.8116  0.3154
   6323SM   H2F 8119   3.657   4.926  16.486  0.0444 -0.5811  1.1903
   6323SM   H2G 8120   3.561   4.981  16.342 -1.3741  0.5064  1.3918
   6323SM   C3F 8121   3.545   4.762  16.365 -0.1799  0.1176 -0.3088
   6323SM   H3F 8122   3.441   4.748  16.327 -0.7876 -1.8705  1.8081
   6323SM   H3G 8123   3.562   4.693  16.451 -2.0428  0.5438  0.4522
   6323SM   C4F 8124   3.658   4.721  16.268 -0.4195 -0.7716  0.4517
   6323SM   H4F 8125   3.666   4.611  16.268 -2.6677 -0.9926 -1.8049
   6323SM   H4G 8126   3.754   4.773  16.292 -1.2467  3.2655 -3.5784
   6323SM   C5F 8127   3.625   4.767  16.126  0.6647  0.1049  0.7457
   6323SM   H5F 8128   3.649   4.875  16.118  1.6985 -0.0711  1.2602
   6323SM   H5G 8129   3.521   4.743  16.097  1.8232 -1.8503 -2.1783
   6323SM   C6F 8130   3.715   4.687  16.025 -0.3313 -0.2268 -0.6130
   6323SM   H6F 8131   3.705   4.581  16.058  1.0405 -0.8400 -2.0669
   6323SM   H6G 8132   3.819   4.724  16.034 -0.8866  1.5592 -1.2893
   6323SM   C7F 8133   3.663   4.698  15.884  0.4743  0.7639 -0.3900
   6323SM   H7F 8134   3.658   4.806  15.858 -2.2386  0.6250 -0.7009
   6323SM   H7G 8135   3.558   4.662  15.881  0.2071  1.5283 -0.3904
   6323SM   C8F 8136   3.734   4.614  15.780 -0.1388 -0.2567  0.3858
   6323SM   H8F 8137   3.720   4.509  15.815 -1.2668 -0.9449 -1.9388
   6323SM   H8G 8138   3.841   4.644  15.779 -0.2396  0.3779  2.7505
   6323SM   C9F 8139   3.672   4.617  15.639 -0.2080  0.3332 -0.2803
   6323SM   H9F 8140   3.690   4.712  15.584  0.9113  0.0992 -0.3340
   6323SM   H9G 8141   3.562   4.600  15.635 -0.1911 -0.1083  0.8100
   6323SM  C10F 8142   3.743   4.510  15.554  0.0521 -0.4574 -0.1625
   6323SM  H10F 8143   3.706   4.409  15.580  0.0802 -0.4770 -0.1997
   6323SM  H10G 8144   3.851   4.514  15.579 -0.0701  1.7500  0.2408
   6323SM  C11F 8145   3.721   4.529  15.404 -0.0112  0.4989 -0.1232
   6323SM  H11F 8146   3.796   4.601  15.365  0.8259  0.5221  1.4409
   6323SM  H11G 8147   3.621   4.574  15.388 -0.4770  0.7244  2.8726
   6323SM  C12F 8148   3.741   4.410  15.315  0.2521 -0.3377  0.6426
   6323SM  H12F 8149   3.678   4.333  15.366  1.4818 -1.4322  0.5729
   6323SM  H12G 8150   3.850   4.386  15.321  0.5567  1.0709  1.0017
   6323SM  C13F 8151   3.683   4.434  15.176 -0.5122 -0.0832 -0.7792
   6323SM  H13F 8152   3.735   4.519  15.129  0.3206 -0.8098 -1.2017
   6323SM  H13G 8153   3.580   4.473  15.187 -0.2206  0.4206  0.4262
   6323SM  C14F 8154   3.705   4.310  15.091  1.2603 -1.0180  0.2053
   6323SM  H14F 8155   3.656   4.225  15.144  3.4474 -1.0682  2.3159
   6323SM  H14G 8156   3.808   4.279  15.063 -0.2365 -2.7577 -4.3331
   6323SM  C15F 8157   3.644   4.331  14.941 -0.1208 -0.5361  0.3820
   6323SM  H15F 8158   3.546   4.380  14.959 -1.4431 -1.8950 -2.4937
   6323SM  H15G 8159   3.627   4.229  14.902  1.4829 -0.6355 -0.1385
   6323SM  C16F 8160   3.733   4.416  14.848 -0.7226 -0.1000 -0.4602
   6323SM  H16F 8161   3.830   4.364  14.833  0.2863  1.5474  0.0500
   6323SM  H16G 8162   3.762   4.515  14.891 -2.7595  0.0272  0.7418
   6323SM  C17F 8163   3.672   4.446  14.714  0.4038  0.3993  0.5668
   6323SM  H17F 8164   3.749   4.496  14.652 -1.1360  0.5575 -1.3167
   6323SM  H17G 8165   3.579   4.506  14.729  0.6146  0.7269  0.5799
   6323SM  C18F 8166   3.628   4.313  14.639 -0.1367  0.3156 -1.0235
   6323SM  H18F 8167   3.582   4.349  14.545  1.0721  1.9644 -1.0194
   6323SM  H18G 8168   3.549   4.265  14.702  1.6150 -0.2290  0.8751
   6323SM  C19F 8169   3.733   4.209  14.607  0.4623 -0.2006 -0.2061
   6323SM  H19F 8170   3.685   4.133  14.541  1.2713 -0.3870 -0.5937
   6323SM  H19G 8171   3.762   4.147  14.695 -1.1847 -2.3814 -1.0970
   6323SM  C20F 8172   3.852   4.255  14.529  0.7585 -0.0176  0.7100
   6323SM  H20F 8173   3.914   4.314  14.601 -0.5575  0.6562  1.3300
   6323SM  H20G 8174   3.826   4.322  14.444  2.4652 -0.0842  0.0951
   6323SM  C21F 8175   3.937   4.137  14.480  1.0130 -0.3510  0.1690
   6323SM  H21F 8176   4.014   4.157  14.401 -0.5277 -1.3695 -1.6780
   6323SM  H21G 8177   3.869   4.064  14.431  0.1909  0.3831  0.1958
   6323SM  C22F 8178   4.018   4.065  14.586  0.3276 -0.7198  0.2633
   6323SM  H22F 8179   3.946   4.024  14.661  0.1949 -2.2848 -0.6777
   6323SM  H22G 8180   4.087   4.139  14.632 -1.0781  0.5970  0.3021
   6323SM  C23F 8181   4.103   3.949  14.534 -0.4801 -0.1833  0.2163
   6323SM  H23F 8182   4.166   3.915  14.619 -0.0728 -2.4173 -0.9048
   6323SM  H23G 8183   4.176   3.979  14.456 -1.3926  0.8884 -0.2518
   6323SM  H23H 8184   4.047   3.860  14.496 -1.2459  1.6861 -3.4558
   6423SM     N 8185   4.826   3.157  17.818 -0.0913 -0.4301  1.0140
   6423SM   C15 8186   4.682   3.160  17.850  0.0343 -0.1097 -0.0675
   6423SM  H15A 8187   4.661   3.215  17.941  0.1783  0.5377 -0.4175
   6423SM  H15B 8188   4.661   3.054  17.853  1.8502 -0.4945 -0.2553
   6423SM  H15C 8189   4.626   3.208  17.771 -0.0690 -1.0335 -0.5556
   6423SM   C14 8190   4.851   3.294  17.771  0.0773  0.2099  0.4684
   6423SM  H14A 8191   4.954   3.323  17.765 -0.0549  0.5764 -0.1317
   6423SM  H14B 8192   4.796   3.367  17.830  0.3171 -0.3738  1.4418
   6423SM  H14C 8193   4.821   3.309  17.668 -2.5317 -1.9770  0.7814
   6423SM   C13 8194   4.915   3.124  17.938 -0.2027 -0.3890 -0.0270
   6423SM  H13A 8195   5.019   3.135  17.909 -0.2782  3.4220  0.5414
   6423SM  H13B 8196   4.892   3.038  17.999 -0.7951  0.9570  1.7611
   6423SM  H13C 8197   4.909   3.201  18.014 -3.0251  0.8637 -1.3761
   6423SM   C12 8198   4.858   3.061  17.710 -0.6583 -0.7429 -0.4451
   6423SM  H12A 8199   4.858   2.957  17.740  2.6590 -0.5426  0.7109
   6423SM  H12B 8200   4.959   3.086  17.682 -1.1657  1.1863 -0.6899
   6423SM   C11 8201   4.790   3.060  17.572  0.3737  0.5933  0.3221
   6423SM  H11A 8202   4.681   3.060  17.594  0.2510 -0.2700 -0.2247
   6423SM  H11B 8203   4.811   2.968  17.513 -0.0583 -1.4057  3.0774
   6423SM     P 8204   4.954   3.182  17.415  0.4807  0.3648 -0.0481
   6423SM   O13 8205   4.981   3.325  17.377  0.5987 -0.6213 -0.0454
   6423SM   O14 8206   5.067   3.106  17.477 -0.2876 -0.1543 -0.1572
   6423SM   O11 8207   4.898   3.096  17.299 -0.5967 -0.1196 -0.2194
   6423SM   O12 8208   4.822   3.183  17.502 -0.3163 -0.1193 -0.8220
   6423SM   C1S 8209   4.862   3.164  17.171 -0.9739 -0.2337  0.4791
   6423SM   H1S 8210   4.936   3.244  17.151 -0.7427 -0.4465  0.4812
   6423SM   H1T 8211   4.765   3.217  17.181 -1.1600 -0.0029 -1.9929
   6423SM    NF 8212   4.802   3.126  16.931  0.1250  0.1562 -0.4520
   6423SM   HNF 8213   4.712   3.097  16.898 -0.1998  1.1082 -0.4440
   6423SM   C2S 8214   4.860   3.060  17.048 -0.2631  0.4018  0.0403
   6423SM   H2S 8215   4.966   3.037  17.027  0.3752  2.8405  0.3382
   6423SM   C3S 8216   4.786   2.936  17.079  0.0144  0.3780 -0.4713
   6423SM   H3S 8217   4.676   2.947  17.091 -0.3530 -0.8566 -2.3411
   6423SM    O3 8218   4.824   2.858  17.191 -0.5711  0.3593 -0.1268
   6423SM   HO3 8219   4.878   2.915  17.246 -0.8532 -0.5126  1.1103
   6423SM   C4S 8220   4.792   2.843  16.961 -0.0245 -0.1993 -0.3416
   6423SM   H4S 8221   4.698   2.811  16.914 -0.2763 -2.9776  1.8259
   6423SM   C5S 8222   4.908   2.790  16.904  0.6078 -0.6674  0.0716
   6423SM   H5S 8223   5.003   2.837  16.934 -1.0257  1.6188  2.0043
   6423SM   C6S 8224   4.914   2.686  16.796  0.0627  0.0176  0.3687
   6423SM   H6S 8225   4.892   2.593  16.851 -1.3183  0.0137 -0.1489
   6423SM   H6T 8226   5.020   2.685  16.764 -0.0100 -0.3792  0.1317
   6423SM   C7S 8227   4.813   2.702  16.675  0.6389  0.4897  0.0240
   6423SM   H7S 8228   4.712   2.666  16.705  0.5428  0.9266  0.2497
   6423SM   H7T 8229   4.852   2.629  16.601 -4.2024  0.4946 -2.9673
   6423SM   C8S 8230   4.819   2.838  16.609 -0.6173 -1.0500 -0.2599
   6423SM   H8S 8231   4.912   2.891  16.639  0.0616 -0.6204 -2.8732
   6423SM   H8T 8232   4.730   2.902  16.628 -0.6614 -0.7105 -1.4813
   6423SM   C9S 8233   4.825   2.821  16.462 -0.2117 -0.1906  0.1069
   6423SM   H9S 8234   4.736   2.775  16.414  1.9344 -1.7279 -2.7827
   6423SM   H9T 8235   4.911   2.753  16.441 -1.1371 -1.9015  1.5570
   6423SM  C10S 8236   4.854   2.953  16.382  0.1841 -0.4388  0.2779
   6423SM  H10S 8237   4.956   2.992  16.404 -0.9158  2.6900  0.3365
   6423SM  H10T 8238   4.796   3.031  16.435  0.5097 -0.9168  1.3677
   6423SM  C11S 8239   4.817   2.941  16.232 -0.0086 -0.3771  0.3100
   6423SM  H11S 8240   4.728   2.875  16.224 -0.5902  0.3835  0.3917
   6423SM  H11T 8241   4.901   2.895  16.176 -0.1907 -2.4445  1.6274
   6423SM  C12S 8242   4.777   3.070  16.154  0.5297 -0.5335 -0.4482
   6423SM  H12S 8243   4.858   3.144  16.171  1.0657 -1.1802 -0.1418
   6423SM  H12T 8244   4.687   3.119  16.196  1.5804  0.7897  0.3813
   6423SM  C13S 8245   4.769   3.061  15.998 -0.5587  0.1150 -0.2510
   6423SM  H13S 8246   4.678   2.999  15.983  1.0205 -1.8889 -2.0800
   6423SM  H13T 8247   4.856   3.000  15.966 -0.8588 -2.0266  2.6022
   6423SM  C14S 8248   4.748   3.200  15.930 -0.7784 -0.4195 -0.3207
   6423SM  H14S 8249   4.841   3.255  15.904  0.3546 -1.4115  1.4126
   6423SM  H14T 8250   4.696   3.268  16.001  0.5040 -1.8356  2.1174
   6423SM  C15S 8251   4.675   3.183  15.794  0.8542  0.1242 -0.9191
   6423SM  H15S 8252   4.643   3.280  15.751  0.8427 -0.2222 -1.7069
   6423SM  H15T 8253   4.594   3.108  15.811  2.0974 -0.6195  2.4671
   6423SM  C16S 8254   4.766   3.109  15.696  0.5311 -0.0288 -1.0934
   6423SM  H16S 8255   4.804   3.016  15.744  0.9070  1.7031  2.2588
   6423SM  H16T 8256   4.860   3.166  15.679  1.4692 -0.7468  1.2394
   6423SM  C17S 8257   4.694   3.088  15.564 -0.1803  0.1300 -0.0018
   6423SM  H17S 8258   4.686   3.182  15.504 -1.1102 -1.0755 -1.8733
   6423SM  H17T 8259   4.593   3.047  15.588 -0.4756  0.2693 -0.9528
   6423SM  C18S 8260   4.750   2.979  15.474  0.0630 -0.8414  0.3239
   6423SM  H18S 8261   4.840   3.023  15.426 -0.8853  1.6883  0.7130
   6423SM  H18T 8262   4.678   2.957  15.392  1.2909 -0.1891 -0.9702
   6423SM  H18U 8263   4.774   2.880  15.518 -2.9276 -1.8036 -0.0189
   6423SM   C1F 8264   4.866   3.221  16.859  0.2107 -0.1880 -0.5265
   6423SM    OF 8265   4.967   3.262  16.911  0.1936  0.1569  0.3611
   6423SM   C2F 8266   4.820   3.263  16.721  1.0533  0.0784 -0.8011
   6423SM   H2F 8267   4.737   3.336  16.734 -0.0001 -1.3936  1.6150
   6423SM   H2G 8268   4.782   3.176  16.664 -0.3870  0.0799  0.0868
   6423SM   C3F 8269   4.924   3.330  16.641  0.2499 -0.8817  0.4153
   6423SM   H3F 8270   4.987   3.411  16.684  1.9459  0.0582 -3.4369
   6423SM   H3G 8271   4.874   3.382  16.557  1.7886 -1.3876 -0.8638
   6423SM   C4F 8272   5.028   3.231  16.584 -0.4164 -0.2172 -0.5546
   6423SM   H4F 8273   4.978   3.145  16.534 -2.1202 -0.5680  1.6319
   6423SM   H4G 8274   5.087   3.195  16.671  0.2272  2.7288  0.3623
   6423SM   C5F 8275   5.131   3.287  16.489 -0.6639 -0.4332 -0.4140
   6423SM   H5F 8276   5.219   3.220  16.490  0.7484  1.3304  1.3645
   6423SM   H5G 8277   5.179   3.381  16.522 -1.4368  0.9125 -2.8505
   6423SM   C6F 8278   5.090   3.299  16.344 -0.4888 -0.4616  0.5055
   6423SM   H6F 8279   5.040   3.398  16.335 -1.5880 -1.0937 -0.7020
   6423SM   H6G 8280   5.022   3.218  16.311  1.5071 -1.7593 -0.5803
   6423SM   C7F 8281   5.209   3.292  16.244 -0.4821 -0.2195 -0.2447
   6423SM   H7F 8282   5.271   3.207  16.279  0.3513  0.2522 -0.5458
   6423SM   H7G 8283   5.268   3.386  16.251  0.2914 -0.6456 -0.8654
   6423SM   C8F 8284   5.160   3.271  16.096  0.8415 -0.7075 -0.1178
   6423SM   H8F 8285   5.099   3.359  16.066 -1.0977 -1.7179  0.6838
   6423SM   H8G 8286   5.085   3.189  16.090 -0.1854  0.2683 -1.0672
   6423SM   C9F 8287   5.275   3.243  15.995  0.0272 -0.1029  0.4971
   6423SM   H9F 8288   5.325   3.154  16.038  1.7844  0.6835  0.1609
   6423SM   H9G 8289   5.332   3.339  15.993 -1.7859  1.0217 -1.0366
   6423SM  C10F 8290   5.228   3.207  15.858 -0.2096  0.4309  0.4342
   6423SM  H10F 8291   5.141   3.139  15.871 -0.2939  0.5808  0.6741
   6423SM  H10G 8292   5.307   3.149  15.807 -0.1503  1.2603 -0.4627
   6423SM  C11F 8293   5.190   3.328  15.770  0.1347  0.2807  1.0273
   6423SM  H11F 8294   5.254   3.418  15.780  2.1935 -0.6241 -2.3902
   6423SM  H11G 8295   5.090   3.365  15.798 -1.3595 -3.7087  1.6778
   6423SM  C12F 8296   5.181   3.303  15.614 -0.1104 -0.4156  0.6143
   6423SM  H12F 8297   5.140   3.200  15.603 -0.9371 -0.1303  0.9548
   6423SM  H12G 8298   5.282   3.298  15.567  0.2548  0.8893  1.1971
   6423SM  C13F 8299   5.089   3.402  15.544 -0.5396 -0.6854  0.2941
   6423SM  H13F 8300   5.133   3.504  15.550 -0.1010 -0.9597  2.6724
   6423SM  H13G 8301   4.991   3.400  15.597 -0.2958  2.8834  1.1209
   6423SM  C14F 8302   5.072   3.375  15.390 -0.0058  0.2584 -0.2684
   6423SM  H14F 8303   4.977   3.317  15.387 -0.1640  0.5297 -0.6271
   6423SM  H14G 8304   5.153   3.309  15.352  0.3973  2.3256 -3.3872
   6423SM  C15F 8305   5.083   3.503  15.301 -0.2598 -0.4189  0.2165
   6423SM  H15F 8306   5.187   3.543  15.309 -1.2169  2.3030  0.1701
   6423SM  H15G 8307   5.010   3.574  15.345  1.8296  2.3118 -0.3932
   6423SM  C16F 8308   5.065   3.470  15.155 -0.8711  0.5949  0.6742
   6423SM  H16F 8309   4.961   3.453  15.121  0.0704 -0.1751 -2.1027
   6423SM  H16G 8310   5.119   3.376  15.130 -1.9402  0.3777 -0.9061
   6423SM  C17F 8311   5.112   3.590  15.059  0.3268  0.0422 -0.9395
   6423SM  H17F 8312   5.222   3.606  15.067  0.5453 -1.4620 -0.6080
   6423SM  H17G 8313   5.052   3.677  15.091 -2.5458 -2.2458  0.3150
   6423SM  C18F 8314   5.065   3.574  14.911  0.1891  0.7060  0.0984
   6423SM  H18F 8315   5.077   3.466  14.884 -0.3373  0.2223  1.6781
   6423SM  H18G 8316   5.130   3.631  14.842  0.7867  1.7298  1.4799
   6423SM  C19F 8317   4.916   3.613  14.893  0.2291  0.6840 -0.4578
   6423SM  H19F 8318   4.851   3.581  14.977  2.0497 -2.4708 -0.0591
   6423SM  H19G 8319   4.882   3.566  14.798 -1.9906  2.6640 -0.7533
   6423SM  C20F 8320   4.898   3.764  14.876 -0.4620  0.8551 -0.2188
   6423SM  H20F 8321   4.958   3.815  14.797 -0.0457 -1.1821 -1.2641
   6423SM  H20G 8322   4.932   3.809  14.971 -3.5310 -1.7642  2.3714
   6423SM  C21F 8323   4.749   3.818  14.866 -0.0302  0.6254  0.1956
   6423SM  H21F 8324   4.680   3.743  14.909 -0.0120  0.4823 -0.0229
   6423SM  H21G 8325   4.718   3.819  14.759 -0.3888  1.5770  0.2940
   6423SM  C22F 8326   4.712   3.950  14.932 -0.4278  1.0284 -0.5425
   6423SM  H22F 8327   4.793   4.021  14.903  1.5910 -1.1631 -0.6509
   6423SM  H22G 8328   4.723   3.930  15.041 -0.7276 -2.9167 -1.0892
   6423SM  C23F 8329   4.574   4.000  14.902  0.1021 -0.2025 -0.2269
   6423SM  H23F 8330   4.556   4.093  14.960 -1.1775 -1.5450  1.6513
   6423SM  H23G 8331   4.486   3.935  14.924  0.1145  0.6821  2.7945
   6423SM  H23H 8332   4.564   4.038  14.798  0.1190 -0.5124 -0.3420
   6523SM     N 8333   5.340   5.361  17.133 -0.1163 -0.4536 -0.0572
   6523SM   C15 8334   5.448   5.387  17.233  0.7914 -0.0095 -0.7694
   6523SM  H15A 8335   5.547   5.374  17.192  1.7571 -1.4694  1.8070
   6523SM  H15B 8336   5.437   5.315  17.313 -0.2679  0.5040 -0.4427
   6523SM  H15C 8337   5.431   5.485  17.275 -2.2978  0.1309 -2.0871
   6523SM   C14 8338   5.212   5.353  17.212  0.4352 -0.2761  0.2546
   6523SM  H14A 8339   5.138   5.328  17.138  0.0630  1.7263 -0.0929
   6523SM  H14B 8340   5.191   5.449  17.256  0.6729 -0.7416  1.4071
   6523SM  H14C 8341   5.213   5.282  17.293 -1.5915 -1.2926 -0.5466
   6523SM   C13 8342   5.347   5.468  17.026 -0.1779 -0.8516 -0.2414
   6523SM  H13A 8343   5.447   5.458  16.985 -0.0973  0.5572 -0.4167
   6523SM  H13B 8344   5.339   5.568  17.066 -1.8305 -1.4652  1.0655
   6523SM  H13C 8345   5.269   5.447  16.955 -0.3308  0.5438 -0.5021
   6523SM   C12 8346   5.365   5.221  17.076  0.3761 -1.0996 -0.6241
   6523SM  H12A 8347   5.385   5.146  17.152 -3.1621 -2.0776 -0.4852
   6523SM  H12B 8348   5.460   5.227  17.024  0.2240 -0.2579 -0.8208
   6523SM   C11 8349   5.260   5.159  16.978 -0.1615 -0.4767 -0.0325
   6523SM  H11A 8350   5.312   5.067  16.944  0.6655 -0.3281  0.7837
   6523SM  H11B 8351   5.238   5.221  16.888 -1.1998  0.4081  0.8007
   6523SM     P 8352   4.992   5.150  17.000 -0.2579  0.4949  0.0649
   6523SM   O13 8353   4.902   5.058  17.080 -0.1708  0.0506  0.5547
   6523SM   O14 8354   4.956   5.294  17.008 -0.0536  0.1064 -0.1717
   6523SM   O11 8355   4.997   5.110  16.844  0.4213  0.8750  0.0422
   6523SM   O12 8356   5.141   5.126  17.051 -0.5575  0.3619  0.1375
   6523SM   C1S 8357   5.002   4.977  16.794 -0.1404 -0.1459  0.0947
   6523SM   H1S 8358   4.930   4.912  16.849  1.1211 -2.5982 -1.0267
   6523SM   H1T 8359   5.105   4.946  16.819 -0.6107 -0.6998  1.4669
   6523SM    NF 8360   4.983   4.839  16.586  0.4236  0.0004  0.6258
   6523SM   HNF 8361   5.069   4.806  16.547  0.2328  0.1821  0.0367
   6523SM   C2S 8362   4.982   4.981  16.639 -0.3074  0.1447 -0.1252
   6523SM   H2S 8363   4.878   5.014  16.620 -0.8243 -0.0595  2.1361
   6523SM   C3S 8364   5.077   5.074  16.563  0.7053  0.9370  0.7942
   6523SM   H3S 8365   5.176   5.026  16.570 -0.4267 -1.4187  1.9439
   6523SM    O3 8366   5.086   5.197  16.624  0.8570  0.6437 -0.2736
   6523SM   HO3 8367   5.047   5.182  16.710 -2.3439 -0.6776 -1.7864
   6523SM   C4S 8368   5.044   5.107  16.420  0.5565 -0.0333 -0.1245
   6523SM   H4S 8369   4.967   5.185  16.411 -0.4337 -1.0624 -0.8504
   6523SM   C5S 8370   5.111   5.078  16.310  0.4565  0.0922  0.8374
   6523SM   H5S 8371   5.203   5.018  16.315  1.8414  1.8506 -1.5696
   6523SM   C6S 8372   5.082   5.135  16.171 -0.0629  0.3562  0.9745
   6523SM   H6S 8373   5.171   5.180  16.124 -0.3214 -1.9287 -1.9762
   6523SM   H6T 8374   5.011   5.219  16.184  0.1250  0.9109 -1.2792
   6523SM   C7S 8375   5.012   5.033  16.079  0.1312  0.2117  0.6792
   6523SM   H7S 8376   4.923   4.985  16.124  1.0246 -0.0373  2.2447
   6523SM   H7T 8377   5.076   4.946  16.055  0.6726  0.7372  0.1648
   6523SM   C8S 8378   4.977   5.107  15.940  0.7515  0.5257  0.0979
   6523SM   H8S 8379   5.057   5.143  15.872  1.1653  0.3941  0.5140
   6523SM   H8T 8380   4.904   5.188  15.961 -1.4315 -1.0961 -0.7433
   6523SM   C9S 8381   4.896   5.000  15.856  0.3644  0.1103  0.3147
   6523SM   H9S 8382   4.836   4.930  15.918 -0.4778 -2.6991 -3.3310
   6523SM   H9T 8383   4.972   4.935  15.807  0.9758  1.5725 -0.7456
   6523SM  C10S 8384   4.807   5.062  15.746 -0.4416 -0.7847 -0.4409
   6523SM  H10S 8385   4.874   5.122  15.681  2.1887 -2.1490  0.8880
   6523SM  H10T 8386   4.727   5.128  15.786 -0.7230 -0.6331 -1.2223
   6523SM  C11S 8387   4.743   4.959  15.655 -0.7720 -0.4757 -0.1096
   6523SM  H11S 8388   4.652   4.919  15.704 -1.0186  0.0573 -0.1151
   6523SM  H11T 8389   4.811   4.873  15.640 -1.0603 -0.5447 -1.0860
   6523SM  C12S 8390   4.710   5.015  15.520 -0.4046  0.3289 -0.2880
   6523SM  H12S 8391   4.806   5.034  15.468  0.4767 -1.6283  0.5588
   6523SM  H12T 8392   4.644   5.104  15.527 -0.8523 -0.1250  1.7211
   6523SM  C13S 8393   4.634   4.908  15.438  0.1679  0.3714 -0.2326
   6523SM  H13S 8394   4.524   4.901  15.455  0.1732 -2.0001 -0.7154
   6523SM  H13T 8395   4.682   4.811  15.465 -0.8826  0.1598  1.0101
   6523SM  C14S 8396   4.641   4.932  15.290 -0.3814  0.4854  0.0464
   6523SM  H14S 8397   4.748   4.944  15.262 -0.2543  0.3943  0.4797
   6523SM  H14T 8398   4.584   5.022  15.259 -1.4698 -0.6333 -1.3526
   6523SM  C15S 8399   4.591   4.823  15.201 -0.1496  0.3018  0.3892
   6523SM  H15S 8400   4.632   4.723  15.229 -2.0313 -1.3413 -2.2887
   6523SM  H15T 8401   4.620   4.838  15.095 -1.1321 -2.5729 -0.3820
   6523SM  C16S 8402   4.434   4.805  15.200 -0.1832 -0.2028  0.0734
   6523SM  H16S 8403   4.407   4.782  15.305 -0.8267 -0.1986 -0.0867
   6523SM  H16T 8404   4.401   4.717  15.141 -1.7105  0.7724 -0.5880
   6523SM  C17S 8405   4.349   4.927  15.163  0.2955 -0.5302  0.2598
   6523SM  H17S 8406   4.365   5.000  15.245 -0.0190 -0.2762  0.0947
   6523SM  H17T 8407   4.245   4.888  15.170 -0.0780  0.3739 -0.1460
   6523SM  C18S 8408   4.379   4.984  15.034 -0.1551 -0.1183 -0.2081
   6523SM  H18S 8409   4.488   5.004  15.025 -0.1627 -0.6021 -1.4714
   6523SM  H18T 8410   4.323   5.078  15.013  1.9918  1.0705 -0.9347
   6523SM  H18U 8411   4.362   4.916  14.948  3.0694 -0.1693 -0.9319
   6523SM   C1F 8412   4.881   4.762  16.613 -0.0870 -0.6989  0.9634
   6523SM    OF 8413   4.790   4.811  16.684 -0.4301 -0.1206  0.5170
   6523SM   C2F 8414   4.878   4.621  16.559 -0.0161  0.0106 -0.1982
   6523SM   H2F 8415   4.782   4.568  16.574  1.2045 -2.3142 -0.2305
   6523SM   H2G 8416   4.952   4.567  16.621 -0.2469 -0.8119 -0.6311
   6523SM   C3F 8417   4.928   4.606  16.416 -0.3517  0.2912  0.0807
   6523SM   H3F 8418   4.931   4.501  16.381  0.3427  0.4688 -0.3993
   6523SM   H3G 8419   5.034   4.631  16.396 -0.3098 -1.3636 -2.0044
   6523SM   C4F 8420   4.844   4.688  16.314  0.3915 -0.1021  0.4028
   6523SM   H4F 8421   4.806   4.784  16.353 -3.5760 -1.0730 -0.6360
   6523SM   H4G 8422   4.755   4.622  16.320 -0.0794  0.5469  0.5454
   6523SM   C5F 8423   4.895   4.710  16.171 -0.0350 -0.0195 -0.1403
   6523SM   H5F 8424   4.984   4.776  16.177 -1.5541  2.5595 -2.8249
   6523SM   H5G 8425   4.815   4.764  16.114 -0.6497 -1.5850 -0.8085
   6523SM   C6F 8426   4.921   4.574  16.105 -0.0126  0.2944 -0.0208
   6523SM   H6F 8427   4.826   4.551  16.051 -1.2201 -2.1270  2.8747
   6523SM   H6G 8428   4.940   4.495  16.181  1.2068 -0.8711 -1.4643
   6523SM   C7F 8429   5.034   4.562  15.997  0.3586  0.2086 -0.4503
   6523SM   H7F 8430   5.059   4.458  15.966 -1.7991 -0.7077  0.6735
   6523SM   H7G 8431   5.134   4.600  16.028  1.0338 -0.9343 -1.1410
   6523SM   C8F 8432   5.002   4.643  15.871  0.3029 -0.5201 -0.3468
   6523SM   H8F 8433   4.980   4.750  15.895 -1.6751 -0.6015 -1.5841
   6523SM   H8G 8434   4.923   4.601  15.806  0.6951 -0.0683 -1.1333
   6523SM   C9F 8435   5.132   4.662  15.786  0.2282 -0.7309  0.0162
   6523SM   H9F 8436   5.186   4.565  15.779  1.6565  0.0406  0.1303
   6523SM   H9G 8437   5.183   4.749  15.832 -1.3685  0.5011 -0.4449
   6523SM  C10F 8438   5.093   4.699  15.644  0.7705  0.0662 -0.2379
   6523SM  H10F 8439   5.177   4.762  15.609 -0.2402  1.8710  0.4575
   6523SM  H10G 8440   4.995   4.751  15.635  0.9400  0.3344 -0.5465
   6523SM  C11F 8441   5.077   4.580  15.549  1.0144  0.0411 -0.2335
   6523SM  H11F 8442   4.999   4.511  15.586 -0.0833  1.0629 -0.6073
   6523SM  H11G 8443   5.179   4.535  15.546  0.9830 -0.0181 -0.4089
   6523SM  C12F 8444   5.056   4.627  15.407  0.5461  0.6278 -0.2462
   6523SM  H12F 8445   5.114   4.721  15.400  0.5056  0.6560 -0.2130
   6523SM  H12G 8446   4.949   4.655  15.398 -0.7773 -3.3492  0.9648
   6523SM  C13F 8447   5.089   4.520  15.302 -0.1658 -0.3213 -0.2645
   6523SM  H13F 8448   5.015   4.438  15.312 -1.3035  0.3761 -2.3480
   6523SM  H13G 8449   5.184   4.469  15.330 -0.8662  0.0443  3.2675
   6523SM  C14F 8450   5.092   4.569  15.161  0.6812  0.0282  0.1294
   6523SM  H14F 8451   5.176   4.641  15.171  1.1174 -0.3186 -0.8586
   6523SM  H14G 8452   4.996   4.624  15.153 -0.5572 -2.1566 -1.4886
   6523SM  C15F 8453   5.125   4.466  15.047  0.2850 -0.3845 -0.3158
   6523SM  H15F 8454   5.229   4.438  15.074  0.2751  1.6048  2.1515
   6523SM  H15G 8455   5.120   4.508  14.944  0.5990  1.8707  0.5325
   6523SM  C16F 8456   5.017   4.348  15.068 -0.3653 -0.5176 -0.3815
   6523SM  H16F 8457   4.911   4.380  15.063  0.4704  2.3767 -1.7425
   6523SM  H16G 8458   5.044   4.299  15.164  1.2360  0.1351 -0.4741
   6523SM  C17F 8459   5.032   4.227  14.975 -0.1711 -0.4844  0.0639
   6523SM  H17F 8460   5.013   4.259  14.871  1.8907  0.3823 -0.1008
   6523SM  H17G 8461   4.968   4.140  15.002  0.4448 -1.1266 -0.5101
   6523SM  C18F 8462   5.179   4.185  14.966 -0.1278 -0.0748  0.5576
   6523SM  H18F 8463   5.226   4.161  15.064 -1.0975 -2.4498  0.4929
   6523SM  H18G 8464   5.239   4.266  14.920  1.2415 -1.6195 -0.4981
   6523SM  C19F 8465   5.191   4.048  14.885  0.2187  0.0643  0.0967
   6523SM  H19F 8466   5.131   4.074  14.795 -2.2878 -1.8112  1.1062
   6523SM  H19G 8467   5.130   3.967  14.931  1.1021 -2.0338 -2.1848
   6523SM  C20F 8468   5.334   4.004  14.849  0.3408 -0.1938 -0.4309
   6523SM  H20F 8469   5.403   4.007  14.937  0.0117  0.4189 -0.1839
   6523SM  H20G 8470   5.377   4.086  14.788  0.6410 -0.1735 -0.1995
   6523SM  C21F 8471   5.354   3.866  14.777 -0.6256 -0.5519  0.0314
   6523SM  H21F 8472   5.314   3.789  14.847 -0.0548 -0.7723  0.1182
   6523SM  H21G 8473   5.459   3.834  14.761 -0.4677 -1.0527  1.7713
   6523SM  C22F 8474   5.286   3.854  14.641 -0.0900 -0.5642 -0.5145
   6523SM  H22F 8475   5.324   3.926  14.566 -1.1807  1.5053  0.8350
   6523SM  H22G 8476   5.176   3.864  14.654  0.0785  0.1233  0.4625
   6523SM  C23F 8477   5.315   3.717  14.568 -0.0003 -0.6886 -0.7219
   6523SM  H23F 8478   5.255   3.717  14.475 -1.2891 -1.1249  0.0748
   6523SM  H23G 8479   5.277   3.633  14.630  1.1901  0.1666  1.2567
   6523SM  H23H 8480   5.422   3.717  14.539  0.8012 -1.0235  1.8934
   6623SM     N 8481   3.292   2.039  17.811  0.0925 -0.0938  0.6660
   6623SM   C15 8482   3.159   1.969  17.799  0.0091 -0.1614 -1.0802
   6623SM  H15A 8483   3.104   1.961  17.892 -0.5398  0.7341 -1.3116
   6623SM  H15B 8484   3.177   1.866  17.773  1.4968 -0.0262 -0.6790
   6623SM  H15C 8485   3.090   2.021  17.733 -0.6860  0.1978 -0.1065
   6623SM   C14 8486   3.252   2.173  17.858  0.5972  0.0602  0.5415
   6623SM  H14A 8487   3.226   2.225  17.768  0.1855 -0.1092  0.5591
   6623SM  H14B 8488   3.336   2.222  17.905  2.1451  0.6372 -2.5611
   6623SM  H14C 8489   3.160   2.173  17.915  0.2199 -0.5079 -0.0581
   6623SM   C13 8490   3.363   1.961  17.920 -0.1140  0.6130  0.4379
   6623SM  H13A 8491   3.389   1.857  17.907  1.4365  0.4268  3.8901
   6623SM  H13B 8492   3.294   1.960  18.004 -0.9972  2.1790 -0.2391
   6623SM  H13C 8493   3.460   1.998  17.948 -0.3836 -0.6274  3.3479
   6623SM   C12 8494   3.365   2.042  17.679 -0.3754  0.2618 -0.3173
   6623SM  H12A 8495   3.381   1.941  17.642  1.2353  0.1326  0.6464
   6623SM  H12B 8496   3.466   2.076  17.692 -1.4363  3.3056  0.9457
   6623SM   C11 8497   3.307   2.136  17.556 -0.2421  0.8812  0.2391
   6623SM  H11A 8498   3.205   2.096  17.536  0.1148  0.6187 -1.1396
   6623SM  H11B 8499   3.362   2.116  17.461  2.0872  0.1339  1.6511
   6623SM     P 8500   3.433   2.364  17.556 -0.1091  0.0750  0.1981
   6623SM   O13 8501   3.418   2.499  17.626 -0.2468  0.5998 -0.2463
   6623SM   O14 8502   3.554   2.289  17.591  0.1185 -0.0355  0.1261
   6623SM   O11 8503   3.437   2.394  17.401  0.3948  0.5646  0.5696
   6623SM   O12 8504   3.304   2.273  17.581 -0.1475 -0.2594  0.2030
   6623SM   C1S 8505   3.347   2.342  17.306  0.0017 -0.0380  0.2781
   6623SM   H1S 8506   3.243   2.341  17.346 -0.4893 -2.7110 -0.8338
   6623SM   H1T 8507   3.362   2.236  17.278 -1.4985 -0.1187 -0.3659
   6623SM    NF 8508   3.270   2.391  17.071 -0.2045  1.1035 -0.0356
   6623SM   HNF 8509   3.309   2.335  16.998  2.1870  2.0430  0.4280
   6623SM   C2S 8510   3.364   2.428  17.173 -0.5833  0.0824  0.0975
   6623SM   H2S 8511   3.351   2.535  17.198 -0.0436  0.6961 -2.0435
   6623SM   C3S 8512   3.516   2.418  17.133  0.1327  0.5162  0.0605
   6623SM   H3S 8513   3.536   2.310  17.116  1.0655  0.8894 -1.4325
   6623SM    O3 8514   3.607   2.464  17.231  0.7076  0.4083  0.4671
   6623SM   HO3 8515   3.554   2.440  17.307 -0.4515 -1.6331 -0.8912
   6623SM   C4S 8516   3.528   2.496  17.002  0.4251 -0.6640  0.2248
   6623SM   H4S 8517   3.520   2.604  17.022  1.1366 -0.9648  2.3550
   6623SM   C5S 8518   3.542   2.450  16.875 -0.0130  0.3530 -0.5809
   6623SM   H5S 8519   3.551   2.343  16.851  0.2022 -0.1674  1.6008
   6623SM   C6S 8520   3.550   2.539  16.759  0.4407  0.0485 -0.1240
   6623SM   H6S 8521   3.658   2.564  16.746 -0.1251  1.7814 -1.8964
   6623SM   H6T 8522   3.492   2.632  16.779  0.0830 -0.2768  0.3609
   6623SM   C7S 8523   3.498   2.481  16.624  0.1449  0.3948  0.6967
   6623SM   H7S 8524   3.390   2.505  16.610 -0.0702 -1.7797 -2.4456
   6623SM   H7T 8525   3.494   2.370  16.629  2.0565  0.3464  2.8102
   6623SM   C8S 8526   3.547   2.554  16.492  0.0996  0.3530  0.5454
   6623SM   H8S 8527   3.653   2.525  16.478 -0.4108 -1.2155 -0.3076
   6623SM   H8T 8528   3.547   2.665  16.503 -3.4970  0.6425 -0.7895
   6623SM   C9S 8529   3.461   2.517  16.372  0.1501 -0.1018 -0.4428
   6623SM   H9S 8530   3.359   2.562  16.368 -0.4292 -1.2846  0.7172
   6623SM   H9T 8531   3.454   2.407  16.373  3.5682 -0.4411  2.1019
   6623SM  C10S 8532   3.537   2.548  16.242 -0.4764 -0.5967 -0.3757
   6623SM  H10S 8533   3.643   2.516  16.238 -0.1093  0.5522 -0.1844
   6623SM  H10T 8534   3.531   2.659  16.238 -3.0516 -0.3427  4.0082
   6623SM  C11S 8535   3.479   2.482  16.120 -0.8845 -0.2158 -0.0562
   6623SM  H11S 8536   3.374   2.510  16.101 -0.2066  0.7723 -2.8764
   6623SM  H11T 8537   3.474   2.373  16.143  4.5906 -0.5381  0.9870
   6623SM  C12S 8538   3.559   2.520  15.995 -0.6187 -0.2465  0.1214
   6623SM  H12S 8539   3.657   2.468  15.990  0.6889  2.1941 -1.7267
   6623SM  H12T 8540   3.578   2.629  15.998  2.0593 -0.6824  0.8759
   6623SM  C13S 8541   3.482   2.485  15.869 -0.0550  0.0588 -0.5299
   6623SM  H13S 8542   3.392   2.549  15.876  1.0944  1.6640  0.0668
   6623SM  H13T 8543   3.457   2.377  15.884  1.5033 -0.1209  1.1239
   6623SM  C14S 8544   3.558   2.504  15.737  0.0518 -0.5854 -0.9897
   6623SM  H14S 8545   3.659   2.459  15.728  1.0840  0.8962  1.9058
   6623SM  H14T 8546   3.580   2.612  15.722 -0.1425 -0.5520 -1.0404
   6623SM  C15S 8547   3.460   2.477  15.621 -0.5153 -0.2446 -0.5641
   6623SM  H15S 8548   3.371   2.544  15.623  0.4865  1.2526 -2.6452
   6623SM  H15T 8549   3.436   2.369  15.635 -0.5747 -0.2505 -0.7108
   6623SM  C16S 8550   3.535   2.504  15.491 -0.0577  0.1757 -0.4091
   6623SM  H16S 8551   3.614   2.431  15.464 -0.2162  0.4536 -1.6790
   6623SM  H16T 8552   3.566   2.610  15.485 -0.1671  0.2338 -0.0096
   6623SM  C17S 8553   3.430   2.504  15.374  0.9894 -0.1120  0.8037
   6623SM  H17S 8554   3.362   2.589  15.394  0.2643 -0.8074  1.3703
   6623SM  H17T 8555   3.361   2.416  15.373 -0.1492  0.6813 -2.4729
   6623SM  C18S 8556   3.477   2.520  15.234  0.6570 -0.8539 -0.1126
   6623SM  H18S 8557   3.401   2.507  15.154  0.4597  0.4847 -0.1605
   6623SM  H18T 8558   3.558   2.447  15.213 -1.1416 -2.4954 -1.7330
   6623SM  H18U 8559   3.511   2.625  15.225 -1.3903 -0.0628  0.6936
   6623SM   C1F 8560   3.142   2.411  17.072 -0.4561  0.5238  0.5009
   6623SM    OF 8561   3.088   2.471  17.166 -0.6433 -0.4295  0.1869
   6623SM   C2F 8562   3.063   2.344  16.964  0.6536 -0.7326 -0.0747
   6623SM   H2F 8563   2.968   2.299  17.000  0.2769 -0.0788 -0.2385
   6623SM   H2G 8564   3.131   2.263  16.929  0.2713 -0.6495 -1.0582
   6623SM   C3F 8565   3.015   2.434  16.842 -0.4068  0.4139  0.1122
   6623SM   H3F 8566   2.946   2.513  16.878 -0.7839  1.8125 -3.2968
   6623SM   H3G 8567   2.963   2.374  16.764 -0.2563  0.9173 -0.3887
   6623SM   C4F 8568   3.138   2.505  16.782  0.5993  0.3882 -0.1696
   6623SM   H4F 8569   3.221   2.434  16.762 -0.7335 -0.7801 -1.9258
   6623SM   H4G 8570   3.180   2.583  16.849  2.5380 -0.7683  0.0311
   6623SM   C5F 8571   3.107   2.584  16.655  0.5727  0.2587 -0.2130
   6623SM   H5F 8572   3.197   2.648  16.646  0.7041  0.2275  0.8101
   6623SM   H5G 8573   3.038   2.671  16.664  1.8642  1.3826 -0.8452
   6623SM   C6F 8574   3.079   2.501  16.528  0.9240 -0.4027  0.4879
   6623SM   H6F 8575   2.984   2.445  16.521  0.3508  0.4099  1.5106
   6623SM   H6G 8576   3.158   2.423  16.517  0.4474 -0.9372  0.7981
   6623SM   C7F 8577   3.088   2.586  16.401 -0.2410 -0.5026  0.3815
   6623SM   H7F 8578   3.182   2.643  16.413 -2.1850  2.8339  1.0562
   6623SM   H7G 8579   3.005   2.657  16.379 -0.0380 -0.5071 -0.4188
   6623SM   C8F 8580   3.108   2.504  16.281 -0.2449 -0.0617 -0.2186
   6623SM   H8F 8581   3.028   2.428  16.276  1.6098 -2.3139  1.7427
   6623SM   H8G 8582   3.207   2.454  16.283  1.3576  2.8742  0.0036
   6623SM   C9F 8583   3.105   2.589  16.149 -0.5662 -0.2481  0.0790
   6623SM   H9F 8584   3.205   2.633  16.131 -0.1868 -1.3298 -0.5306
   6623SM   H9G 8585   3.040   2.680  16.153 -1.6054 -1.0090  1.3336
   6623SM  C10F 8586   3.060   2.510  16.029  0.3246  0.0573 -0.0646
   6623SM  H10F 8587   2.961   2.462  16.043 -1.5960  2.7428 -3.0536
   6623SM  H10G 8588   3.127   2.428  15.997  0.7184  0.6406 -0.7644
   6623SM  C11F 8589   3.053   2.600  15.903  0.2435  0.7457  0.1815
   6623SM  H11F 8590   3.153   2.643  15.879  0.5140 -0.4147 -0.8594
   6623SM  H11G 8591   2.980   2.681  15.921 -1.0076 -0.2393 -0.2940
   6623SM  C12F 8592   3.010   2.522  15.782 -0.2720 -0.3422  0.3332
   6623SM  H12F 8593   2.903   2.494  15.783 -0.5839  0.7410 -0.3516
   6623SM  H12G 8594   3.079   2.438  15.759 -0.3706  0.1960 -2.2007
   6623SM  C13F 8595   3.026   2.614  15.656  0.0268 -0.1711 -0.3640
   6623SM  H13F 8596   3.132   2.648  15.660  0.4001 -1.3382  2.2025
   6623SM  H13G 8597   2.959   2.703  15.654 -1.9834 -1.6117  0.1169
   6623SM  C14F 8598   3.009   2.542  15.524 -0.1830  0.4977  0.1301
   6623SM  H14F 8599   2.902   2.512  15.527 -0.0126 -0.0095  2.6531
   6623SM  H14G 8600   3.069   2.448  15.516 -1.2039 -0.2502  1.0082
   6623SM  C15F 8601   3.014   2.642  15.405 -0.1621  0.4949  0.3801
   6623SM  H15F 8602   3.104   2.701  15.429  0.3085 -0.6533  1.5432
   6623SM  H15G 8603   2.925   2.709  15.406  1.1292  2.3280 -0.7297
   6623SM  C16F 8604   3.042   2.567  15.272  0.3904  0.0719 -0.7509
   6623SM  H16F 8605   2.973   2.481  15.261 -0.2806  0.5970 -0.6870
   6623SM  H16G 8606   3.139   2.521  15.300 -0.3896 -0.5469  1.0961
   6623SM  C17F 8607   3.046   2.656  15.151  0.4708 -0.3047 -1.0263
   6623SM  H17F 8608   3.124   2.734  15.162  0.7519 -0.5544 -1.2353
   6623SM  H17G 8609   2.951   2.712  15.137 -0.0536 -0.7645  0.5370
   6623SM  C18F 8610   3.070   2.566  15.034 -0.4863 -0.0904  0.4729
   6623SM  H18F 8611   2.991   2.489  15.032 -0.0848 -0.5142  0.7046
   6623SM  H18G 8612   3.169   2.518  15.052 -0.7510 -0.3610  1.2205
   6623SM  C19F 8613   3.058   2.627  14.895  0.5276  0.2017  0.1243
   6623SM  H19F 8614   3.135   2.706  14.883 -1.0275  1.9339  1.0885
   6623SM  H19G 8615   2.958   2.674  14.892  0.6805  0.4805 -1.1277
   6623SM  C20F 8616   3.078   2.518  14.785 -0.0416 -0.3353 -0.2765
   6623SM  H20F 8617   2.999   2.440  14.789  0.0340 -0.5568 -2.0385
   6623SM  H20G 8618   3.181   2.477  14.793  0.1276  0.1738  0.2231
   6623SM  C21F 8619   3.047   2.565  14.648 -0.5099 -0.2872  0.0230
   6623SM  H21F 8620   3.109   2.656  14.630  1.2094 -1.1030  1.5031
   6623SM  H21G 8621   2.940   2.575  14.622 -0.3115  1.0902 -0.3767
   6623SM  C22F 8622   3.108   2.465  14.542 -0.6964 -0.7972 -0.4781
   6623SM  H22F 8623   3.037   2.383  14.561 -0.7976 -0.7106 -0.4806
   6623SM  H22G 8624   3.206   2.430  14.580 -1.4449 -0.8492  1.5205
   6623SM  C23F 8625   3.108   2.537  14.405  0.2184 -0.2408  0.2094
   6623SM  H23F 8626   3.182   2.619  14.404  0.6036 -0.5192  2.0076
   6623SM  H23G 8627   3.011   2.581  14.373 -0.2435  0.7297  2.7016
   6623SM  H23H 8628   3.150   2.467  14.329  1.5064  0.5270  0.1895
   6723SM     N 8629   2.515   6.415  17.290 -0.4237 -0.4354 -0.2656
   6723SM   C15 8630   2.459   6.554  17.321  0.5348 -0.2685  0.9854
   6723SM  H15A 8631   2.473   6.621  17.237 -2.8899 -0.5535  0.0620
   6723SM  H15B 8632   2.506   6.603  17.406  0.0006  1.5894  0.2742
   6723SM  H15C 8633   2.354   6.539  17.340 -0.0940  0.3683 -1.6099
   6723SM   C14 8634   2.664   6.423  17.299 -0.2932  0.1223  0.7670
   6723SM  H14A 8635   2.709   6.449  17.204 -0.8411  1.6965  0.9041
   6723SM  H14B 8636   2.705   6.326  17.319  2.3292  1.4733  2.6106
   6723SM  H14C 8637   2.696   6.474  17.389  3.0492  0.7358 -0.6370
   6723SM   C13 8638   2.476   6.330  17.405 -0.3087  0.0647 -0.4331
   6723SM  H13A 8639   2.517   6.363  17.499 -0.8645  0.4230 -0.3171
   6723SM  H13B 8640   2.515   6.231  17.386 -1.8530 -0.1078 -3.1741
   6723SM  H13C 8641   2.370   6.314  17.411 -0.4140  0.7411 -0.4997
   6723SM   C12 8642   2.458   6.370  17.164 -0.5458 -0.2927 -0.2519
   6723SM  H12A 8643   2.352   6.388  17.174 -0.6740  1.2936 -3.2701
   6723SM  H12B 8644   2.474   6.266  17.139 -0.6357  0.2484 -2.8661
   6723SM   C11 8645   2.489   6.446  17.034  0.8063 -1.0103  0.4227
   6723SM  H11A 8646   2.468   6.552  17.059  2.6181 -0.7813  1.1085
   6723SM  H11B 8647   2.424   6.412  16.951 -1.3359  0.2394  1.4940
   6723SM     P 8648   2.690   6.312  16.948  0.4230  0.0197 -0.1451
   6723SM   O13 8649   2.822   6.312  17.003  0.0023  1.0500 -0.0096
   6723SM   O14 8650   2.602   6.196  16.979 -0.1938 -0.0800 -0.2309
   6723SM   O11 8651   2.699   6.329  16.786 -0.0212 -0.2149 -0.4252
   6723SM   O12 8652   2.622   6.444  16.988  0.0971  0.2636  0.0720
   6723SM   C1S 8653   2.577   6.353  16.714 -0.8792  0.5329  0.3979
   6723SM   H1S 8654   2.519   6.437  16.757 -2.1323 -0.6754  1.1628
   6723SM   H1T 8655   2.523   6.255  16.714 -0.2946  0.1588  2.8045
   6723SM    NF 8656   2.493   6.420  16.501 -0.2557  0.1514 -1.0332
   6723SM   HNF 8657   2.448   6.345  16.452  0.7112 -1.4900  0.4819
   6723SM   C2S 8658   2.612   6.379  16.566 -0.2938  0.5542 -0.6102
   6723SM   H2S 8659   2.689   6.458  16.559 -0.3441  0.5212 -1.7335
   6723SM   C3S 8660   2.682   6.268  16.489  0.1828 -0.0619 -0.5971
   6723SM   H3S 8661   2.630   6.173  16.511 -0.3474  0.4520  0.4342
   6723SM    O3 8662   2.803   6.229  16.554 -0.0560  0.3322  0.0045
   6723SM   HO3 8663   2.803   6.275  16.639 -2.2821  0.5478 -0.0593
   6723SM   C4S 8664   2.703   6.280  16.336  0.1842  0.1946 -0.2368
   6723SM   H4S 8665   2.623   6.238  16.274  1.2797 -1.5622 -0.5282
   6723SM   C5S 8666   2.809   6.334  16.265  0.4735  1.0852 -0.2595
   6723SM   H5S 8667   2.892   6.371  16.327 -1.5515 -0.5531  3.7602
   6723SM   C6S 8668   2.825   6.341  16.114 -0.5517 -0.2071 -0.4686
   6723SM   H6S 8669   2.926   6.305  16.085  0.5464 -0.1822  2.8529
   6723SM   H6T 8670   2.829   6.449  16.091 -0.3652  0.0391  0.6320
   6723SM   C7S 8671   2.713   6.277  16.026 -0.2616 -0.6806  0.4729
   6723SM   H7S 8672   2.617   6.321  16.061 -0.1963 -0.0022 -0.1758
   6723SM   H7T 8673   2.708   6.167  16.042 -0.8030 -0.6506  0.5128
   6723SM   C8S 8674   2.708   6.301  15.875 -0.3247  0.7747 -0.3512
   6723SM   H8S 8675   2.725   6.410  15.861 -1.4830  1.2649  1.6436
   6723SM   H8T 8676   2.608   6.273  15.836  0.5914 -2.1877 -0.8319
   6723SM   C9S 8677   2.804   6.213  15.792 -0.5609 -0.1020  0.1468
   6723SM   H9S 8678   2.786   6.105  15.814 -2.6348  0.2819  0.5611
   6723SM   H9T 8679   2.905   6.243  15.827  0.5403 -0.9616 -2.0926
   6723SM  C10S 8680   2.787   6.235  15.641  0.0267  0.0803 -0.1927
   6723SM  H10S 8681   2.792   6.346  15.632  2.5511  0.1194  0.9205
   6723SM  H10T 8682   2.685   6.206  15.607 -0.5918  0.4642  1.2674
   6723SM  C11S 8683   2.885   6.171  15.544  0.2781  1.1099 -0.2340
   6723SM  H11S 8684   2.887   6.062  15.562  0.0236  1.0775 -0.3970
   6723SM  H11T 8685   2.993   6.192  15.555  0.6240 -0.0466 -1.2541
   6723SM  C12S 8686   2.836   6.193  15.400 -0.4462  0.5004 -0.0900
   6723SM  H12S 8687   2.827   6.303  15.392  1.7189  0.6753 -0.8373
   6723SM  H12T 8688   2.739   6.148  15.369 -0.6504 -0.1668  1.4063
   6723SM  C13S 8689   2.952   6.151  15.304  0.2039 -0.4296 -0.2669
   6723SM  H13S 8690   2.981   6.045  15.317 -2.5191 -1.5268 -2.2597
   6723SM  H13T 8691   3.044   6.210  15.329 -1.1644  0.7444  2.4618
   6723SM  C14S 8692   2.923   6.175  15.156 -0.5455  1.1437  0.5873
   6723SM  H14S 8693   3.013   6.152  15.095 -0.7905 -0.1292  0.6929
   6723SM  H14T 8694   2.902   6.283  15.141  0.5431  1.4298  1.0076
   6723SM  C15S 8695   2.803   6.091  15.103 -0.9701  0.0821 -0.1003
   6723SM  H15S 8696   2.709   6.120  15.155 -0.7020  1.3064 -0.2769
   6723SM  H15T 8697   2.818   5.983  15.125 -0.6747  0.2171  0.3628
   6723SM  C16S 8698   2.768   6.122  14.951 -0.3957  0.0198  0.2132
   6723SM  H16S 8699   2.749   6.231  14.944 -4.2562 -0.4812  0.5162
   6723SM  H16T 8700   2.673   6.065  14.941  1.6688 -3.7870  0.4654
   6723SM  C17S 8701   2.877   6.078  14.851 -0.2119 -0.8228  0.0978
   6723SM  H17S 8702   2.972   6.136  14.851  0.1555 -1.4007 -0.9582
   6723SM  H17T 8703   2.826   6.096  14.754  1.2369  0.1931 -0.5095
   6723SM  C18S 8704   2.897   5.932  14.860 -0.2737  0.0961  0.5446
   6723SM  H18S 8705   2.797   5.887  14.845  0.5715 -1.3539 -1.1248
   6723SM  H18T 8706   2.941   5.899  14.957  1.3351 -0.8408 -0.4539
   6723SM  H18U 8707   2.962   5.892  14.779  0.6350  0.1810  1.2107
   6723SM   C1F 8708   2.441   6.538  16.512 -0.0331  0.1680 -0.3940
   6723SM    OF 8709   2.502   6.640  16.550 -1.0392  0.1125  0.4074
   6723SM   C2F 8710   2.297   6.547  16.471 -0.1864 -0.1951 -0.3616
   6723SM   H2F 8711   2.241   6.602  16.549  1.4119  0.2620  0.5054
   6723SM   H2G 8712   2.250   6.447  16.460 -1.4256  0.1939  1.0141
   6723SM   C3F 8713   2.278   6.632  16.340 -0.8204 -0.1557 -0.4187
   6723SM   H3F 8714   2.323   6.733  16.354 -2.5100  0.3640  1.8060
   6723SM   H3G 8715   2.172   6.655  16.314 -1.1154 -0.9637  0.0567
   6723SM   C4F 8716   2.339   6.559  16.215  0.7378  0.1928  0.6203
   6723SM   H4F 8717   2.278   6.466  16.207 -1.6191  1.7113 -0.2501
   6723SM   H4G 8718   2.447   6.535  16.225  0.6283 -0.2174  0.8467
   6723SM   C5F 8719   2.322   6.635  16.082 -0.5113  0.0124  0.2771
   6723SM   H5F 8720   2.373   6.733  16.093  0.9148 -0.3453 -2.3217
   6723SM   H5G 8721   2.213   6.657  16.072 -1.1480 -1.6923  2.6620
   6723SM   C6F 8722   2.373   6.571  15.952  0.2335 -0.4975 -0.7401
   6723SM   H6F 8723   2.306   6.486  15.926 -1.0111  0.1372  0.2889
   6723SM   H6G 8724   2.475   6.528  15.963  1.3649  1.8880 -1.3253
   6723SM   C7F 8725   2.408   6.662  15.836  0.4036 -0.6486 -0.2183
   6723SM   H7F 8726   2.499   6.722  15.858 -0.5095  0.9366 -0.5775
   6723SM   H7G 8727   2.321   6.730  15.818 -0.8681 -2.0339  0.5085
   6723SM   C8F 8728   2.425   6.575  15.723  0.0728  0.9706  0.3411
   6723SM   H8F 8729   2.336   6.512  15.706  1.0333  0.0281 -1.5681
   6723SM   H8G 8730   2.498   6.492  15.736 -0.3783  0.2761 -1.2965
   6723SM   C9F 8731   2.454   6.652  15.598  0.3828 -0.2923 -0.5049
   6723SM   H9F 8732   2.560   6.683  15.587  0.8372 -1.8611 -0.8595
   6723SM   H9G 8733   2.383   6.738  15.602 -2.7285 -2.6991  2.9389
   6723SM  C10F 8734   2.419   6.580  15.467 -0.1014  0.0217 -0.1330
   6723SM  H10F 8735   2.451   6.649  15.385 -4.4337  2.8627  0.2616
   6723SM  H10G 8736   2.308   6.577  15.463 -0.0778 -1.3032  0.1127
   6723SM  C11F 8737   2.465   6.438  15.430  0.4468 -0.3817  0.2613
   6723SM  H11F 8738   2.380   6.371  15.453  0.0263 -0.0793 -0.3678
   6723SM  H11G 8739   2.547   6.405  15.497  0.7729 -1.7515 -0.7791
   6723SM  C12F 8740   2.493   6.414  15.277  0.1061  0.2739 -0.3277
   6723SM  H12F 8741   2.520   6.306  15.278 -2.5124 -0.4523 -0.4793
   6723SM  H12G 8742   2.578   6.466  15.227  2.0033 -0.8412  1.5619
   6723SM  C13F 8743   2.362   6.410  15.195  0.2194 -0.0376  0.3043
   6723SM  H13F 8744   2.299   6.499  15.213  0.2898  0.4612 -1.7004
   6723SM  H13G 8745   2.305   6.319  15.224  3.3882 -2.2827  0.0284
   6723SM  C14F 8746   2.362   6.410  15.044 -0.0970  0.1402 -0.3901
   6723SM  H14F 8747   2.420   6.499  15.011  1.3994 -0.1209  1.3484
   6723SM  H14G 8748   2.259   6.405  15.002 -0.9448 -0.9187  1.6535
   6723SM  C15F 8749   2.437   6.282  14.981 -0.2885 -1.2455  0.1475
   6723SM  H15F 8750   2.391   6.186  15.011 -0.6821 -1.8843 -2.2793
   6723SM  H15G 8751   2.544   6.285  15.011  0.2010  1.3581 -1.4304
   6723SM  C16F 8752   2.424   6.297  14.824  0.9292  0.0903  0.1059
   6723SM  H16F 8753   2.472   6.391  14.790  0.9943  0.0474  0.0773
   6723SM  H16G 8754   2.315   6.305  14.803  0.8327 -1.7973 -0.2480
   6723SM  C17F 8755   2.476   6.190  14.729  0.3361 -0.3551  0.4446
   6723SM  H17F 8756   2.586   6.178  14.737  0.3781 -2.1000 -1.9581
   6723SM  H17G 8757   2.458   6.218  14.623 -1.0661 -2.6038  0.0208
   6723SM  C18F 8758   2.399   6.059  14.744  0.2285  0.5912  0.4733
   6723SM  H18F 8759   2.289   6.074  14.744  0.1213  0.1701 -2.0824
   6723SM  H18G 8760   2.434   6.015  14.840  2.8764 -1.2008 -1.1770
   6723SM  C19F 8761   2.430   5.945  14.640 -0.3163 -0.0996  1.1294
   6723SM  H19F 8762   2.395   5.973  14.538  0.7190 -1.6814  0.3047
   6723SM  H19G 8763   2.372   5.852  14.661  1.6582 -1.2177  1.9323
   6723SM  C20F 8764   2.582   5.919  14.630 -0.1943  0.0006 -0.4434
   6723SM  H20F 8765   2.615   5.922  14.736 -0.4048 -1.5289 -0.3155
   6723SM  H20G 8766   2.625   6.012  14.587 -1.2482  0.7156 -0.0132
   6723SM  C21F 8767   2.624   5.801  14.554  0.4971  0.2494  0.8051
   6723SM  H21F 8768   2.554   5.779  14.470  0.5445  4.2010 -0.5042
   6723SM  H21G 8769   2.640   5.718  14.626 -0.0427  0.9080  1.6993
   6723SM  C22F 8770   2.761   5.831  14.484 -0.3495  0.0798  0.6214
   6723SM  H22F 8771   2.805   5.735  14.451  0.1978  0.4106  0.3799
   6723SM  H22G 8772   2.839   5.867  14.554 -2.0320  1.8736  1.6833
   6723SM  C23F 8773   2.756   5.919  14.359  0.1650  0.1996 -0.1700
   6723SM  H23F 8774   2.852   5.916  14.304  0.0259  0.8838 -0.4534
   6723SM  H23G 8775   2.745   6.026  14.389  0.4403 -0.1860  1.3857
   6723SM  H23H 8776   2.670   5.879  14.300  0.2972 -2.4499  1.3000
   6823SM     N 8777   2.471   2.750  17.487  0.2518  0.0528 -0.3060
   6823SM   C15 8778   2.570   2.683  17.578  0.2670  0.2869  0.6069
   6823SM  H15A 8779   2.623   2.761  17.631 -0.9411  1.6198 -0.0713
   6823SM  H15B 8780   2.647   2.628  17.527 -1.0141  0.6660 -1.9109
   6823SM  H15C 8781   2.529   2.615  17.651  0.3607 -1.1628 -0.6702
   6823SM   C14 8782   2.344   2.774  17.558 -1.0002 -0.7511 -0.1891
   6823SM  H14A 8783   2.300   2.686  17.603 -2.2310  0.1692  0.4362
   6823SM  H14B 8784   2.276   2.821  17.489 -0.6515  1.2805  0.7835
   6823SM  H14C 8785   2.356   2.850  17.633 -1.3035  1.1474 -1.9950
   6823SM   C13 8786   2.532   2.876  17.442 -0.1008  0.1438  1.0796
   6823SM  H13A 8787   2.619   2.853  17.383 -1.1770  1.0969 -0.9882
   6823SM  H13B 8788   2.563   2.941  17.523  0.2048  4.0737 -1.9098
   6823SM  H13C 8789   2.470   2.940  17.382  0.2611  1.1774  1.7765
   6823SM   C12 8790   2.443   2.666  17.368 -0.2482 -0.5052 -0.3814
   6823SM  H12A 8791   2.400   2.571  17.397 -3.8120  1.0999  0.2064
   6823SM  H12B 8792   2.534   2.653  17.311 -0.5016  0.6998 -1.1075
   6823SM   C11 8793   2.333   2.706  17.259 -0.4506 -0.6286 -0.2295
   6823SM  H11A 8794   2.336   2.637  17.171  0.8830  0.0128 -0.7175
   6823SM  H11B 8795   2.374   2.802  17.221  2.5369 -0.9538  1.8646
   6823SM     P 8796   2.098   2.610  17.334  0.2011  0.1356 -0.4175
   6823SM   O13 8797   2.164   2.495  17.393 -0.7769  0.2165 -0.1485
   6823SM   O14 8798   1.996   2.672  17.423  0.0344 -0.5998  0.1301
   6823SM   O11 8799   2.028   2.581  17.196  0.1865  0.0806  0.3341
   6823SM   O12 8800   2.206   2.727  17.310  0.1287  0.2965  0.2558
   6823SM   C1S 8801   2.038   2.673  17.093 -0.1355  0.1448  0.2113
   6823SM   H1S 8802   2.143   2.710  17.082  0.0008 -0.0229  0.8834
   6823SM   H1T 8803   1.981   2.765  17.117  0.6202  0.5664  0.4351
   6823SM    NF 8804   1.990   2.711  16.851 -0.4231  0.3035  0.4653
   6823SM   HNF 8805   1.920   2.773  16.817  0.8968  1.6500  0.0601
   6823SM   C2S 8806   1.970   2.617  16.960 -0.6718 -0.1241 -0.4197
   6823SM   H2S 8807   2.030   2.526  16.940 -1.1398 -0.3967 -0.6149
   6823SM   C3S 8808   1.821   2.588  16.987  0.7742  0.2827 -0.2517
   6823SM   H3S 8809   1.781   2.690  17.005 -0.8183  0.1791 -2.8282
   6823SM    O3 8810   1.789   2.524  17.107 -0.8528 -0.1914 -0.2565
   6823SM   HO3 8811   1.873   2.530  17.154 -0.4780  0.8997 -1.0141
   6823SM   C4S 8812   1.736   2.528  16.876  0.0405 -1.0684  0.1090
   6823SM   H4S 8813   1.658   2.596  16.839 -0.4933 -1.8370 -0.2006
   6823SM   C5S 8814   1.738   2.402  16.831  0.1313 -0.3852 -0.0186
   6823SM   H5S 8815   1.812   2.328  16.866  1.0799  0.5588  0.0213
   6823SM   C6S 8816   1.649   2.358  16.715  0.4836 -0.0073  0.6621
   6823SM   H6S 8817   1.564   2.423  16.686  1.9709  1.6509 -0.1836
   6823SM   H6T 8818   1.612   2.254  16.732 -0.8165  0.0713 -1.2935
   6823SM   C7S 8819   1.749   2.350  16.590  0.1083 -0.6150 -0.1547
   6823SM   H7S 8820   1.812   2.260  16.604  0.2731 -0.2670  1.5695
   6823SM   H7T 8821   1.809   2.442  16.579  0.5604 -0.7461  1.0766
   6823SM   C8S 8822   1.682   2.316  16.459 -0.0754 -0.8690 -1.1327
   6823SM   H8S 8823   1.645   2.414  16.422  1.0836 -0.0139 -0.1264
   6823SM   H8T 8824   1.589   2.257  16.471 -0.1793 -0.3575  0.8254
   6823SM   C9S 8825   1.773   2.240  16.366 -0.2960  0.0456  0.0762
   6823SM   H9S 8826   1.767   2.135  16.402 -1.7623 -0.0588 -0.3965
   6823SM   H9T 8827   1.876   2.276  16.386 -0.7108  0.9474  0.6507
   6823SM  C10S 8828   1.726   2.250  16.219 -0.1642 -0.3039 -0.1233
   6823SM  H10S 8829   1.730   2.359  16.197  1.0740 -0.4870 -0.9153
   6823SM  H10T 8830   1.620   2.218  16.225  0.1692 -1.3542  0.4517
   6823SM  C11S 8831   1.806   2.168  16.119 -0.2611  0.0016 -0.1156
   6823SM  H11S 8832   1.732   2.095  16.081 -0.2268  0.2739 -0.7166
   6823SM  H11T 8833   1.894   2.121  16.168  1.0476  1.3725 -1.0685
   6823SM  C12S 8834   1.853   2.251  15.994 -0.4447  0.3744 -0.1793
   6823SM  H12S 8835   1.902   2.167  15.939 -0.1303  0.5882 -0.2277
   6823SM  H12T 8836   1.926   2.330  16.023 -0.8464  0.0211  1.9177
   6823SM  C13S 8837   1.738   2.307  15.907 -0.3162 -0.1108  0.0419
   6823SM  H13S 8838   1.699   2.402  15.948  0.0147  0.4255 -0.8573
   6823SM  H13T 8839   1.665   2.224  15.900 -1.0993  0.6999 -2.4779
   6823SM  C14S 8840   1.787   2.343  15.766  0.4766  0.3422  0.2651
   6823SM  H14S 8841   1.825   2.249  15.721  0.6471  1.0950 -1.2033
   6823SM  H14T 8842   1.876   2.409  15.771 -0.0232  1.1595 -1.0871
   6823SM  C15S 8843   1.672   2.401  15.678 -0.0588  0.1088 -0.8552
   6823SM  H15S 8844   1.640   2.492  15.732  1.4764  0.4959 -0.5464
   6823SM  H15T 8845   1.587   2.331  15.663  1.1006 -1.1740 -1.6939
   6823SM  C16S 8846   1.713   2.441  15.537 -0.4920 -0.2718  0.4380
   6823SM  H16S 8847   1.812   2.493  15.544  0.1386 -1.2930 -0.6356
   6823SM  H16T 8848   1.657   2.524  15.489 -2.3775 -1.0225  1.2686
   6823SM  C17S 8849   1.725   2.328  15.435  0.4738  0.0560 -0.3093
   6823SM  H17S 8850   1.624   2.284  15.417 -0.4545 -0.2587  4.2522
   6823SM  H17T 8851   1.773   2.246  15.494  1.2488 -0.0995 -1.1392
   6823SM  C18S 8852   1.804   2.370  15.319 -0.1947 -0.5856 -0.1878
   6823SM  H18S 8853   1.911   2.378  15.348  0.3165 -0.0821 -2.0533
   6823SM  H18T 8854   1.763   2.465  15.280 -0.9085 -1.0120 -0.5089
   6823SM  H18U 8855   1.804   2.298  15.233  1.5922  0.3953 -1.0701
   6823SM   C1F 8856   2.112   2.724  16.799  0.4320  0.0410  0.9777
   6823SM    OF 8857   2.200   2.657  16.846 -0.6140 -0.2943  0.3063
   6823SM   C2F 8858   2.130   2.827  16.687 -0.0990  0.7859  0.5943
   6823SM   H2F 8859   2.224   2.879  16.713 -0.9752  2.2451  0.9293
   6823SM   H2G 8860   2.046   2.900  16.692 -0.5487  0.2093  1.7726
   6823SM   C3F 8861   2.139   2.754  16.550  0.2552 -0.1084  0.3978
   6823SM   H3F 8862   2.238   2.710  16.525 -0.8362 -1.2731 -2.3467
   6823SM   H3G 8863   2.124   2.837  16.479 -0.8308 -0.6842 -0.0735
   6823SM   C4F 8864   2.036   2.642  16.534  0.4256 -0.5742  0.4720
   6823SM   H4F 8865   1.939   2.687  16.566  1.0039 -0.3949  2.1098
   6823SM   H4G 8866   2.043   2.555  16.603  0.2444 -0.3208  0.8144
   6823SM   C5F 8867   2.035   2.578  16.392  0.0638  0.3722 -0.3549
   6823SM   H5F 8868   1.943   2.515  16.382 -1.3655  2.0082  1.5417
   6823SM   H5G 8869   2.129   2.519  16.384  0.7522  1.2786  0.8241
   6823SM   C6F 8870   2.044   2.681  16.279  0.7356 -0.1052  0.4494
   6823SM   H6F 8871   2.143   2.731  16.280  0.8484 -0.2331 -1.2298
   6823SM   H6G 8872   1.965   2.755  16.302  2.2624  1.8756 -0.3860
   6823SM   C7F 8873   2.022   2.628  16.142  1.0567 -0.4907  0.1519
   6823SM   H7F 8874   1.926   2.573  16.132  0.3674  0.8006 -0.7457
   6823SM   H7G 8875   2.105   2.555  16.134  1.8206  0.2284  1.2410
   6823SM   C8F 8876   2.027   2.733  16.032  0.0594 -0.4236 -0.7705
   6823SM   H8F 8877   2.118   2.796  16.033 -0.0027 -0.3025 -1.6463
   6823SM   H8G 8878   1.946   2.804  16.058 -0.3698 -1.1081 -0.1937
   6823SM   C9F 8879   2.018   2.678  15.890 -0.1138  0.4142 -0.1945
   6823SM   H9F 8880   1.915   2.641  15.870 -0.7529  2.6944 -1.4884
   6823SM   H9G 8881   2.087   2.592  15.882  0.1583  0.6870 -0.8073
   6823SM  C10F 8882   2.058   2.776  15.775 -0.6922 -0.4705  0.1959
   6823SM  H10F 8883   2.154   2.830  15.792 -0.4122 -1.0871  0.6236
   6823SM  H10G 8884   1.988   2.861  15.768 -0.8349 -0.2572  2.9489
   6823SM  C11F 8885   2.087   2.699  15.641 -0.0115 -0.0238  0.0010
   6823SM  H11F 8886   2.011   2.619  15.641 -0.5515  0.4849  0.1870
   6823SM  H11G 8887   2.193   2.665  15.642  0.1806  0.5703  0.4369
   6823SM  C12F 8888   2.063   2.786  15.515  0.5967 -0.4711  0.1056
   6823SM  H12F 8889   2.147   2.858  15.508  1.1733 -1.1332  0.0010
   6823SM  H12G 8890   1.970   2.844  15.530 -1.0381 -2.6585 -0.8894
   6823SM  C13F 8891   2.064   2.703  15.388  0.1206 -0.3770 -0.2213
   6823SM  H13F 8892   1.974   2.638  15.378  2.4011 -3.5435 -2.5213
   6823SM  H13G 8893   2.153   2.637  15.398  0.0165 -0.1868  2.7365
   6823SM  C14F 8894   2.078   2.787  15.261  0.1641 -0.2917 -0.4284
   6823SM  H14F 8895   2.172   2.843  15.282 -0.4464 -0.0708  2.1608
   6823SM  H14G 8896   1.998   2.864  15.252  0.7357  0.2469 -0.9821
   6823SM  C15F 8897   2.086   2.702  15.139 -0.2089 -0.3384 -0.0913
   6823SM  H15F 8898   2.042   2.762  15.056 -0.1470 -0.9411 -0.5658
   6823SM  H15G 8899   2.015   2.617  15.154 -2.8642  1.3150 -2.2649
   6823SM  C16F 8900   2.231   2.639  15.127 -0.8373 -1.0196 -0.2964
   6823SM  H16F 8901   2.243   2.565  15.208 -0.8610 -0.4024  0.2813
   6823SM  H16G 8902   2.305   2.723  15.128 -0.2953 -1.4747 -1.0579
   6823SM  C17F 8903   2.255   2.553  15.001 -0.3199 -0.0632 -0.0904
   6823SM  H17F 8904   2.175   2.477  14.991  0.0667 -0.4457 -0.2967
   6823SM  H17G 8905   2.353   2.502  15.013  0.0373  0.6918  0.2947
   6823SM  C18F 8906   2.260   2.624  14.862  0.5644  0.2380  0.0115
   6823SM  H18F 8907   2.318   2.718  14.869  2.9178 -1.2306  1.9761
   6823SM  H18G 8908   2.154   2.643  14.835  1.1475 -0.4112 -3.2307
   6823SM  C19F 8909   2.310   2.541  14.742  0.6276 -0.3739 -0.2481
   6823SM  H19F 8910   2.419   2.525  14.752  0.8092  0.5770 -0.6369
   6823SM  H19G 8911   2.287   2.614  14.662  1.3136 -0.2882 -0.3720
   6823SM  C20F 8912   2.242   2.404  14.732 -0.1856 -0.5165 -0.1616
   6823SM  H20F 8913   2.138   2.417  14.768  1.2170  0.8181  4.0047
   6823SM  H20G 8914   2.294   2.339  14.805  1.4689  1.4392  0.5038
   6823SM  C21F 8915   2.243   2.341  14.596  0.3957  0.5092  0.3242
   6823SM  H21F 8916   2.143   2.359  14.550 -0.2770 -1.2344  1.0204
   6823SM  H21G 8917   2.247   2.230  14.605 -1.1106  0.2624 -1.4720
   6823SM  C22F 8918   2.353   2.386  14.492 -0.5463 -0.3353 -0.4179
   6823SM  H22F 8919   2.446   2.360  14.547 -0.2138  2.4417  0.4792
   6823SM  H22G 8920   2.348   2.495  14.471  2.1033 -0.0399  0.1273
   6823SM  C23F 8921   2.341   2.316  14.357  0.1124 -0.5763  0.0571
   6823SM  H23F 8922   2.425   2.340  14.289 -0.3873 -0.9520 -0.6966
   6823SM  H23G 8923   2.248   2.360  14.316 -0.4017  0.6033  2.3197
   6823SM  H23H 8924   2.326   2.208  14.377 -0.7242 -0.6576 -0.9486
   6923SM     N 8925   4.758   1.812  17.018  0.7441  0.3774 -0.0468
   6923SM   C15 8926   4.759   1.956  17.049  0.4483  0.1902 -0.3738
   6923SM  H15A 8927   4.709   1.988  17.139  1.1380 -0.8176  0.3855
   6923SM  H15B 8928   4.717   2.019  16.972  1.1279 -0.0654 -0.9554
   6923SM  H15C 8929   4.862   1.986  17.047  1.7406 -3.5642  0.8982
   6923SM   C14 8930   4.812   1.803  16.880  0.4136 -0.9105 -0.5044
   6923SM  H14A 8931   4.750   1.860  16.813 -0.2542  0.0269  0.8797
   6923SM  H14B 8932   4.815   1.703  16.838  1.1844 -1.4078  0.6956
   6923SM  H14C 8933   4.910   1.848  16.890 -0.6985  1.4187  0.4956
   6923SM   C13 8934   4.846   1.737  17.106 -0.4116  0.6738 -0.2903
   6923SM  H13A 8935   4.801   1.687  17.191  0.7779 -1.9792 -1.1279
   6923SM  H13B 8936   4.929   1.799  17.139 -0.6555 -0.0233  1.7807
   6923SM  H13C 8937   4.897   1.649  17.069  2.2460  0.8976  2.4387
   6923SM   C12 8938   4.620   1.756  17.012 -0.2115  0.8261  0.7240
   6923SM  H12A 8939   4.636   1.650  17.000  3.6096  1.2527  0.8430
   6923SM  H12B 8940   4.572   1.807  16.930 -0.3497 -1.9758 -1.0600
   6923SM   C11 8941   4.522   1.762  17.129  0.2391  0.8624 -0.3571
   6923SM  H11A 8942   4.579   1.747  17.224 -1.6128  0.6349  0.7684
   6923SM  H11B 8943   4.442   1.686  17.130 -0.1653  1.2790  0.3920
   6923SM     P 8944   4.333   1.915  17.030  0.0837  0.3483  0.0879
   6923SM   O13 8945   4.226   1.816  17.057  0.2308  0.2420  0.0310
   6923SM   O14 8946   4.300   2.057  17.044  0.3748  0.2107  0.4147
   6923SM   O11 8947   4.411   1.878  16.891  0.3049  0.4098 -0.0110
   6923SM   O12 8948   4.451   1.888  17.136 -0.3856 -0.1757 -0.4497
   6923SM   C1S 8949   4.335   1.853  16.770 -0.4559 -0.4431  0.1858
   6923SM   H1S 8950   4.230   1.823  16.788 -0.4651 -0.7754 -0.3901
   6923SM   H1T 8951   4.394   1.770  16.726  2.6794  0.0418  3.0456
   6923SM    NF 8952   4.242   1.979  16.583  0.0120 -0.2736  0.3388
   6923SM   HNF 8953   4.277   1.970  16.490  0.6336  3.0069  0.1496
   6923SM   C2S 8954   4.343   1.979  16.683  0.5441 -0.3393  0.2343
   6923SM   H2S 8955   4.309   2.061  16.749 -1.6881 -0.8925 -0.1593
   6923SM   C3S 8956   4.494   2.004  16.643  0.9117 -0.5891  0.6185
   6923SM   H3S 8957   4.541   1.923  16.583  3.6395  2.0732 -1.1316
   6923SM    O3 8958   4.582   2.030  16.753 -0.2147 -0.0281 -0.2626
   6923SM   HO3 8959   4.528   2.015  16.831  0.9475  0.9998  0.7892
   6923SM   C4S 8960   4.487   2.125  16.551  0.0636  0.8689  0.1698
   6923SM   H4S 8961   4.488   2.095  16.446 -1.5735 -1.7137  0.8150
   6923SM   C5S 8962   4.479   2.254  16.583 -1.3234 -0.3604 -0.1943
   6923SM   H5S 8963   4.477   2.297  16.685 -0.4644  1.0526 -0.7325
   6923SM   C6S 8964   4.466   2.363  16.480  0.2415  0.3992  0.4590
   6923SM   H6S 8965   4.519   2.456  16.511 -0.1411  0.6130  0.4890
   6923SM   H6T 8966   4.355   2.368  16.472 -0.0016 -4.0633 -2.1637
   6923SM   C7S 8967   4.520   2.324  16.340  0.1931 -0.3146 -0.7552
   6923SM   H7S 8968   4.473   2.238  16.288  0.9199 -0.9023 -0.4683
   6923SM   H7T 8969   4.628   2.301  16.353  0.0756  0.2350  1.7623
   6923SM   C8S 8970   4.503   2.427  16.230 -0.5256 -0.5212 -0.4702
   6923SM   H8S 8971   4.576   2.510  16.235 -1.1041 -0.0610  0.9186
   6923SM   H8T 8972   4.404   2.476  16.245  0.1025  1.0975 -1.3931
   6923SM   C9S 8973   4.514   2.369  16.091  0.0699  0.6084  0.5587
   6923SM   H9S 8974   4.425   2.306  16.068  1.2205 -0.4300 -1.3081
   6923SM   H9T 8975   4.592   2.290  16.087 -0.0251  0.5571 -0.9516
   6923SM  C10S 8976   4.555   2.466  15.979 -0.0292  0.1206  0.2666
   6923SM  H10S 8977   4.654   2.513  16.000  0.4516 -0.2393 -1.1166
   6923SM  H10T 8978   4.471   2.538  15.976 -0.4817 -0.4118  0.0373
   6923SM  C11S 8979   4.558   2.402  15.838  0.4277 -0.4293 -0.6496
   6923SM  H11S 8980   4.572   2.480  15.761 -2.0078  0.0661 -0.6462
   6923SM  H11T 8981   4.456   2.359  15.829 -1.1551  2.6642  1.1411
   6923SM  C12S 8982   4.654   2.278  15.820  1.0374  0.6412  0.0802
   6923SM  H12S 8983   4.655   2.195  15.893  2.2201 -1.2020 -1.9155
   6923SM  H12T 8984   4.755   2.323  15.835  1.5258 -0.1116 -0.8755
   6923SM  C13S 8985   4.646   2.213  15.677 -0.2458 -0.4391  0.6313
   6923SM  H13S 8986   4.558   2.146  15.683 -0.5794 -0.1681 -0.9784
   6923SM  H13T 8987   4.736   2.155  15.646 -0.4092 -0.1418 -0.4150
   6923SM  C14S 8988   4.620   2.322  15.565 -0.1006 -0.0351  0.5957
   6923SM  H14S 8989   4.694   2.404  15.569 -0.6281  0.5253 -0.7952
   6923SM  H14T 8990   4.517   2.362  15.578 -0.2063  0.3575 -1.2351
   6923SM  C15S 8991   4.620   2.249  15.432  0.3400 -0.6733  0.0790
   6923SM  H15S 8992   4.550   2.162  15.439 -3.2042  1.9378 -0.4104
   6923SM  H15T 8993   4.720   2.201  15.432  0.5864 -0.2477  1.8345
   6923SM  C16S 8994   4.600   2.339  15.312  0.2989  0.4112  0.3050
   6923SM  H16S 8995   4.665   2.429  15.325  2.8266 -0.7710 -2.7932
   6923SM  H16T 8996   4.493   2.363  15.297 -0.1768 -0.4168  2.1574
   6923SM  C17S 8997   4.671   2.295  15.185  0.2942  0.1766  0.4175
   6923SM  H17S 8998   4.620   2.207  15.140  2.9811 -0.2350 -2.0785
   6923SM  H17T 8999   4.772   2.262  15.217  0.2337 -0.9585 -0.5003
   6923SM  C18S 9000   4.693   2.401  15.073  0.0308 -0.2997 -0.9420
   6923SM  H18S 9001   4.596   2.418  15.020 -0.0692 -1.0804 -1.0162
   6923SM  H18T 9002   4.771   2.362  15.004  1.2228 -2.5183  1.5086
   6923SM  H18U 9003   4.727   2.500  15.110 -0.4743  0.1092 -1.5592
   6923SM   C1F 9004   4.110   1.976  16.600  0.1273  0.7082 -0.4766
   6923SM    OF 9005   4.070   1.999  16.716  0.4876  0.6417 -0.6386
   6923SM   C2F 9006   4.030   1.950  16.482 -0.5439 -0.0245 -0.4759
   6923SM   H2F 9007   4.076   1.861  16.433  1.4535  1.5900 -1.6650
   6923SM   H2G 9008   4.033   2.039  16.416 -1.6178  0.5699  0.2489
   6923SM   C3F 9009   3.886   1.900  16.515  0.6119 -0.2092  0.5976
   6923SM   H3F 9010   3.829   1.983  16.562 -0.3018  0.6359 -1.8171
   6923SM   H3G 9011   3.891   1.813  16.584  1.5159 -1.0235 -0.4483
   6923SM   C4F 9012   3.804   1.861  16.391 -0.5701 -0.1755 -0.0229
   6923SM   H4F 9013   3.696   1.840  16.409 -0.9832  1.4820 -0.3523
   6923SM   H4G 9014   3.842   1.766  16.349 -1.0438 -0.5590  0.4061
   6923SM   C5F 9015   3.808   1.972  16.285  0.8411  0.4738  0.3508
   6923SM   H5F 9016   3.910   2.009  16.264  0.6473 -0.1190 -1.9403
   6923SM   H5G 9017   3.753   2.059  16.327 -1.6224 -0.8220  0.0120
   6923SM   C6F 9018   3.735   1.926  16.165  0.6447  0.4602  0.7543
   6923SM   H6F 9019   3.628   1.915  16.191  0.7823  1.4866  1.8268
   6923SM   H6G 9020   3.783   1.842  16.110 -0.9565 -0.1810  0.2879
   6923SM   C7F 9021   3.741   2.054  16.072 -0.3126  0.2835  0.2797
   6923SM   H7F 9022   3.842   2.098  16.053 -1.1269  2.4424  0.6599
   6923SM   H7G 9023   3.692   2.139  16.123 -1.2868 -0.6532  0.9496
   6923SM   C8F 9024   3.675   2.024  15.937 -0.1838 -0.0177  0.0023
   6923SM   H8F 9025   3.567   2.001  15.941  0.1398 -1.8153 -0.5523
   6923SM   H8G 9026   3.725   1.934  15.894  0.8481  0.6689 -0.2791
   6923SM   C9F 9027   3.685   2.137  15.840  0.0467 -0.3930 -0.1819
   6923SM   H9F 9028   3.791   2.163  15.817 -0.3357  2.2974  0.7231
   6923SM   H9G 9029   3.640   2.224  15.892  1.6037 -0.4696  1.3479
   6923SM  C10F 9030   3.622   2.109  15.700 -0.0726  0.2865 -0.3504
   6923SM  H10F 9031   3.616   2.205  15.643  0.2700  0.6328  0.1955
   6923SM  H10G 9032   3.519   2.067  15.699  0.2773 -0.5923 -0.8652
   6923SM  C11F 9033   3.710   2.012  15.620  0.4464  0.2520  0.5116
   6923SM  H11F 9034   3.684   1.907  15.646 -2.1882  1.4156  3.0857
   6923SM  H11G 9035   3.815   2.030  15.651  0.1100 -0.8985  2.4528
   6923SM  C12F 9036   3.680   2.034  15.472 -0.7188 -0.2501 -0.2047
   6923SM  H12F 9037   3.697   2.138  15.438  1.0575 -1.0703 -2.0280
   6923SM  H12G 9038   3.574   2.006  15.459 -0.7154 -0.5558  0.3899
   6923SM  C13F 9039   3.768   1.945  15.378  0.1595 -0.7537 -0.7803
   6923SM  H13F 9040   3.752   1.841  15.414  1.4771 -1.2218 -1.4589
   6923SM  H13G 9041   3.875   1.970  15.396 -0.5258  1.3090  0.8305
   6923SM  C14F 9042   3.733   1.984  15.237  0.1118  0.0978 -0.2255
   6923SM  H14F 9043   3.757   2.091  15.220 -0.8797 -0.0700 -3.3575
   6923SM  H14G 9044   3.625   1.965  15.217  0.6501 -2.1715 -1.3832
   6923SM  C15F 9045   3.812   1.899  15.134 -0.4605  0.7747  0.7850
   6923SM  H15F 9046   3.793   1.790  15.144 -0.8602  0.8712  1.0789
   6923SM  H15G 9047   3.920   1.919  15.152  0.0237 -0.0720 -0.9614
   6923SM  C16F 9048   3.778   1.935  14.989 -0.0922  0.3547  0.7332
   6923SM  H16F 9049   3.765   2.045  14.986 -0.1688  0.3287 -1.4378
   6923SM  H16G 9050   3.678   1.895  14.960  0.4203 -1.5167  1.3689
   6923SM  C17F 9051   3.893   1.896  14.895 -0.1633  0.5995 -0.0437
   6923SM  H17F 9052   3.887   1.786  14.892 -1.7589  0.6321  0.8659
   6923SM  H17G 9053   3.990   1.928  14.939  1.4574 -0.0324 -2.8876
   6923SM  C18F 9054   3.873   1.938  14.748 -0.3711 -0.6156  0.4127
   6923SM  H18F 9055   3.952   1.893  14.685 -0.9326  1.4822 -2.0187
   6923SM  H18G 9056   3.877   2.049  14.737  0.6629 -0.7745 -1.1750
   6923SM  C19F 9057   3.737   1.903  14.676  0.3485  0.6379 -0.3839
   6923SM  H19F 9058   3.741   1.944  14.573 -2.1472  2.0297 -0.0135
   6923SM  H19G 9059   3.651   1.952  14.727 -0.0073  0.4693 -0.8166
   6923SM  C20F 9060   3.711   1.750  14.651 -0.3537 -0.1722 -0.3274
   6923SM  H20F 9061   3.677   1.698  14.743 -0.5570 -0.8303 -0.7647
   6923SM  H20G 9062   3.809   1.707  14.621  0.1083 -0.1121  1.0248
   6923SM  C21F 9063   3.596   1.730  14.550  0.1883  0.0356 -0.4612
   6923SM  H21F 9064   3.634   1.723  14.446 -1.0405 -2.4685 -0.8111
   6923SM  H21G 9065   3.542   1.827  14.544 -1.3405 -0.6434  1.4178
   6923SM  C22F 9066   3.498   1.617  14.585 -0.4841  0.1227  0.3935
   6923SM  H22F 9067   3.402   1.644  14.536  0.3859  1.6560 -0.5683
   6923SM  H22G 9068   3.476   1.618  14.694 -2.0724  1.0220  0.1015
   6923SM  C23F 9069   3.538   1.476  14.537 -0.6347 -0.2623 -0.0420
   6923SM  H23F 9070   3.557   1.473  14.427  0.5449 -0.5706  0.1594
   6923SM  H23G 9071   3.460   1.402  14.565 -2.0272  0.1927 -2.4230
   6923SM  H23H 9072   3.635   1.445  14.581  0.0736 -0.4637 -1.6800
   7023SM     N 9073   3.843   2.098  16.920 -0.2646 -0.1643 -0.5931
   7023SM   C15 9074   3.802   2.149  16.782 -0.3766  0.1047  0.2940
   7023SM  H15A 9075   3.790   2.256  16.778  0.0604  0.2059  1.3818
   7023SM  H15B 9076   3.710   2.102  16.750  0.1863  0.0450 -1.3505
   7023SM  H15C 9077   3.873   2.118  16.707 -3.3603 -3.4010 -1.4427
   7023SM   C14 9078   3.973   2.160  16.950 -0.0230 -0.2462  0.1439
   7023SM  H14A 9079   4.050   2.117  16.887 -0.9048  0.8211 -1.7519
   7023SM  H14B 9080   4.007   2.154  17.053  0.8482  0.3436 -0.0907
   7023SM  H14C 9081   3.970   2.266  16.928  1.5580 -0.5374 -1.7535
   7023SM   C13 9082   3.742   2.142  17.021  0.4623 -0.6025 -0.8174
   7023SM  H13A 9083   3.751   2.085  17.112 -1.5332  1.7304  0.9831
   7023SM  H13B 9084   3.639   2.129  16.989  0.3400 -1.1202 -0.2322
   7023SM  H13C 9085   3.765   2.247  17.036  0.5737 -0.3213 -2.6797
   7023SM   C12 9086   3.862   1.943  16.921 -0.0385 -0.9049  0.0602
   7023SM  H12A 9087   3.934   1.927  16.842  1.8880  0.1211  1.5088
   7023SM  H12B 9088   3.774   1.898  16.879 -0.9358  0.3624  0.5074
   7023SM   C11 9089   3.901   1.871  17.047 -0.6744 -0.1040 -0.4848
   7023SM  H11A 9090   3.976   1.927  17.108 -1.0274 -0.9450  0.7697
   7023SM  H11B 9091   3.945   1.770  17.034 -0.8498 -0.3173  0.4431
   7023SM     P 9092   3.674   1.742  17.101 -0.4129  0.0699  0.7817
   7023SM   O13 9093   3.733   1.616  17.145  0.0204  0.6737 -0.5517
   7023SM   O14 9094   3.549   1.782  17.160 -0.1387  0.0872 -0.0930
   7023SM   O11 9095   3.654   1.734  16.939  0.0312  0.6327  0.6050
   7023SM   O12 9096   3.782   1.856  17.129  0.3764  0.2893  0.0036
   7023SM   C1S 9097   3.544   1.796  16.874  0.0265 -0.6909 -0.4755
   7023SM   H1S 9098   3.543   1.905  16.897 -1.3456 -0.6393 -0.7304
   7023SM   H1T 9099   3.446   1.748  16.894  0.7203 -2.3935 -1.0143
   7023SM    NF 9100   3.436   1.845  16.661 -0.1386 -0.1644  0.0982
   7023SM   HNF 9101   3.355   1.790  16.639  1.4605 -2.6471  0.0127
   7023SM   C2S 9102   3.547   1.783  16.723  0.0560  0.4492  0.2602
   7023SM   H2S 9103   3.638   1.828  16.679 -1.0096  3.0667  0.5441
   7023SM   C3S 9104   3.554   1.629  16.695 -0.3719  0.4777 -0.0116
   7023SM   H3S 9105   3.475   1.577  16.754 -1.3153  0.8958 -0.8652
   7023SM    O3 9106   3.682   1.582  16.733  0.2856  0.2743 -0.2823
   7023SM   HO3 9107   3.687   1.609  16.825  2.0714  1.5068 -0.6939
   7023SM   C4S 9108   3.536   1.600  16.549  0.0622 -0.0295  0.5134
   7023SM   H4S 9109   3.609   1.644  16.480 -0.8850 -0.5098 -0.8275
   7023SM   C5S 9110   3.426   1.541  16.496  0.0990 -0.0378 -0.5290
   7023SM   H5S 9111   3.351   1.508  16.569 -0.7240  1.6608 -0.5548
   7023SM   C6S 9112   3.400   1.519  16.351  0.2184 -0.0273 -0.1433
   7023SM   H6S 9113   3.297   1.553  16.328 -0.2097 -0.8273  0.5455
   7023SM   H6T 9114   3.409   1.409  16.338  0.8267 -0.2355  1.7032
   7023SM   C7S 9115   3.495   1.576  16.250  0.6068 -0.3582 -0.3242
   7023SM   H7S 9116   3.599   1.538  16.249  1.3935  1.2583  3.3291
   7023SM   H7T 9117   3.507   1.685  16.265 -0.6130  0.2107 -2.8859
   7023SM   C8S 9118   3.444   1.567  16.111 -0.0275 -0.2345 -0.2597
   7023SM   H8S 9119   3.334   1.556  16.122  0.0783 -0.2156  0.9332
   7023SM   H8T 9120   3.455   1.468  16.063 -0.3108  0.2883 -1.4606
   7023SM   C9S 9121   3.494   1.682  16.025 -0.2716 -0.3382  0.1374
   7023SM   H9S 9122   3.604   1.670  16.034 -0.3356  0.6385  3.3758
   7023SM   H9T 9123   3.472   1.780  16.073  0.4848 -0.3939  0.6122
   7023SM  C10S 9124   3.450   1.689  15.875  0.0431 -0.4017  0.0684
   7023SM  H10S 9125   3.504   1.772  15.825 -0.1929 -0.3387 -0.0828
   7023SM  H10T 9126   3.345   1.723  15.868  0.0105 -0.6713 -0.9773
   7023SM  C11S 9127   3.462   1.556  15.794  0.8524 -0.2385 -0.2139
   7023SM  H11S 9128   3.401   1.480  15.848  0.7035  0.3707  0.5055
   7023SM  H11T 9129   3.570   1.534  15.803  1.1766  1.9068  2.7692
   7023SM  C12S 9130   3.436   1.562  15.644 -0.0380  0.1464  0.0768
   7023SM  H12S 9131   3.326   1.570  15.633 -0.9074 -1.3928  5.2531
   7023SM  H12T 9132   3.470   1.464  15.603  1.3835  1.2117 -1.4198
   7023SM  C13S 9133   3.498   1.679  15.567 -0.0676 -0.3231 -1.2054
   7023SM  H13S 9134   3.607   1.671  15.590 -0.5739 -2.8405  0.6882
   7023SM  H13T 9135   3.462   1.777  15.606  1.7979 -0.6036  1.5769
   7023SM  C14S 9136   3.475   1.672  15.413 -0.3340 -0.4693  0.8366
   7023SM  H14S 9137   3.455   1.566  15.389 -2.3528 -0.2614  1.4002
   7023SM  H14T 9138   3.574   1.704  15.373  0.5716 -0.4008  2.9405
   7023SM  C15S 9139   3.373   1.767  15.355 -0.0325 -0.3856 -0.1483
   7023SM  H15S 9140   3.402   1.873  15.372  0.2592 -0.3729 -0.7149
   7023SM  H15T 9141   3.275   1.747  15.404 -0.4268 -0.1777 -0.8459
   7023SM  C16S 9142   3.341   1.750  15.210 -0.0854 -0.2338 -0.0316
   7023SM  H16S 9143   3.256   1.811  15.174  1.2975  1.3941 -0.6416
   7023SM  H16T 9144   3.298   1.650  15.189 -0.3335  0.2343 -1.8960
   7023SM  C17S 9145   3.461   1.767  15.120  0.6017  0.1397  0.1652
   7023SM  H17S 9146   3.548   1.705  15.151 -0.0349 -0.6808  0.3594
   7023SM  H17T 9147   3.489   1.874  15.110 -0.7323  0.3178 -2.5144
   7023SM  C18S 9148   3.423   1.733  14.975  0.5481  0.7829  0.1901
   7023SM  H18S 9149   3.508   1.757  14.908 -0.3550  0.2647 -1.1860
   7023SM  H18T 9150   3.330   1.785  14.945  0.5493  0.5837 -0.1632
   7023SM  H18U 9151   3.403   1.624  14.969 -1.8909  1.2146 -0.4674
   7023SM   C1F 9152   3.420   1.976  16.639 -0.4006  0.8496 -0.1049
   7023SM    OF 9153   3.504   2.056  16.675 -0.2266  0.1589  0.2523
   7023SM   C2F 9154   3.288   2.020  16.578 -0.1776 -0.3268  0.0017
   7023SM   H2F 9155   3.258   2.112  16.631 -1.5784  1.2262 -3.2176
   7023SM   H2G 9156   3.209   1.943  16.594 -1.0204  0.2818 -1.1072
   7023SM   C3F 9157   3.312   2.059  16.431  0.5724  0.3680  0.1565
   7023SM   H3F 9158   3.412   2.105  16.413 -0.0510  1.1908 -1.3183
   7023SM   H3G 9159   3.228   2.125  16.404 -0.6552 -1.2836 -0.2472
   7023SM   C4F 9160   3.301   1.939  16.335 -0.0153  0.3742 -0.8941
   7023SM   H4F 9161   3.204   1.886  16.346 -0.4076  1.2122 -0.1967
   7023SM   H4G 9162   3.388   1.873  16.354 -1.8460 -2.3409 -1.3394
   7023SM   C5F 9163   3.310   1.974  16.179  0.2070  1.2392  0.7725
   7023SM   H5F 9164   3.288   1.880  16.125 -0.6339  0.9214  1.6344
   7023SM   H5G 9165   3.409   2.012  16.147  0.4115  0.6840  0.7297
   7023SM   C6F 9166   3.204   2.085  16.143  0.2401  0.1279 -0.1539
   7023SM   H6F 9167   3.237   2.182  16.187  0.9302 -0.4753  0.6751
   7023SM   H6G 9168   3.116   2.049  16.199  2.3194 -1.8142  2.0852
   7023SM   C7F 9169   3.176   2.090  15.986 -0.1020 -0.3371 -0.2967
   7023SM   H7F 9170   3.112   2.180  15.977 -4.8850 -3.2635  0.6538
   7023SM   H7G 9171   3.115   2.004  15.952  0.4705 -0.8219 -0.1208
   7023SM   C8F 9172   3.297   2.108  15.892 -0.0468  0.8032 -0.4472
   7023SM   H8F 9173   3.342   2.007  15.875  0.2063  0.4119  2.1283
   7023SM   H8G 9174   3.374   2.165  15.948  0.9919  0.2057 -1.2132
   7023SM   C9F 9175   3.252   2.177  15.761 -0.2568 -0.4998 -1.2396
   7023SM   H9F 9176   3.328   2.189  15.682 -2.1556 -1.1604 -3.2781
   7023SM   H9G 9177   3.214   2.278  15.784 -1.2254 -1.2306  0.6406
   7023SM  C10F 9178   3.149   2.096  15.682  0.3352  0.1006  0.6952
   7023SM  H10F 9179   3.049   2.099  15.732 -1.0677 -0.9815 -1.8587
   7023SM  H10G 9180   3.184   1.990  15.681 -3.8012 -1.4926 -1.7804
   7023SM  C11F 9181   3.123   2.128  15.534 -0.1988 -0.3792  0.0219
   7023SM  H11F 9182   3.082   2.231  15.522  0.5387 -0.2109 -1.1682
   7023SM  H11G 9183   3.043   2.058  15.500 -1.9406  1.8405 -0.7522
   7023SM  C12F 9184   3.252   2.128  15.446  0.5908 -0.1950 -0.3857
   7023SM  H12F 9185   3.293   2.026  15.460 -1.6850 -1.0299  0.5154
   7023SM  H12G 9186   3.319   2.211  15.479  1.0426 -0.1348 -1.3822
   7023SM  C13F 9187   3.232   2.146  15.295  0.2311  0.0422 -0.3883
   7023SM  H13F 9188   3.187   2.248  15.287 -1.2742 -0.4429  1.1400
   7023SM  H13G 9189   3.174   2.062  15.250  0.5107  0.0582 -0.7808
   7023SM  C14F 9190   3.366   2.145  15.229 -0.1513  0.3684  0.0117
   7023SM  H14F 9191   3.414   2.045  15.233 -0.1271  0.3528 -0.6684
   7023SM  H14G 9192   3.438   2.212  15.282  0.6053 -1.1628  0.9749
   7023SM  C15F 9193   3.357   2.178  15.083 -0.0505 -0.1509  0.6482
   7023SM  H15F 9194   3.305   2.273  15.059 -2.5267 -1.4046  0.7139
   7023SM  H15G 9195   3.304   2.096  15.030  1.8018 -0.9168 -0.1294
   7023SM  C16F 9196   3.496   2.194  15.018  0.2094 -0.3442  0.2427
   7023SM  H16F 9197   3.526   2.096  14.977  2.2014  0.8017 -1.2446
   7023SM  H16G 9198   3.567   2.221  15.099  0.4305 -0.0104 -0.0545
   7023SM  C17F 9199   3.501   2.295  14.902 -0.4371  0.5602  0.0461
   7023SM  H17F 9200   3.603   2.284  14.860 -1.1361 -1.8766 -1.2617
   7023SM  H17G 9201   3.490   2.396  14.946  2.0014  1.0542 -0.3798
   7023SM  C18F 9202   3.396   2.270  14.789 -0.5273 -0.0057 -0.6738
   7023SM  H18F 9203   3.417   2.340  14.705 -0.2027  2.5760  1.4184
   7023SM  H18G 9204   3.297   2.287  14.838  0.4228  3.2611  0.3609
   7023SM  C19F 9205   3.394   2.126  14.732  0.1177 -0.3166  0.4003
   7023SM  H19F 9206   3.396   2.048  14.811  1.2946 -0.6793  0.0269
   7023SM  H19G 9207   3.488   2.117  14.674 -0.2018  0.5498 -0.2710
   7023SM  C20F 9208   3.275   2.086  14.637  0.3017 -0.7782  0.3705
   7023SM  H20F 9209   3.284   1.989  14.583 -0.6597  0.8146 -2.9296
   7023SM  H20G 9210   3.300   2.160  14.557  0.7637 -0.0785  1.1469
   7023SM  C21F 9211   3.136   2.124  14.694 -0.3727 -0.7053  0.3077
   7023SM  H21F 9212   3.058   2.121  14.615  1.9806  2.1220 -2.3979
   7023SM  H21G 9213   3.130   2.222  14.746 -0.8688 -1.1500  1.1088
   7023SM  C22F 9214   3.101   2.020  14.806  0.6758 -0.2821  0.6891
   7023SM  H22F 9215   3.152   2.051  14.900 -0.8264 -0.5813  1.6294
   7023SM  H22G 9216   3.152   1.923  14.787  0.5094 -0.2614  0.1244
   7023SM  C23F 9217   2.955   2.004  14.833 -0.8873  0.0236  1.0336
   7023SM  H23F 9218   2.912   2.100  14.870  0.9190  1.7997 -1.1705
   7023SM  H23G 9219   2.920   1.932  14.910 -0.3867 -1.3287  0.0379
   7023SM  H23H 9220   2.897   1.986  14.740  0.2823  0.1083  0.2803
   7123SM     N 9221   3.515   1.341  17.439 -0.1973  0.2089 -0.5936
   7123SM   C15 9222   3.470   1.417  17.563 -0.6218 -0.0346 -0.7733
   7123SM  H15A 9223   3.368   1.394  17.592 -0.8287  1.8062  0.0783
   7123SM  H15B 9224   3.477   1.522  17.541 -0.4439 -0.0988 -1.0251
   7123SM  H15C 9225   3.535   1.398  17.647  2.0113  1.7056 -2.3129
   7123SM   C14 9226   3.616   1.418  17.359 -0.5691  0.0645 -0.0634
   7123SM  H14A 9227   3.638   1.372  17.264 -0.1173  1.0103 -0.4321
   7123SM  H14B 9228   3.708   1.435  17.413 -0.2284  1.3480 -1.0051
   7123SM  H14C 9229   3.575   1.512  17.327  0.7244  1.2587  1.5949
   7123SM   C13 9230   3.580   1.216  17.482 -0.4368  0.2338  0.0517
   7123SM  H13A 9231   3.650   1.237  17.561 -2.2252 -1.6674  2.2869
   7123SM  H13B 9232   3.636   1.175  17.400  0.7032  2.5201 -0.3918
   7123SM  H13C 9233   3.512   1.139  17.516 -0.6538 -0.4940 -1.9289
   7123SM   C12 9234   3.392   1.307  17.355 -0.5699 -0.2924  0.0314
   7123SM  H12A 9235   3.415   1.276  17.255 -2.8227  0.6977 -0.8753
   7123SM  H12B 9236   3.347   1.401  17.327 -0.0433  0.6746  2.2079
   7123SM   C11 9237   3.279   1.217  17.423 -0.0967 -0.5394  0.2680
   7123SM  H11A 9238   3.191   1.239  17.360  0.6212  0.9942 -0.2414
   7123SM  H11B 9239   3.257   1.267  17.519 -3.6171  0.1916 -0.7774
   7123SM     P 9240   3.299   0.976  17.331  0.0772  0.4170 -0.0740
   7123SM   O13 9241   3.420   0.890  17.334  0.0292 -0.2396 -0.0772
   7123SM   O14 9242   3.176   0.903  17.357  0.1123 -0.0805 -0.4594
   7123SM   O11 9243   3.287   1.059  17.199  0.3937  0.4952 -0.3574
   7123SM   O12 9244   3.310   1.085  17.443 -0.6911  0.1558 -0.3685
   7123SM   C1S 9245   3.369   1.030  17.081  0.4002  0.0560 -0.3265
   7123SM   H1S 9246   3.406   0.926  17.079 -0.2417 -0.1719 -0.4415
   7123SM   H1T 9247   3.463   1.089  17.079  1.4367 -1.5537 -3.0667
   7123SM    NF 9248   3.377   1.030  16.840 -0.2349  0.6581 -0.1186
   7123SM   HNF 9249   3.443   1.093  16.800  0.7205  0.1904  0.6753
   7123SM   C2S 9250   3.295   1.078  16.946  0.1992  0.5913 -0.6710
   7123SM   H2S 9251   3.197   1.026  16.932  0.2092 -0.4743  2.4043
   7123SM   C3S 9252   3.268   1.231  16.954 -0.9957  0.5583  0.2000
   7123SM   H3S 9253   3.364   1.287  16.951  0.3115 -1.2250  3.9432
   7123SM    O3 9254   3.200   1.262  17.071  0.1505  0.2808  0.3817
   7123SM   HO3 9255   3.198   1.178  17.117 -1.2425 -0.3639 -0.7810
   7123SM   C4S 9256   3.196   1.268  16.825 -0.2168 -0.0319 -0.1176
   7123SM   H4S 9257   3.264   1.304  16.746 -2.5758  1.5016 -1.5796
   7123SM   C5S 9258   3.064   1.270  16.790 -0.1156  0.7415 -0.3807
   7123SM   H5S 9259   2.982   1.250  16.861 -0.0664 -1.5192 -0.8977
   7123SM   C6S 9260   3.005   1.306  16.656 -0.5330  0.6733  0.3458
   7123SM   H6S 9261   3.021   1.416  16.645 -0.3768  0.6102 -0.0673
   7123SM   H6T 9262   2.896   1.285  16.648 -0.1387 -1.1288 -0.8058
   7123SM   C7S 9263   3.080   1.234  16.544  1.0406  0.5838 -0.0430
   7123SM   H7S 9264   3.078   1.124  16.558 -2.7834  0.1725 -2.3607
   7123SM   H7T 9265   3.188   1.262  16.543  0.8654  1.2696 -0.1896
   7123SM   C8S 9266   3.036   1.272  16.406  0.2080  0.4772  0.1160
   7123SM   H8S 9267   3.044   1.383  16.398  0.1164  0.5732  1.2220
   7123SM   H8T 9268   2.939   1.224  16.380  0.6627 -1.0443  1.1263
   7123SM   C9S 9269   3.138   1.227  16.302 -0.1713 -0.0812  0.1462
   7123SM   H9S 9270   3.170   1.126  16.332 -0.5213  0.0611  1.0095
   7123SM   H9T 9271   3.231   1.283  16.324  0.1877 -1.1842  1.5514
   7123SM  C10S 9272   3.086   1.242  16.160  0.3165  0.7460  0.3270
   7123SM  H10S 9273   3.069   1.351  16.149  3.0885  1.2328  0.1786
   7123SM  H10T 9274   2.990   1.186  16.149  0.8412 -0.2660  0.7729
   7123SM  C11S 9275   3.173   1.200  16.042 -0.3963 -0.2066 -0.0828
   7123SM  H11S 9276   3.140   1.096  16.022 -2.9420  0.8881 -2.1763
   7123SM  H11T 9277   3.281   1.196  16.068 -0.0919  1.2259 -0.9689
   7123SM  C12S 9278   3.152   1.278  15.906  0.9379  0.0078 -0.5803
   7123SM  H12S 9279   3.182   1.385  15.915 -0.1003  0.5697 -2.9712
   7123SM  H12T 9280   3.041   1.272  15.896  0.8405 -2.2761  1.2041
   7123SM  C13S 9281   3.222   1.220  15.801 -0.3431 -0.5762 -0.0951
   7123SM  H13S 9282   3.189   1.115  15.792  0.2652 -0.6677 -1.5431
   7123SM  H13T 9283   3.329   1.222  15.831 -0.2443  1.4296 -0.4482
   7123SM  C14S 9284   3.190   1.284  15.670 -0.7332  0.2191  0.1690
   7123SM  H14S 9285   3.275   1.345  15.634 -0.0580 -0.3970  0.6840
   7123SM  H14T 9286   3.100   1.349  15.679 -0.3278  0.7896  0.1181
   7123SM  C15S 9287   3.167   1.188  15.553  0.6102 -0.1966 -0.7136
   7123SM  H15S 9288   3.082   1.127  15.591  1.0270 -1.0624 -1.1342
   7123SM  H15T 9289   3.250   1.117  15.532  0.6008 -0.6547  0.6892
   7123SM  C16S 9290   3.119   1.264  15.429 -0.5133  0.2222  0.1593
   7123SM  H16S 9291   3.204   1.324  15.388 -2.2269  0.4793 -3.3847
   7123SM  H16T 9292   3.043   1.340  15.455  0.5944  1.2638  0.4597
   7123SM  C17S 9293   3.069   1.180  15.321 -0.0033 -0.2210  0.1865
   7123SM  H17S 9294   2.970   1.138  15.350  0.8029 -1.1630  1.7257
   7123SM  H17T 9295   3.136   1.092  15.312  0.2153  0.1611 -2.9080
   7123SM  C18S 9296   3.049   1.258  15.189 -0.3607 -0.1608  0.5851
   7123SM  H18S 9297   3.008   1.199  15.104  1.1698 -0.5019  0.0488
   7123SM  H18T 9298   3.142   1.303  15.147  0.5877 -1.2874  1.4021
   7123SM  H18U 9299   2.972   1.336  15.202 -0.2537  0.0616 -0.0772
   7123SM   C1F 9300   3.377   0.901  16.809  0.0599  0.5869  0.1827
   7123SM    OF 9301   3.301   0.824  16.862  0.2120 -0.5282 -0.4900
   7123SM   C2F 9302   3.482   0.855  16.715  0.3792  0.2834 -0.1224
   7123SM   H2F 9303   3.558   0.786  16.759 -0.2795  0.2845  1.0474
   7123SM   H2G 9304   3.539   0.944  16.683  1.4996  0.3418  1.8876
   7123SM   C3F 9305   3.429   0.791  16.585 -0.2597  0.4234 -0.5097
   7123SM   H3F 9306   3.357   0.710  16.608 -2.3042  2.3866  0.4223
   7123SM   H3G 9307   3.519   0.756  16.530  1.4785  2.0098  1.1489
   7123SM   C4F 9308   3.360   0.888  16.491 -0.0849  0.0037 -0.2050
   7123SM   H4F 9309   3.432   0.969  16.468 -0.5013  0.4113 -0.1060
   7123SM   H4G 9310   3.273   0.921  16.552  0.6264  0.8819  0.3637
   7123SM   C5F 9311   3.326   0.827  16.357 -0.1611  0.0337 -0.6008
   7123SM   H5F 9312   3.238   0.888  16.328  0.5248  3.2014  3.1453
   7123SM   H5G 9313   3.304   0.719  16.372 -2.2441 -0.1058 -3.6710
   7123SM   C6F 9314   3.432   0.821  16.237 -0.4234 -0.2332  0.1133
   7123SM   H6F 9315   3.505   0.737  16.245  0.3205  0.4742  0.9971
   7123SM   H6G 9316   3.481   0.920  16.250 -4.5851  1.8903  1.2775
   7123SM   C7F 9317   3.352   0.809  16.110  0.4389  0.3014 -0.8416
   7123SM   H7F 9318   3.272   0.886  16.122 -0.9745 -1.3174  0.8293
   7123SM   H7G 9319   3.302   0.710  16.110  0.6746  0.1372  1.3853
   7123SM   C8F 9320   3.427   0.832  15.988 -0.2018 -0.1392  0.5570
   7123SM   H8F 9321   3.516   0.766  15.992  0.7131  1.0774  1.2382
   7123SM   H8G 9322   3.457   0.939  15.975  1.0206 -0.5757 -0.4193
   7123SM   C9F 9323   3.358   0.801  15.847 -0.1146  0.6182 -0.6146
   7123SM   H9F 9324   3.266   0.863  15.851  0.6284  1.9227 -2.2577
   7123SM   H9G 9325   3.339   0.691  15.852  1.2323  0.4288  1.3754
   7123SM  C10F 9326   3.436   0.828  15.723 -0.0142  0.3857  0.3160
   7123SM  H10F 9327   3.532   0.773  15.725 -0.7477 -1.2075 -2.5665
   7123SM  H10G 9328   3.448   0.937  15.705 -0.3126  0.1569 -1.4554
   7123SM  C11F 9329   3.366   0.778  15.596  0.3504 -0.0938 -0.2290
   7123SM  H11F 9330   3.261   0.815  15.595  0.0058 -1.0358 -0.1965
   7123SM  H11G 9331   3.355   0.667  15.592 -1.7188  0.1170 -1.9544
   7123SM  C12F 9332   3.437   0.818  15.465  0.0019 -0.2279  0.4087
   7123SM  H12F 9333   3.548   0.808  15.471 -0.2223 -2.5603  2.5208
   7123SM  H12G 9334   3.431   0.928  15.451  4.9671  0.6721  2.9683
   7123SM  C13F 9335   3.375   0.759  15.340 -0.7691  0.0242 -0.7364
   7123SM  H13F 9336   3.265   0.762  15.346 -0.8700 -3.1273  1.2696
   7123SM  H13G 9337   3.400   0.651  15.343  0.9757  0.4125  1.8003
   7123SM  C14F 9338   3.433   0.834  15.213  0.3267 -0.1872 -0.1205
   7123SM  H14F 9339   3.538   0.870  15.224 -0.1343  1.2449 -0.2258
   7123SM  H14G 9340   3.358   0.916  15.222 -0.7044 -1.3340  3.5712
   7123SM  C15F 9341   3.424   0.752  15.086  0.8822  0.0980  0.0770
   7123SM  H15F 9342   3.331   0.694  15.099 -0.0377  0.8552 -2.4380
   7123SM  H15G 9343   3.513   0.687  15.070  0.8785 -0.3688  1.8188
   7123SM  C16F 9344   3.412   0.844  14.964 -0.0714  0.0153 -0.4630
   7123SM  H16F 9345   3.497   0.914  14.951  0.5859 -0.8194 -0.6673
   7123SM  H16G 9346   3.321   0.906  14.983 -0.5886 -0.5468 -1.0594
   7123SM  C17F 9347   3.381   0.768  14.834  0.9540  0.0377  0.2440
   7123SM  H17F 9348   3.354   0.846  14.760 -0.3393 -0.1579  0.4921
   7123SM  H17G 9349   3.294   0.701  14.847  0.3458  0.6272 -0.7422
   7123SM  C18F 9350   3.496   0.680  14.779 -0.0840 -0.0458 -0.0228
   7123SM  H18F 9351   3.499   0.593  14.848  1.0272  0.5168  0.6707
   7123SM  H18G 9352   3.595   0.728  14.794  0.7358 -1.5204 -0.5146
   7123SM  C19F 9353   3.471   0.634  14.631 -0.6674  1.6244 -0.2488
   7123SM  H19F 9354   3.461   0.724  14.566  0.0747  1.4128 -0.6714
   7123SM  H19G 9355   3.388   0.561  14.627  0.7381  0.0291 -1.4423
   7123SM  C20F 9356   3.591   0.548  14.573 -0.0855 -0.0705  0.5252
   7123SM  H20F 9357   3.603   0.460  14.641  0.1670  0.7629  1.5915
   7123SM  H20G 9358   3.687   0.602  14.585 -1.1203  1.9771  0.0339
   7123SM  C21F 9359   3.577   0.497  14.432  0.1303 -0.0667  0.1064
   7123SM  H21F 9360   3.594   0.576  14.356 -1.1820 -0.1684 -0.3127
   7123SM  H21G 9361   3.476   0.455  14.412 -0.6238  2.1477 -1.1123
   7123SM  C22F 9362   3.674   0.389  14.387 -0.8369  0.4410 -0.5070
   7123SM  H22F 9363   3.771   0.441  14.370  0.2980 -0.9994  1.0824
   7123SM  H22G 9364   3.664   0.345  14.286 -0.7928 -2.5379  0.6657
   7123SM  C23F 9365   3.698   0.273  14.490  0.7935  0.1910  0.1998
   7123SM  H23F 9366   3.762   0.298  14.577  1.4846 -4.3125  1.2581
   7123SM  H23G 9367   3.752   0.191  14.438  0.0499  0.7948 -1.5967
   7123SM  H23H 9368   3.599   0.233  14.520 -0.2242  1.8729 -0.7577
   7223SM     N 9369   5.941   3.910  17.560 -0.0922 -0.0057  0.3725
   7223SM   C15 9370   5.988   4.052  17.566  0.7184 -0.0724  0.2986
   7223SM  H15A 9371   5.981   4.092  17.466  0.4081 -0.6863  0.0714
   7223SM  H15B 9372   6.091   4.054  17.599  0.8357  1.7494 -0.1024
   7223SM  H15C 9373   5.939   4.122  17.632  1.3532 -0.2871  1.0227
   7223SM   C14 9374   6.041   3.836  17.484  0.0860 -0.0687  0.4149
   7223SM  H14A 9375   5.991   3.746  17.453 -0.7412  0.4445  0.2086
   7223SM  H14B 9376   6.128   3.814  17.544 -0.1647  0.1967  0.8748
   7223SM  H14C 9377   6.082   3.881  17.394  1.5757  0.5246  1.3607
   7223SM   C13 9378   5.926   3.852  17.694  0.1589 -0.2513 -0.7465
   7223SM  H13A 9379   5.840   3.888  17.749 -0.0887 -1.7309 -0.1129
   7223SM  H13B 9380   6.004   3.878  17.764  0.4047 -1.7239 -0.4392
   7223SM  H13C 9381   5.918   3.744  17.693 -0.1089 -0.2611  0.4575
   7223SM   C12 9382   5.805   3.909  17.485  0.0328 -0.2207  0.2801
   7223SM  H12A 9383   5.733   3.957  17.549 -0.9642  0.1277 -1.0628
   7223SM  H12B 9384   5.774   3.807  17.466  0.1261 -0.0684 -0.7300
   7223SM   C11 9385   5.809   3.973  17.347 -0.3705  0.6450 -0.2822
   7223SM  H11A 9386   5.726   3.921  17.295 -0.7882 -0.4985  1.4148
   7223SM  H11B 9387   5.909   3.947  17.307  1.1968  1.3674  2.8352
   7223SM     P 9388   5.648   4.179  17.362 -0.0743 -0.3366  0.4728
   7223SM   O13 9389   5.558   4.072  17.408  0.2882  0.2923 -0.4427
   7223SM   O14 9390   5.673   4.292  17.451 -0.0470 -0.5216  0.9229
   7223SM   O11 9391   5.593   4.228  17.225  0.4255 -0.3843  0.3857
   7223SM   O12 9392   5.793   4.118  17.334  0.1075  0.4113  0.2522
   7223SM   C1S 9393   5.650   4.191  17.095  0.3557  0.1742  0.7265
   7223SM   H1S 9394   5.714   4.100  17.104 -0.9460 -0.8426  0.0245
   7223SM   H1T 9395   5.719   4.274  17.069 -0.8013  0.3515 -2.0185
   7223SM    NF 9396   5.621   4.143  16.847  0.6642  0.1827  0.0592
   7223SM   HNF 9397   5.636   4.218  16.782 -1.0504  0.0117 -0.5874
   7223SM   C2S 9398   5.553   4.166  16.971  0.3864 -0.5432 -0.7148
   7223SM   H2S 9399   5.494   4.074  16.987 -0.4977  0.2813  1.0637
   7223SM   C3S 9400   5.449   4.278  16.970 -0.0293 -0.8537  0.7436
   7223SM   H3S 9401   5.485   4.383  16.970 -0.5818 -0.5974 -2.0146
   7223SM    O3 9402   5.366   4.294  17.082  0.2875  1.1275 -0.4662
   7223SM   HO3 9403   5.410   4.244  17.152 -1.2573  0.9167  0.4003
   7223SM   C4S 9404   5.356   4.262  16.855 -0.5334  0.0203  0.6233
   7223SM   H4S 9405   5.330   4.157  16.838 -0.7171  0.2279 -0.4660
   7223SM   C5S 9406   5.300   4.358  16.776  0.8438  0.4837 -1.0092
   7223SM   H5S 9407   5.303   4.463  16.809  1.8726  0.2099 -0.2166
   7223SM   C6S 9408   5.200   4.332  16.667 -0.0740  0.0880  0.0143
   7223SM   H6S 9409   5.118   4.407  16.668 -0.3069 -0.1599  0.9248
   7223SM   H6T 9410   5.155   4.235  16.697 -2.0094  0.8520 -0.2758
   7223SM   C7S 9411   5.289   4.330  16.538  0.0672 -1.1106 -0.4257
   7223SM   H7S 9412   5.374   4.261  16.552  2.3363  1.6821  0.5902
   7223SM   H7T 9413   5.336   4.430  16.526 -1.2353 -0.4739 -0.4348
   7223SM   C8S 9414   5.209   4.299  16.410 -0.4762 -0.5256  0.2509
   7223SM   H8S 9415   5.139   4.380  16.379  0.4600  0.5031  0.7540
   7223SM   H8T 9416   5.153   4.206  16.433  0.4245 -1.4876 -1.2977
   7223SM   C9S 9417   5.307   4.272  16.299 -0.8672  0.2042 -0.1824
   7223SM   H9S 9418   5.304   4.161  16.289 -2.2607  0.2800 -0.7895
   7223SM   H9T 9419   5.412   4.293  16.330 -0.6534  0.7538 -1.2488
   7223SM  C10S 9420   5.285   4.331  16.156 -0.3061 -0.3528  0.2155
   7223SM  H10S 9421   5.289   4.441  16.172  2.1741 -0.1826 -1.1781
   7223SM  H10T 9422   5.186   4.303  16.112 -0.0220 -2.4673  0.8328
   7223SM  C11S 9423   5.394   4.298  16.056 -0.4482 -0.4987  0.6988
   7223SM  H11S 9424   5.389   4.189  16.034 -0.9434 -0.4295  0.4675
   7223SM  H11T 9425   5.488   4.328  16.108 -0.5284  0.0301  0.5385
   7223SM  C12S 9426   5.380   4.383  15.924  0.3488  0.9620 -0.5842
   7223SM  H12S 9427   5.379   4.489  15.958 -0.7265  1.2846 -1.5687
   7223SM  H12T 9428   5.294   4.350  15.862  2.4245  0.2205 -3.2756
   7223SM  C13S 9429   5.499   4.356  15.835 -0.2276 -1.2770 -0.6048
   7223SM  H13S 9430   5.557   4.264  15.856  2.5302  0.3842 -0.5008
   7223SM  H13T 9431   5.573   4.430  15.871 -2.1658  3.3664 -4.8713
   7223SM  C14S 9432   5.484   4.383  15.688  0.0720 -0.1808 -0.2698
   7223SM  H14S 9433   5.591   4.375  15.657  0.9442  1.4140  2.0457
   7223SM  H14T 9434   5.455   4.490  15.681 -0.1094 -0.1194  1.1929
   7223SM  C15S 9435   5.388   4.288  15.613 -0.6742 -0.0762 -0.7623
   7223SM  H15S 9436   5.284   4.323  15.627 -0.6365 -1.0239  2.7275
   7223SM  H15T 9437   5.381   4.190  15.665 -2.2018  1.1640  1.5520
   7223SM  C16S 9438   5.413   4.279  15.458 -0.1979  0.1417  0.0626
   7223SM  H16S 9439   5.324   4.225  15.418 -0.8255  0.0492  1.5128
   7223SM  H16T 9440   5.483   4.195  15.442 -2.0229 -1.2908 -0.7309
   7223SM  C17S 9441   5.457   4.412  15.387 -0.9224  0.3749 -0.1171
   7223SM  H17S 9442   5.544   4.463  15.433  1.4830 -3.9591  0.7336
   7223SM  H17T 9443   5.364   4.469  15.404 -1.7979 -1.3255  0.9737
   7223SM  C18S 9444   5.492   4.406  15.241 -0.5891 -0.0800 -0.4513
   7223SM  H18S 9445   5.594   4.364  15.230 -0.3763  0.4944 -0.7615
   7223SM  H18T 9446   5.499   4.508  15.197  1.7719 -1.2264 -3.0423
   7223SM  H18U 9447   5.420   4.341  15.187 -0.4535 -0.3890 -0.2555
   7223SM   C1F 9448   5.686   4.032  16.820  0.2027 -0.7489 -0.5475
   7223SM    OF 9449   5.688   3.940  16.900  0.0575  0.3719  0.4609
   7223SM   C2F 9450   5.762   4.017  16.694  0.1822  0.0904  0.0553
   7223SM   H2F 9451   5.870   4.001  16.715 -0.1021 -0.6297  1.0111
   7223SM   H2G 9452   5.762   4.112  16.636  1.5241  2.0773  3.0586
   7223SM   C3F 9453   5.712   3.890  16.623 -0.1932  0.2462  0.1144
   7223SM   H3F 9454   5.602   3.886  16.615 -0.2309 -1.2608  1.0266
   7223SM   H3G 9455   5.747   3.803  16.683 -0.2896  1.1421  1.5026
   7223SM   C4F 9456   5.787   3.868  16.494  0.6776 -1.0010  0.2328
   7223SM   H4F 9457   5.773   3.761  16.467  1.2567 -0.6509 -1.5601
   7223SM   H4G 9458   5.894   3.893  16.505  0.6238  1.2057 -3.0363
   7223SM   C5F 9459   5.732   3.964  16.388  0.5186  0.5055  0.6409
   7223SM   H5F 9460   5.726   4.070  16.422 -0.5150  0.8026 -0.3836
   7223SM   H5G 9461   5.634   3.923  16.356  0.7525 -0.4917  1.1649
   7223SM   C6F 9462   5.828   3.963  16.268 -0.3948 -0.8617 -0.0813
   7223SM   H6F 9463   5.855   3.856  16.257  0.3566 -1.2610  4.0074
   7223SM   H6G 9464   5.918   4.018  16.302 -1.1760  0.6526 -0.3655
   7223SM   C7F 9465   5.757   4.027  16.149 -0.3273 -0.5124  0.9019
   7223SM   H7F 9466   5.772   4.137  16.144 -2.1355 -0.2869 -2.2166
   7223SM   H7G 9467   5.646   4.015  16.151 -0.4739  0.6745  1.6287
   7223SM   C8F 9468   5.800   3.979  16.008  0.2402 -0.5879 -0.2473
   7223SM   H8F 9469   5.791   3.868  16.001 -0.6435 -0.7328  2.3198
   7223SM   H8G 9470   5.907   4.000  15.985  1.1156 -1.7511  2.4458
   7223SM   C9F 9471   5.717   4.056  15.903  0.8442  0.0794  0.1449
   7223SM   H9F 9472   5.745   4.162  15.919  1.6168 -0.1604  0.4313
   7223SM   H9G 9473   5.608   4.048  15.924  0.8410 -2.5173 -0.5088
   7223SM  C10F 9474   5.747   3.998  15.757  0.4973 -0.5507 -0.1882
   7223SM  H10F 9475   5.681   3.910  15.742 -1.7257  0.8740  0.7877
   7223SM  H10G 9476   5.852   3.962  15.758  0.8501  0.3985  1.6681
   7223SM  C11F 9477   5.713   4.093  15.644 -0.8724 -0.0554 -0.1263
   7223SM  H11F 9478   5.750   4.196  15.662 -1.4613  0.2320 -0.5372
   7223SM  H11G 9479   5.603   4.111  15.644 -1.0051 -0.7924 -1.0579
   7223SM  C12F 9480   5.750   4.045  15.504  0.5661  0.2725 -0.0821
   7223SM  H12F 9481   5.717   4.124  15.433 -1.9424 -1.0362 -0.4960
   7223SM  H12G 9482   5.678   3.961  15.488 -1.2005  1.0475  2.8960
   7223SM  C13F 9483   5.891   3.997  15.480 -0.4976 -0.0948 -0.0020
   7223SM  H13F 9484   5.922   3.913  15.546 -0.5586  1.0065  1.4866
   7223SM  H13G 9485   5.971   4.070  15.503  0.4784 -1.0968 -0.1348
   7223SM  C14F 9486   5.922   3.945  15.340 -0.2060  0.3240 -0.1079
   7223SM  H14F 9487   5.885   4.021  15.267  2.4792  1.6521 -0.1997
   7223SM  H14G 9488   5.860   3.853  15.328  0.3347 -0.0058 -0.4417
   7223SM  C15F 9489   6.074   3.916  15.321  0.1211 -0.2793 -0.6099
   7223SM  H15F 9490   6.102   3.825  15.377 -0.4536  0.5339  1.0543
   7223SM  H15G 9491   6.124   4.005  15.365 -0.7614  1.0742 -2.2291
   7223SM  C16F 9492   6.107   3.905  15.170  0.6923  0.3864 -0.1742
   7223SM  H16F 9493   6.212   3.869  15.158  1.0668  0.4956  2.3488
   7223SM  H16G 9494   6.102   4.007  15.126  1.7443  1.5406  2.1967
   7223SM  C17F 9495   6.013   3.813  15.097  0.4136 -0.0853  0.1887
   7223SM  H17F 9496   5.913   3.861  15.086 -1.9966 -4.7186 -0.9058
   7223SM  H17G 9497   5.995   3.713  15.143 -4.0023  0.0617 -0.7845
   7223SM  C18F 9498   6.074   3.776  14.956 -0.2716 -0.1947 -0.4173
   7223SM  H18F 9499   6.164   3.712  14.972  1.5066  2.5143  1.1818
   7223SM  H18G 9500   6.109   3.867  14.902  2.1319 -0.3282  0.7657
   7223SM  C19F 9501   5.991   3.690  14.857  0.4827 -0.4791 -0.5555
   7223SM  H19F 9502   6.076   3.663  14.791  2.3910  1.1943  1.0613
   7223SM  H19G 9503   5.922   3.742  14.787  1.7281 -0.0048 -1.4826
   7223SM  C20F 9504   5.916   3.567  14.908  0.1420  0.3419  0.2597
   7223SM  H20F 9505   5.823   3.604  14.957 -0.4668 -1.2431  0.3363
   7223SM  H20G 9506   5.978   3.519  14.987  1.5764  1.7944  0.0804
   7223SM  C21F 9507   5.879   3.460  14.796  0.4146 -0.1164 -0.9256
   7223SM  H21F 9508   5.833   3.519  14.714 -1.0388  1.6870  1.0465
   7223SM  H21G 9509   5.796   3.401  14.840  2.0780 -2.0920 -0.2509
   7223SM  C22F 9510   5.992   3.366  14.747 -0.2278  0.5430 -0.1668
   7223SM  H22F 9511   6.082   3.421  14.711 -0.7215  1.5925  0.1568
   7223SM  H22G 9512   5.942   3.317  14.661  2.3847 -1.0166 -0.9019
   7223SM  C23F 9513   6.045   3.260  14.845 -0.4244 -0.1513  0.0341
   7223SM  H23F 9514   5.966   3.233  14.919  1.7285 -2.1477  1.7751
   7223SM  H23G 9515   6.132   3.295  14.904  1.1756  0.5868 -2.5846
   7223SM  H23H 9516   6.080   3.174  14.784 -0.7349 -0.1777 -0.1082
   7323SM     N 9517   4.759   1.095  17.013  0.0487  0.2045  0.1957
   7323SM   C15 9518   4.838   0.997  16.928 -0.1712 -0.1217 -0.8724
   7323SM  H15A 9519   4.941   1.030  16.933 -0.8526  2.0356  2.5665
   7323SM  H15B 9520   4.803   0.999  16.826 -2.8080 -2.3957 -0.1254
   7323SM  H15C 9521   4.834   0.895  16.963  0.8319 -0.6226 -2.1459
   7323SM   C14 9522   4.615   1.062  17.016 -0.5283  0.2099 -0.1027
   7323SM  H14A 9523   4.564   1.099  16.928  0.7448  1.8058 -0.2255
   7323SM  H14B 9524   4.577   1.118  17.101  0.0602  0.1619  0.1936
   7323SM  H14C 9525   4.594   0.958  17.035 -1.9723  0.3900 -0.6151
   7323SM   C13 9526   4.816   1.095  17.153 -0.0010  0.2660 -0.2772
   7323SM  H13A 9527   4.780   1.003  17.196  2.5453 -0.1595  1.1577
   7323SM  H13B 9528   4.783   1.180  17.210 -1.9197 -0.6063  0.0025
   7323SM  H13C 9529   4.923   1.089  17.145 -0.2193 -2.4601 -4.0525
   7323SM   C12 9530   4.773   1.233  16.951  0.2304  1.1313  1.1522
   7323SM  H12A 9531   4.876   1.256  16.928 -0.0287  0.3769 -0.9852
   7323SM  H12B 9532   4.733   1.310  17.016  0.5109 -0.1263  2.9008
   7323SM   C11 9533   4.706   1.264  16.814  0.4637  0.8133 -1.0773
   7323SM  H11A 9534   4.728   1.188  16.736  0.2920 -1.1574  0.7230
   7323SM  H11B 9535   4.755   1.359  16.784  0.4387  1.6630  1.3233
   7323SM     P 9536   4.514   1.411  16.890 -0.0658 -0.9008 -0.1454
   7323SM   O13 9537   4.373   1.397  16.938  0.3591  0.5955 -0.2447
   7323SM   O14 9538   4.615   1.460  16.988 -0.5192  0.7391 -0.4728
   7323SM   O11 9539   4.510   1.521  16.770  0.0377 -0.1351 -0.1762
   7323SM   O12 9540   4.568   1.277  16.827  0.2694 -0.2183 -0.1887
   7323SM   C1S 9541   4.465   1.475  16.643  0.4083  0.4125  0.1916
   7323SM   H1S 9542   4.357   1.489  16.622  0.7287  0.0340 -1.9207
   7323SM   H1T 9543   4.485   1.369  16.617 -2.2564  0.4341 -2.4521
   7323SM    NF 9544   4.473   1.545  16.393 -0.3412  0.2837 -0.5629
   7323SM   HNF 9545   4.536   1.497  16.332  0.1488 -1.0888  0.9503
   7323SM   C2S 9546   4.527   1.572  16.528 -0.2312 -0.1660 -0.3918
   7323SM   H2S 9547   4.492   1.675  16.552 -0.8319 -0.5203  0.2989
   7323SM   C3S 9548   4.682   1.569  16.527 -0.1834 -1.2421 -0.1478
   7323SM   H3S 9549   4.730   1.471  16.505  1.2459  0.0320 -3.3421
   7323SM    O3 9550   4.735   1.587  16.658  0.2644  0.3312  0.5210
   7323SM   HO3 9551   4.657   1.575  16.713  0.6121 -1.3987  0.7036
   7323SM   C4S 9552   4.735   1.672  16.430  0.7455 -0.2911 -0.4317
   7323SM   H4S 9553   4.718   1.637  16.327  1.0384  1.1169 -0.9824
   7323SM   C5S 9554   4.782   1.795  16.461  0.5198  0.1265  0.5969
   7323SM   H5S 9555   4.777   1.833  16.565  0.0920  0.6352  0.3971
   7323SM   C6S 9556   4.821   1.890  16.357 -0.3127  0.1049 -0.2374
   7323SM   H6S 9557   4.912   1.943  16.392 -0.4002  0.0326  0.1117
   7323SM   H6T 9558   4.760   1.983  16.352  1.5973  1.3368 -2.3328
   7323SM   C7S 9559   4.841   1.843  16.214 -0.1415  0.2873  0.0706
   7323SM   H7S 9560   4.745   1.804  16.174  0.0584  0.7681 -0.8979
   7323SM   H7T 9561   4.917   1.763  16.198 -2.2822 -1.3290 -3.2495
   7323SM   C8S 9562   4.889   1.956  16.122 -0.0872 -0.1753 -0.1794
   7323SM   H8S 9563   4.985   1.996  16.161  0.0320 -0.2875 -0.3589
   7323SM   H8T 9564   4.808   2.032  16.128 -0.1554 -0.3330  1.1398
   7323SM   C9S 9565   4.918   1.907  15.983 -0.7727 -0.5576  0.1865
   7323SM   H9S 9566   4.830   1.851  15.947  0.1992 -2.1189  0.1432
   7323SM   H9T 9567   5.007   1.840  15.990 -0.8157 -0.6301  0.0528
   7323SM  C10S 9568   4.938   2.007  15.877 -0.7310 -0.0519 -0.7762
   7323SM  H10S 9569   5.020   2.075  15.910 -0.9909  0.3145 -0.8774
   7323SM  H10T 9570   4.851   2.076  15.865 -1.2087 -0.8289 -1.9448
   7323SM  C11S 9571   4.985   1.949  15.740  0.5735  0.9681 -0.1936
   7323SM  H11S 9572   5.068   1.880  15.763 -0.5105 -2.0337 -4.1247
   7323SM  H11T 9573   5.023   2.035  15.682  0.8183  1.5680  0.8294
   7323SM  C12S 9574   4.876   1.881  15.665 -0.4910  0.4092 -0.1117
   7323SM  H12S 9575   4.789   1.950  15.658  0.6268  1.7789 -1.0109
   7323SM  H12T 9576   4.837   1.792  15.718 -0.0191  0.0044 -0.4329
   7323SM  C13S 9577   4.906   1.831  15.525  0.4537 -0.3753  0.8988
   7323SM  H13S 9578   4.834   1.753  15.492  1.4172 -2.0050  2.4636
   7323SM  H13T 9579   5.000   1.772  15.533  1.0179  0.5186  0.9375
   7323SM  C14S 9580   4.928   1.943  15.422  0.1528  0.0720  0.3666
   7323SM  H14S 9581   4.998   2.016  15.467  1.2961 -1.5995  1.4268
   7323SM  H14T 9582   4.836   2.003  15.406 -1.1742 -2.0151 -0.2966
   7323SM  C15S 9583   4.981   1.894  15.288  0.0678 -0.9655 -0.4936
   7323SM  H15S 9584   4.909   1.822  15.244  0.5586 -0.1609 -2.7130
   7323SM  H15T 9585   5.077   1.846  15.320 -0.3981 -1.3610  0.3492
   7323SM  C16S 9586   5.000   2.016  15.207 -0.3364  0.1934  0.2037
   7323SM  H16S 9587   5.034   2.101  15.271 -3.1355 -0.2339  2.4214
   7323SM  H16T 9588   4.902   2.044  15.163  0.4371  2.7162 -0.1349
   7323SM  C17S 9589   5.104   2.009  15.095  0.1187 -0.4237 -0.3314
   7323SM  H17S 9590   5.057   1.925  15.038  0.9597 -1.3264  0.2795
   7323SM  H17T 9591   5.197   1.967  15.138 -0.6838 -0.8880  0.9863
   7323SM  C18S 9592   5.119   2.147  15.024 -0.9283 -1.2459 -0.3723
   7323SM  H18S 9593   5.127   2.230  15.097 -0.1730 -1.8886  0.2876
   7323SM  H18T 9594   5.034   2.158  14.953 -0.5180 -1.6574 -0.9365
   7323SM  H18U 9595   5.207   2.154  14.955 -0.0937 -0.7700  0.7069
   7323SM   C1F 9596   4.345   1.573  16.365 -0.5766 -0.2854  0.5976
   7323SM    OF 9597   4.285   1.669  16.413  0.1565 -0.5599  0.2212
   7323SM   C2F 9598   4.267   1.482  16.272  0.4448 -0.1394  0.4292
   7323SM   H2F 9599   4.264   1.374  16.297  0.3811 -0.5068 -1.0297
   7323SM   H2G 9600   4.304   1.495  16.168  1.1584  0.5087  0.7518
   7323SM   C3F 9601   4.112   1.526  16.267 -0.4474 -0.3695  0.2911
   7323SM   H3F 9602   4.105   1.631  16.230 -0.0649 -1.1799 -2.2841
   7323SM   H3G 9603   4.070   1.522  16.370 -2.1246 -0.2918 -0.3467
   7323SM   C4F 9604   4.014   1.437  16.196 -0.3563  0.1303  0.8239
   7323SM   H4F 9605   3.908   1.461  16.221 -0.2288  1.5742  0.0853
   7323SM   H4G 9606   4.024   1.330  16.225  2.5460  0.6493  2.0450
   7323SM   C5F 9607   4.015   1.448  16.046  0.0187 -0.0748  1.0185
   7323SM   H5F 9608   3.955   1.369  15.995  0.2397  1.8973 -2.6092
   7323SM   H5G 9609   4.114   1.426  16.002  0.4471 -1.8296  2.7178
   7323SM   C6F 9610   3.952   1.584  16.004 -0.3674 -0.1275 -0.2470
   7323SM   H6F 9611   4.007   1.661  16.063 -2.7254  0.7052  1.0213
   7323SM   H6G 9612   3.847   1.600  16.037  0.2662 -0.3247  2.0276
   7323SM   C7F 9613   3.980   1.630  15.856  0.9667  0.5962 -0.2917
   7323SM   H7F 9614   4.088   1.616  15.834  1.1025  2.2677 -0.8815
   7323SM   H7G 9615   3.952   1.737  15.842  0.6237  0.4176 -1.0633
   7323SM   C8F 9616   3.898   1.549  15.751  0.4211 -0.3320  0.1873
   7323SM   H8F 9617   3.794   1.543  15.788 -0.7071 -2.2046 -2.9262
   7323SM   H8G 9618   3.944   1.448  15.751 -1.1798 -1.1638 -2.4045
   7323SM   C9F 9619   3.903   1.608  15.606  0.7548  0.0072  0.7249
   7323SM   H9F 9620   4.008   1.634  15.579  0.0163 -0.1296 -2.6521
   7323SM   H9G 9621   3.847   1.704  15.610  1.4991  0.5865 -1.4887
   7323SM  C10F 9622   3.852   1.512  15.495 -0.3750 -0.4362 -0.5738
   7323SM  H10F 9623   3.741   1.509  15.507 -0.5229  2.7462 -0.2550
   7323SM  H10G 9624   3.893   1.410  15.501  0.3278 -0.3439 -2.8497
   7323SM  C11F 9625   3.878   1.557  15.348 -0.0177  0.3923 -1.2928
   7323SM  H11F 9626   3.878   1.668  15.355 -1.0176  0.3782 -1.0027
   7323SM  H11G 9627   3.787   1.526  15.293 -1.6734 -3.1838  2.8736
   7323SM  C12F 9628   4.002   1.485  15.284 -0.1464 -0.8821  1.0756
   7323SM  H12F 9629   3.992   1.378  15.257 -0.7376 -1.1179  2.1732
   7323SM  H12G 9630   4.094   1.494  15.346  1.2971 -0.3623 -1.0106
   7323SM  C13F 9631   4.037   1.555  15.152  0.0747 -0.5244 -0.0227
   7323SM  H13F 9632   4.143   1.528  15.131  0.5656 -0.1124  1.8218
   7323SM  H13G 9633   4.020   1.664  15.154 -3.7372 -0.9121 -1.5041
   7323SM  C14F 9634   3.956   1.504  15.035 -0.1832 -0.1609  1.0631
   7323SM  H14F 9635   3.865   1.566  15.018  0.6482  0.7109 -0.3917
   7323SM  H14G 9636   3.928   1.397  15.050 -0.3213 -0.1971  0.5706
   7323SM  C15F 9637   4.030   1.495  14.901 -0.4586 -0.0176 -0.0834
   7323SM  H15F 9638   4.124   1.437  14.915  2.0839  3.5255 -1.0976
   7323SM  H15G 9639   4.049   1.604  14.891  0.2464 -0.1646 -0.4015
   7323SM  C16F 9640   3.938   1.460  14.780 -0.1528  0.4157 -0.4936
   7323SM  H16F 9641   3.853   1.532  14.779  0.1634  0.7889 -1.3156
   7323SM  H16G 9642   3.905   1.355  14.799  0.6770 -0.4610 -3.3491
   7323SM  C17F 9643   4.006   1.444  14.642  0.5220  0.3180 -0.2546
   7323SM  H17F 9644   4.092   1.375  14.654 -1.4514 -2.2170  0.1174
   7323SM  H17G 9645   4.034   1.546  14.607  2.6751 -0.0683  0.2079
   7323SM  C18F 9646   3.922   1.377  14.533 -0.6002 -0.1522 -0.6435
   7323SM  H18F 9647   3.860   1.456  14.486  0.1909  1.8565  1.5311
   7323SM  H18G 9648   3.862   1.296  14.580 -1.1917 -1.3094 -3.1923
   7323SM  C19F 9649   4.006   1.299  14.422  0.7616  0.5505 -0.1934
   7323SM  H19F 9650   4.073   1.230  14.477 -0.1365  1.1411  1.7278
   7323SM  H19G 9651   4.061   1.383  14.373 -2.7179  2.8579 -0.4948
   7323SM  C20F 9652   3.919   1.242  14.324 -0.7088  0.5269  1.2068
   7323SM  H20F 9653   3.979   1.187  14.248  1.8803  3.1027  1.1823
   7323SM  H20G 9654   3.871   1.322  14.264  0.2362 -0.3554 -0.8327
   7323SM  C21F 9655   3.812   1.151  14.381  0.0112  0.4519 -0.3386
   7323SM  H21F 9656   3.744   1.227  14.426  1.1796  0.2803  1.8218
   7323SM  H21G 9657   3.847   1.095  14.470 -0.1434  0.9702  0.0526
   7323SM  C22F 9658   3.761   1.052  14.276  0.2305 -0.1215  0.1315
   7323SM  H22F 9659   3.844   0.981  14.254  0.1560 -0.5093  1.0663
   7323SM  H22G 9660   3.738   1.103  14.180 -2.8763  1.7729  1.7135
   7323SM  C23F 9661   3.643   0.961  14.314 -0.0784 -0.2367  0.0449
   7323SM  H23F 9662   3.552   1.017  14.344 -1.0502 -0.6437 -2.0241
   7323SM  H23G 9663   3.671   0.917  14.413  5.0631  3.1095  0.4655
   7323SM  H23H 9664   3.632   0.886  14.233  0.8400 -0.6176  0.2613
   7423SM     N 9665   0.156   5.163  17.089  0.6057  0.1589 -0.0225
   7423SM   C15 9666   0.198   5.021  17.060 -0.1843  0.0965  0.3436
   7423SM  H15A 9667   0.151   4.947  17.124  0.4145 -0.8529 -0.2895
   7423SM  H15B 9668   0.305   5.011  17.060 -0.1750  0.2062  0.2624
   7423SM  H15C 9669   0.178   4.995  16.957  0.9125 -2.1755  0.6242
   7423SM   C14 9670   0.004   5.164  17.086 -0.4838 -0.6453 -0.0644
   7423SM  H14A 9671  -0.038   5.088  17.151  0.2868 -0.8400  0.2142
   7423SM  H14B 9672  -0.035   5.145  16.986 -3.0315  2.1086  0.2817
   7423SM  H14C 9673  -0.033   5.256  17.127  0.4163 -1.2086  2.1264
   7423SM   C13 9674   0.200   5.190  17.228  0.7653  1.0352 -0.2762
   7423SM  H13A 9675   0.119   5.175  17.298  0.4660 -0.9224 -0.9793
   7423SM  H13B 9676   0.246   5.286  17.241  1.0231  1.0663 -1.3187
   7423SM  H13C 9677   0.264   5.112  17.265 -2.3557 -1.4296  0.4181
   7423SM   C12 9678   0.218   5.262  16.989 -0.5562  0.2887  0.4695
   7423SM  H12A 9679   0.326   5.272  16.987 -0.3110 -1.7472  1.0637
   7423SM  H12B 9680   0.184   5.358  17.026 -0.3948  0.4923  0.0999
   7423SM   C11 9681   0.161   5.269  16.840  0.0911  0.4366 -0.3665
   7423SM  H11A 9682   0.056   5.303  16.852  0.0481  0.5600 -1.0651
   7423SM  H11B 9683   0.161   5.169  16.792 -0.8824 -0.0091  0.5094
   7423SM     P 9684   0.362   5.330  16.699 -0.0193 -0.2074  0.2404
   7423SM   O13 9685   0.399   5.452  16.624  0.0666 -0.4186  0.2435
   7423SM   O14 9686   0.462   5.293  16.803 -0.7034  0.3899 -0.2303
   7423SM   O11 9687   0.349   5.206  16.601 -0.0637 -0.3886  0.0943
   7423SM   O12 9688   0.222   5.364  16.761 -0.6660  0.5956 -0.2412
   7423SM   C1S 9689   0.248   5.222  16.507  0.9697  0.1109  0.3061
   7423SM   H1S 9690   0.170   5.301  16.519  1.6180  1.0448 -1.2394
   7423SM   H1T 9691   0.184   5.131  16.501 -0.2212  0.9973 -1.7672
   7423SM    NF 9692   0.187   5.217  16.260  0.5409 -0.1924 -0.1687
   7423SM   HNF 9693   0.138   5.132  16.248  1.1308 -0.4411 -0.9390
   7423SM   C2S 9694   0.297   5.220  16.357 -0.0334  0.2396  0.5980
   7423SM   H2S 9695   0.350   5.318  16.346 -3.3530  2.1405  0.2791
   7423SM   C3S 9696   0.398   5.098  16.338 -0.3298 -0.3746 -0.3224
   7423SM   H3S 9697   0.345   5.009  16.376 -0.1451 -0.4376 -0.2101
   7423SM    O3 9698   0.522   5.109  16.403 -0.1403 -0.2511 -0.1236
   7423SM   HO3 9699   0.501   5.160  16.482 -2.8421 -0.5218 -0.5661
   7423SM   C4S 9700   0.418   5.071  16.188  0.2424 -0.3443  0.4051
   7423SM   H4S 9701   0.355   4.988  16.152 -0.4194  0.8597 -1.4061
   7423SM   C5S 9702   0.509   5.134  16.102  0.2327  0.3489 -0.2276
   7423SM   H5S 9703   0.576   5.212  16.141 -0.9489  0.9990  0.5654
   7423SM   C6S 9704   0.512   5.108  15.958 -0.2236  0.4290 -0.3182
   7423SM   H6S 9705   0.434   5.034  15.930 -3.0284  3.0367  0.0573
   7423SM   H6T 9706   0.614   5.070  15.934 -0.2289 -0.0871  0.4516
   7423SM   C7S 9707   0.495   5.235  15.877 -0.0425 -0.0843  0.1382
   7423SM   H7S 9708   0.579   5.307  15.886 -1.2850  1.4088  0.2401
   7423SM   H7T 9709   0.403   5.276  15.922  0.5247  0.8506  0.4781
   7423SM   C8S 9710   0.479   5.202  15.723 -0.2135 -1.1362  0.6722
   7423SM   H8S 9711   0.375   5.163  15.714 -0.4233 -1.1733  2.7825
   7423SM   H8T 9712   0.552   5.123  15.698  3.4159  2.5590 -1.6444
   7423SM   C9S 9713   0.506   5.317  15.623  0.2408 -0.8720  0.1419
   7423SM   H9S 9714   0.617   5.324  15.612  0.1458 -1.2022 -1.2220
   7423SM   H9T 9715   0.469   5.417  15.656  0.6567  0.4045 -2.9080
   7423SM  C10S 9716   0.457   5.277  15.484 -0.1743  0.0493 -0.3415
   7423SM  H10S 9717   0.483   5.169  15.482  0.4723  0.1890  0.0757
   7423SM  H10T 9718   0.514   5.337  15.409  1.1256  0.8546  1.2224
   7423SM  C11S 9719   0.302   5.290  15.461  0.0879 -0.0130  0.3503
   7423SM  H11S 9720   0.269   5.396  15.467 -0.4077 -0.1851  0.6921
   7423SM  H11T 9721   0.238   5.228  15.527  0.6277 -0.0487  0.8482
   7423SM  C12S 9722   0.267   5.241  15.318 -0.3229 -0.3888  1.1145
   7423SM  H12S 9723   0.167   5.195  15.330 -0.0748 -0.4962  3.1457
   7423SM  H12T 9724   0.330   5.157  15.282  0.8787  0.6230  0.7473
   7423SM  C13S 9725   0.265   5.357  15.217 -1.1160  0.3957  0.0411
   7423SM  H13S 9726   0.365   5.406  15.214 -0.9509  0.0479 -0.1301
   7423SM  H13T 9727   0.191   5.433  15.250 -0.2673  0.0628  2.9993
   7423SM  C14S 9728   0.223   5.317  15.073  0.0206  0.2919  0.3369
   7423SM  H14S 9729   0.119   5.279  15.085 -0.4305  1.8258  1.7787
   7423SM  H14T 9730   0.291   5.236  15.039  0.6561  0.7110  0.5917
   7423SM  C15S 9731   0.228   5.433  14.972  0.3373 -0.0724  0.3070
   7423SM  H15S 9732   0.178   5.527  15.004  1.7057  0.7037  0.2367
   7423SM  H15T 9733   0.190   5.387  14.878 -1.6009  0.8373  0.6009
   7423SM  C16S 9734   0.371   5.482  14.934  0.6484 -0.1625 -0.4199
   7423SM  H16S 9735   0.418   5.388  14.899 -1.3338 -1.5473  0.4570
   7423SM  H16T 9736   0.413   5.526  15.026 -1.6793  2.5720 -0.4955
   7423SM  C17S 9737   0.382   5.599  14.842  0.1865 -0.2647 -0.3062
   7423SM  H17S 9738   0.489   5.610  14.811  0.3614 -0.6514  0.1395
   7423SM  H17T 9739   0.354   5.691  14.897  3.0877 -0.2543  1.3867
   7423SM  C18S 9740   0.287   5.578  14.728  0.9171 -0.4924  0.0876
   7423SM  H18S 9741   0.300   5.646  14.641 -4.4508  0.2829 -0.4933
   7423SM  H18T 9742   0.183   5.604  14.758  1.4516  1.6065  0.3105
   7423SM  H18U 9743   0.291   5.474  14.689 -0.6782 -1.1977  1.6975
   7423SM   C1F 9744   0.114   5.322  16.239 -0.5448 -0.0712  0.4752
   7423SM    OF 9745   0.158   5.431  16.283  0.2007 -0.2348  0.1657
   7423SM   C2F 9746  -0.012   5.310  16.180  0.2557  0.3442 -0.0136
   7423SM   H2F 9747  -0.091   5.326  16.257 -0.1343  0.5223 -0.4452
   7423SM   H2G 9748  -0.027   5.209  16.136  0.1279 -0.3040  1.4323
   7423SM   C3F 9749  -0.037   5.424  16.082  0.5877  0.3244 -0.2975
   7423SM   H3F 9750   0.006   5.520  16.119  0.7944  0.0508  0.1860
   7423SM   H3G 9751  -0.146   5.441  16.075  0.9754  3.2734 -0.2185
   7423SM   C4F 9752   0.013   5.396  15.938  0.2343  0.9865  0.6853
   7423SM   H4F 9753  -0.018   5.293  15.909  0.3572  1.3739 -0.9098
   7423SM   H4G 9754   0.124   5.393  15.944  0.3533 -0.3832 -1.1361
   7423SM   C5F 9755  -0.050   5.480  15.837  0.2006 -0.9403 -0.2192
   7423SM   H5F 9756  -0.046   5.585  15.872  0.2357 -1.0741  0.1939
   7423SM   H5G 9757  -0.160   5.464  15.828 -0.4220  2.5183 -0.1001
   7423SM   C6F 9758   0.005   5.468  15.696 -0.4054  0.0134  0.1340
   7423SM   H6F 9759  -0.016   5.366  15.658  0.2055  0.1070 -0.4911
   7423SM   H6G 9760   0.116   5.477  15.689 -0.5876  2.0129 -1.5184
   7423SM   C7F 9761  -0.048   5.585  15.610  0.0903  0.1001 -1.3956
   7423SM   H7F 9762  -0.021   5.684  15.653 -0.6257 -1.1119  2.1627
   7423SM   H7G 9763  -0.159   5.577  15.617  0.1681 -0.2370 -0.2865
   7423SM   C8F 9764  -0.006   5.586  15.463 -0.4821 -0.5361  0.3247
   7423SM   H8F 9765  -0.033   5.492  15.411 -1.3845  0.9754 -2.0900
   7423SM   H8G 9766   0.105   5.584  15.468 -0.3584  2.3524  0.0226
   7423SM   C9F 9767  -0.050   5.703  15.370 -0.0987 -0.0538  0.5234
   7423SM   H9F 9768   0.006   5.797  15.395  1.5124 -0.9867  0.5932
   7423SM   H9G 9769  -0.154   5.738  15.381  0.7024  2.0482  2.2081
   7423SM  C10F 9770  -0.031   5.683  15.217  0.0531  0.1818  0.3445
   7423SM  H10F 9771  -0.084   5.599  15.167 -0.5587  0.8990 -0.2210
   7423SM  H10G 9772   0.078   5.671  15.194  0.3724  0.3361  1.7068
   7423SM  C11F 9773  -0.060   5.815  15.141  1.0029 -0.3139  0.2113
   7423SM  H11F 9774   0.009   5.887  15.190 -0.3253  1.2269 -0.1123
   7423SM  H11G 9775  -0.167   5.840  15.155  1.1118  0.8806 -0.9174
   7423SM  C12F 9776  -0.030   5.811  14.995  0.1535  0.4462 -0.0761
   7423SM  H12F 9777  -0.099   5.734  14.955 -0.6640  0.3649  1.4304
   7423SM  H12G 9778   0.071   5.771  14.970 -0.0270 -0.9321  1.2536
   7423SM  C13F 9779  -0.053   5.942  14.917  0.5004  0.4118  0.0837
   7423SM  H13F 9780   0.020   6.020  14.949  1.0946  0.4069 -1.2111
   7423SM  H13G 9781  -0.156   5.976  14.942  0.4394 -0.8745  1.8135
   7423SM  C14F 9782  -0.032   5.912  14.767 -0.1100 -0.4855 -0.3974
   7423SM  H14F 9783  -0.064   5.810  14.739  1.3072 -1.0595 -0.0498
   7423SM  H14G 9784   0.078   5.906  14.752  0.3364  0.9362  1.7626
   7423SM  C15F 9785  -0.086   6.009  14.669 -0.3083 -0.5071  0.1244
   7423SM  H15F 9786  -0.052   5.995  14.564 -0.7951 -0.4860 -0.0401
   7423SM  H15G 9787  -0.064   6.116  14.693 -0.5057 -0.8859  2.1713
   7423SM  C16F 9788  -0.243   6.003  14.653 -0.0833  0.1003 -0.3911
   7423SM  H16F 9789  -0.294   6.015  14.751  1.7712  1.2957  0.4824
   7423SM  H16G 9790  -0.286   5.915  14.601  0.6367 -0.6450  0.2593
   7423SM  C17F 9791  -0.288   6.124  14.565 -0.0675 -0.1135 -0.8171
   7423SM  H17F 9792  -0.229   6.129  14.471  0.0724 -1.7392 -0.8445
   7423SM  H17G 9793  -0.273   6.219  14.621  0.3228 -1.5700  1.6698
   7423SM  C18F 9794  -0.437   6.126  14.522  0.0851  0.2999 -0.4435
   7423SM  H18F 9795  -0.459   6.021  14.494 -0.0110  0.4002 -0.7501
   7423SM  H18G 9796  -0.450   6.187  14.430 -1.0044  2.0191  0.7748
   7423SM  C19F 9797  -0.530   6.163  14.643  0.9350  0.1298  0.2965
   7423SM  H19F 9798  -0.519   6.267  14.678  0.8835  0.8806 -1.7586
   7423SM  H19G 9799  -0.495   6.103  14.730 -1.8925 -0.5000  1.0859
   7423SM  C20F 9800  -0.678   6.119  14.632 -0.2644  0.0158 -0.3780
   7423SM  H20F 9801  -0.739   6.164  14.713 -1.0001  1.7973 -1.8566
   7423SM  H20G 9802  -0.689   6.009  14.644  0.1938  0.1766  1.9731
   7423SM  C21F 9803  -0.742   6.165  14.496 -0.2107  0.0377 -0.1926
   7423SM  H21F 9804  -0.683   6.141  14.405 -1.0224  0.4082 -0.8281
   7423SM  H21G 9805  -0.748   6.275  14.483  1.3664 -0.0296 -1.9508
   7423SM  C22F 9806  -0.881   6.107  14.478  0.3271 -0.0769  0.2495
   7423SM  H22F 9807  -0.948   6.152  14.554 -1.6113  0.3379 -1.5852
   7423SM  H22G 9808  -0.872   6.000  14.507  0.7522  0.4729  2.2359
   7423SM  C23F 9809  -0.937   6.127  14.340 -0.1453 -0.0509 -1.0095
   7423SM  H23F 9810  -1.041   6.087  14.339 -0.6458  0.8826  2.0733
   7423SM  H23G 9811  -0.890   6.071  14.256 -2.1721 -0.3157 -2.0426
   7423SM  H23H 9812  -0.936   6.237  14.323 -1.5007 -0.1701 -2.1103
   7523SM     N 9813   6.103   6.656  16.910 -0.4053 -0.3788 -0.3721
   7523SM   C15 9814   6.197   6.757  16.866  0.0814  0.0513 -0.2099
   7523SM  H15A 9815   6.140   6.842  16.833 -1.2159  0.6592  3.2512
   7523SM  H15B 9816   6.260   6.723  16.785  1.9234  2.1914  0.2114
   7523SM  H15C 9817   6.260   6.791  16.947 -0.1977  2.7151 -1.0370
   7523SM   C14 9818   6.172   6.548  16.984 -0.1734  0.7791 -0.4529
   7523SM  H14A 9819   6.261   6.510  16.936  0.3622 -0.2149  1.2371
   7523SM  H14B 9820   6.105   6.465  17.003  1.2148 -0.5708 -1.1846
   7523SM  H14C 9821   6.191   6.587  17.083  0.3988  0.4806 -0.4383
   7523SM   C13 9822   6.006   6.717  16.996  0.7625 -0.5289  0.5639
   7523SM  H13A 9823   5.928   6.654  17.036  0.0920  1.1010  1.9519
   7523SM  H13B 9824   5.947   6.791  16.944  0.8179 -2.5710 -2.6375
   7523SM  H13C 9825   6.048   6.761  17.086  1.5045  0.1680 -0.1036
   7523SM   C12 9826   6.038   6.590  16.791  0.3266  0.1962  0.1348
   7523SM  H12A 9827   5.969   6.510  16.814  0.2419  0.7455  1.9679
   7523SM  H12B 9828   6.107   6.545  16.722  0.5002  1.6269 -0.6814
   7523SM   C11 9829   5.948   6.684  16.703  0.0387  0.0671 -0.5420
   7523SM  H11A 9830   5.914   6.632  16.611  1.9050  0.1118 -1.3174
   7523SM  H11B 9831   6.008   6.770  16.666 -0.3171  0.2963 -0.5889
   7523SM     P 9832   5.709   6.638  16.811  0.2375  0.1145  0.2271
   7523SM   O13 9833   5.755   6.520  16.894  0.1616 -0.9001  0.2574
   7523SM   O14 9834   5.608   6.727  16.875 -0.1730  0.6935  0.9579
   7523SM   O11 9835   5.643   6.595  16.683  0.1934  0.1710  0.1714
   7523SM   O12 9836   5.830   6.736  16.766 -0.0896  0.1901  0.2380
   7523SM   C1S 9837   5.570   6.687  16.602 -0.3661  0.8077 -0.5230
   7523SM   H1S 9838   5.603   6.791  16.619 -1.5747  1.3173 -1.1439
   7523SM   H1T 9839   5.466   6.673  16.639  0.1518  0.2299  0.7904
   7523SM    NF 9840   5.509   6.761  16.385  0.2538 -0.3514 -0.1956
   7523SM   HNF 9841   5.431   6.735  16.329  0.0467 -1.1655  0.4569
   7523SM   C2S 9842   5.583   6.652  16.454 -0.6607  0.2712  0.0598
   7523SM   H2S 9843   5.689   6.676  16.428 -0.4805 -0.0173  0.5112
   7523SM   C3S 9844   5.542   6.516  16.402 -0.0228 -0.5584 -0.6153
   7523SM   H3S 9845   5.431   6.516  16.402 -0.1602  3.1566  0.5014
   7523SM    O3 9846   5.570   6.418  16.497  0.4280 -0.2597  0.3279
   7523SM   HO3 9847   5.596   6.462  16.578 -1.4428 -0.5039  1.1262
   7523SM   C4S 9848   5.604   6.479  16.274  0.2442  0.3103 -0.0233
   7523SM   H4S 9849   5.530   6.481  16.192 -0.0725 -0.2708  0.2387
   7523SM   C5S 9850   5.736   6.448  16.256  0.4623  0.1116  0.7325
   7523SM   H5S 9851   5.804   6.463  16.341  1.7899  0.3276 -0.3175
   7523SM   C6S 9852   5.796   6.413  16.124  0.5448 -0.0670  0.0350
   7523SM   H6S 9853   5.738   6.320  16.102  1.8765 -0.6754 -1.0454
   7523SM   H6T 9854   5.903   6.387  16.139  0.5476  0.7716  1.7492
   7523SM   C7S 9855   5.780   6.521  16.014 -0.2264  0.0943 -0.0303
   7523SM   H7S 9856   5.847   6.607  16.035 -0.8493  0.4246  0.6418
   7523SM   H7T 9857   5.676   6.560  16.011  0.4077  1.8993 -2.5917
   7523SM   C8S 9858   5.812   6.462  15.878 -0.1727 -0.4076  0.2193
   7523SM   H8S 9859   5.759   6.366  15.859  0.3770 -0.6314 -0.1900
   7523SM   H8T 9860   5.919   6.440  15.862 -0.4368 -0.6224 -1.4318
   7523SM   C9S 9861   5.787   6.559  15.760 -0.5312 -0.4945  0.2714
   7523SM   H9S 9862   5.862   6.640  15.763 -0.5295 -0.2866 -2.5355
   7523SM   H9T 9863   5.679   6.586  15.761 -0.3112  0.5965 -1.4183
   7523SM  C10S 9864   5.802   6.484  15.624 -0.3147  0.0393  0.3944
   7523SM  H10S 9865   5.722   6.410  15.644 -1.2491  1.2572  1.3368
   7523SM  H10T 9866   5.898   6.432  15.603 -0.0325 -0.3530  2.4161
   7523SM  C11S 9867   5.758   6.574  15.506  0.1793 -0.2777  0.7807
   7523SM  H11S 9868   5.837   6.643  15.470  1.1569 -0.8524  1.7816
   7523SM  H11T 9869   5.681   6.650  15.534  0.3414  0.8771 -1.7062
   7523SM  C12S 9870   5.723   6.491  15.384 -0.0309  0.3870 -0.0857
   7523SM  H12S 9871   5.676   6.398  15.421 -2.3708  1.3875 -0.3408
   7523SM  H12T 9872   5.820   6.457  15.342  0.7044  1.5205  0.6170
   7523SM  C13S 9873   5.640   6.568  15.281  0.6809 -0.2919  0.9136
   7523SM  H13S 9874   5.676   6.672  15.263 -1.4952  0.4034  0.2029
   7523SM  H13T 9875   5.537   6.588  15.320 -0.0087 -0.7263 -0.6293
   7523SM  C14S 9876   5.620   6.499  15.141 -0.2890  0.6235 -0.7771
   7523SM  H14S 9877   5.575   6.399  15.159 -0.1613  0.4203 -1.5661
   7523SM  H14T 9878   5.717   6.494  15.088  0.5630  1.7317  0.6221
   7523SM  C15S 9879   5.519   6.576  15.052  0.2115  0.5210  0.0772
   7523SM  H15S 9880   5.448   6.632  15.117  0.4880  1.4046 -0.3707
   7523SM  H15T 9881   5.453   6.509  14.993 -0.3826  0.6412  0.5921
   7523SM  C16S 9882   5.591   6.677  14.951  0.3438  0.0715  0.5907
   7523SM  H16S 9883   5.634   6.607  14.877  0.3267  0.5959  0.0809
   7523SM  H16T 9884   5.670   6.727  15.012  0.1361 -0.0857  0.9969
   7523SM  C17S 9885   5.489   6.788  14.906 -0.4603  0.0396  0.1158
   7523SM  H17S 9886   5.546   6.878  14.876 -1.1600  0.4607  0.0216
   7523SM  H17T 9887   5.415   6.817  14.983 -2.4109  0.2401 -1.7252
   7523SM  C18S 9888   5.408   6.733  14.789 -0.1295 -0.0614 -0.4903
   7523SM  H18S 9889   5.360   6.636  14.814  2.4182 -1.3913 -0.3671
   7523SM  H18T 9890   5.467   6.715  14.697  0.6322 -1.4343  0.2260
   7523SM  H18U 9891   5.330   6.808  14.766 -0.5518 -0.6353 -0.9772
   7523SM   C1F 9892   5.561   6.884  16.376 -0.1374  0.9413 -0.1612
   7523SM    OF 9893   5.666   6.919  16.434  0.3697  0.0040  0.6203
   7523SM   C2F 9894   5.487   6.983  16.298  0.7846  0.5928  0.1322
   7523SM   H2F 9895   5.382   6.994  16.333  0.7080 -0.9716  0.4738
   7523SM   H2G 9896   5.490   6.958  16.190 -1.3326  1.9701 -0.3241
   7523SM   C3F 9897   5.544   7.123  16.299  0.0349  0.3481  0.7734
   7523SM   H3F 9898   5.655   7.112  16.295 -0.1215 -1.2300 -0.5484
   7523SM   H3G 9899   5.513   7.181  16.388 -1.7539  0.5525  0.0619
   7523SM   C4F 9900   5.503   7.199  16.175  0.7702  1.2602  0.0696
   7523SM   H4F 9901   5.393   7.214  16.173  0.2511 -1.4688  2.0933
   7523SM   H4G 9902   5.517   7.135  16.086 -0.8738  2.5837 -1.2340
   7523SM   C5F 9903   5.585   7.325  16.160 -0.0111  0.0351 -0.3248
   7523SM   H5F 9904   5.691   7.298  16.141  0.0444  0.0514 -0.0372
   7523SM   H5G 9905   5.584   7.386  16.252 -1.0377  0.5747 -0.6711
   7523SM   C6F 9906   5.540   7.420  16.044  0.2409  0.8743 -0.5111
   7523SM   H6F 9907   5.449   7.480  16.066  0.5628  0.9167  0.8237
   7523SM   H6G 9908   5.528   7.356  15.954  2.0695 -0.6643  0.2819
   7523SM   C7F 9909   5.660   7.505  16.019 -0.5063 -0.8343 -0.0873
   7523SM   H7F 9910   5.751   7.454  15.981  1.6636  2.7189 -0.0913
   7523SM   H7G 9911   5.688   7.562  16.110  0.6856 -1.1520 -0.2375
   7523SM   C8F 9912   5.634   7.611  15.910  0.7177  0.3697 -0.2073
   7523SM   H8F 9913   5.728   7.669  15.892  1.6927 -1.1628 -0.2158
   7523SM   H8G 9914   5.564   7.689  15.945 -2.3060 -1.1574 -2.3913
   7523SM   C9F 9915   5.597   7.552  15.776 -0.2529 -0.3012  0.0928
   7523SM   H9F 9916   5.568   7.640  15.715  0.1892 -0.7058 -0.7219
   7523SM   H9G 9917   5.507   7.487  15.779  0.2223 -0.9361  2.5090
   7523SM  C10F 9918   5.713   7.490  15.695 -0.3401 -0.3087 -0.1028
   7523SM  H10F 9919   5.734   7.403  15.760 -1.1894  0.8660  1.8292
   7523SM  H10G 9920   5.800   7.560  15.698 -0.5800  0.0045 -0.3526
   7523SM  C11F 9921   5.681   7.452  15.541 -0.4236 -0.1858  0.1333
   7523SM  H11F 9922   5.577   7.413  15.539 -0.3909 -0.2291 -0.7341
   7523SM  H11G 9923   5.751   7.370  15.514  1.1184  1.0745  0.1973
   7523SM  C12F 9924   5.709   7.570  15.447 -0.1460 -0.0652 -0.7092
   7523SM  H12F 9925   5.809   7.613  15.468  0.5125 -1.4830 -0.8076
   7523SM  H12G 9926   5.627   7.642  15.470  2.0547  2.0296  0.9613
   7523SM  C13F 9927   5.699   7.532  15.298  0.4288  0.0503  0.0589
   7523SM  H13F 9928   5.608   7.472  15.282 -0.3331  0.6973  1.6915
   7523SM  H13G 9929   5.791   7.476  15.270 -1.7762 -2.2435 -3.2063
   7523SM  C14F 9930   5.687   7.658  15.202  0.0598  0.2037 -0.3114
   7523SM  H14F 9931   5.788   7.701  15.189 -0.5944  2.2589  0.9226
   7523SM  H14G 9932   5.620   7.734  15.247  0.3575 -0.0421  0.5778
   7523SM  C15F 9933   5.629   7.618  15.062  0.0203 -0.2334  0.1004
   7523SM  H15F 9934   5.519   7.600  15.066  0.0033 -0.1898 -0.1332
   7523SM  H15G 9935   5.688   7.528  15.035 -1.3944 -1.0137 -0.5417
   7523SM  C16F 9936   5.657   7.707  14.943  0.3631 -0.4891  0.0568
   7523SM  H16F 9937   5.766   7.729  14.954  0.0946  0.3475  1.1820
   7523SM  H16G 9938   5.602   7.802  14.958  0.7130 -0.5372  1.8109
   7523SM  C17F 9939   5.626   7.641  14.816 -0.7443 -0.0746  0.7077
   7523SM  H17F 9940   5.517   7.626  14.802 -0.7588  2.0597 -2.3073
   7523SM  H17G 9941   5.670   7.540  14.813 -1.2574 -0.2798 -0.0607
   7523SM  C18F 9942   5.675   7.717  14.686 -0.3905 -0.4173 -0.1987
   7523SM  H18F 9943   5.632   7.820  14.684 -1.8412 -1.0062 -1.7622
   7523SM  H18G 9944   5.636   7.675  14.591 -0.7027 -0.4546 -0.0568
   7523SM  C19F 9945   5.828   7.730  14.668  0.2115  0.3297 -0.1521
   7523SM  H19F 9946   5.874   7.739  14.769 -0.2199 -0.0244  0.0797
   7523SM  H19G 9947   5.862   7.821  14.613  2.6123 -0.3906  0.0242
   7523SM  C20F 9948   5.899   7.600  14.627  0.2125 -0.2559 -0.3578
   7523SM  H20F 9949   5.859   7.567  14.529  0.2662  0.7536 -0.7313
   7523SM  H20G 9950   5.873   7.522  14.702  2.2127 -0.9634 -0.3478
   7523SM  C21F 9951   6.047   7.612  14.619  0.6354  0.7147  0.3833
   7523SM  H21F 9952   6.084   7.651  14.716  2.7531  0.5594 -0.3061
   7523SM  H21G 9953   6.064   7.690  14.541  0.5613 -0.4223 -0.8094
   7523SM  C22F 9954   6.114   7.477  14.582 -0.3776 -0.2698  0.2088
   7523SM  H22F 9955   6.091   7.453  14.476 -1.5403 -0.4565  0.4904
   7523SM  H22G 9956   6.081   7.397  14.651 -0.7402  0.5582  1.0217
   7523SM  C23F 9957   6.263   7.503  14.603 -0.0201  0.1022  0.1793
   7523SM  H23F 9958   6.297   7.567  14.519  0.0039  0.1166  0.2000
   7523SM  H23G 9959   6.321   7.408  14.612 -0.3742  0.0232  1.9300
   7523SM  H23H 9960   6.269   7.552  14.703  1.1730  0.5565 -0.0991
   7623SM     N 9961   0.329   6.569  16.940  0.1463 -0.0070 -0.0771
   7623SM   C15 9962   0.323   6.676  17.049  0.4462  1.0093  0.5428
   7623SM  H15A 9963   0.417   6.722  17.074  1.1562  1.0668 -1.9453
   7623SM  H15B 9964   0.287   6.639  17.144  0.8363 -0.6271  0.0828
   7623SM  H15C 9965   0.263   6.760  17.016 -0.2950  0.3148  0.0934
   7623SM   C14 9966   0.398   6.629  16.823  0.4095 -0.3372 -0.3503
   7623SM  H14A 9967   0.412   6.554  16.747  2.2910 -0.9488  0.5231
   7623SM  H14B 9968   0.487   6.685  16.851 -0.5827  1.4130 -0.5994
   7623SM  H14C 9969   0.327   6.699  16.781  0.3055 -1.1611 -1.5675
   7623SM   C13 9970   0.412   6.457  16.984  0.7466 -0.1195 -0.2426
   7623SM  H13A 9971   0.376   6.424  17.081  2.1763  0.4610  0.5147
   7623SM  H13B 9972   0.512   6.496  16.999  1.2870 -1.0182 -1.4326
   7623SM  H13C 9973   0.418   6.368  16.923  0.9067  1.0648 -2.0338
   7623SM   C12 9974   0.191   6.511  16.899  0.5679 -0.0314  0.1142
   7623SM  H12A 9975   0.146   6.478  16.992  0.1187  1.1064  0.3187
   7623SM  H12B 9976   0.213   6.423  16.841  1.4089  0.1783  0.0993
   7623SM   C11 9977   0.090   6.602  16.834  0.8428  0.6120  0.1932
   7623SM  H11A 9978   0.005   6.531  16.826  2.5123 -1.3431 -1.4438
   7623SM  H11B 9979   0.122   6.622  16.730 -3.2446  2.5636 -0.8883
   7623SM     P 9980   0.065   6.861  16.856 -0.7166  0.1550 -0.3539
   7623SM   O13 9981  -0.069   6.917  16.854 -0.1700  0.3153  0.1429
   7623SM   O14 9982   0.173   6.934  16.937  0.4435 -0.6696 -0.4498
   7623SM   O11 9983   0.110   6.834  16.712 -0.5302 -0.2209  0.4508
   7623SM   O12 9984   0.047   6.714  16.909 -0.0137  0.2306  0.4069
   7623SM   C1S 9985   0.004   6.829  16.608  0.1341  0.1677 -0.2253
   7623SM   H1S 9986  -0.081   6.898  16.625  0.2838  0.5067 -0.8317
   7623SM   H1T 9987  -0.028   6.723  16.600  3.1968 -0.8422 -0.6266
   7623SM    NF 9988  -0.045   6.911  16.384 -0.0226  0.9457  0.3910
   7623SM   HNF 9989  -0.048   6.840  16.313 -0.3452  1.6831 -0.3470
   7623SM   C2S 9990   0.063   6.881  16.471 -0.5122 -0.4366 -0.0972
   7623SM   H2S 9991   0.107   6.981  16.493  1.6518 -1.4564  0.4773
   7623SM   C3S 9992   0.174   6.786  16.421  0.6347  0.0667  0.1341
   7623SM   H3S 9993   0.121   6.692  16.395 -1.4511  0.9338  1.0367
   7623SM    O3 9994   0.281   6.758  16.522  0.1015  0.3666  0.0085
   7623SM   HO3 9995   0.236   6.774  16.605  0.1191  2.3570 -0.3201
   7623SM   C4S 9996   0.242   6.850  16.305  0.1636 -0.1787  0.5719
   7623SM   H4S 9997   0.329   6.914  16.328 -1.3882  1.7386  1.4485
   7623SM   C5S 9998   0.203   6.832  16.178  0.0307 -0.1174  0.1893
   7623SM   H5S 9999   0.118   6.767  16.153 -0.6856  0.7757  0.2568
   7623SM   C6S10000   0.268   6.894  16.059  0.1344  0.0219  0.2481
   7623SM   H6S10001   0.351   6.959  16.094 -0.9076 -0.4204  3.9344
   7623SM   H6T10002   0.196   6.965  16.011 -1.6041 -0.9772  1.2854
   7623SM   C7S10003   0.313   6.807  15.941  0.1768 -0.0640 -0.0063
   7623SM   H7S10004   0.225   6.754  15.899  0.2985  0.1113 -0.4943
   7623SM   H7T10005   0.388   6.737  15.984 -1.7308 -1.8572  0.5598
   7623SM   C8S10006   0.378   6.898  15.829 -0.5705  0.3372 -0.7080
   7623SM   H8S10007   0.475   6.927  15.873  0.3491 -1.4809 -1.4328
   7623SM   H8T10008   0.312   6.986  15.811 -1.4948 -0.0260  0.7213
   7623SM   C9S10009   0.410   6.809  15.708  0.0066 -0.1775  0.5154
   7623SM   H9S10010   0.311   6.771  15.674  1.1179 -3.7948  0.8846
   7623SM   H9T10011   0.479   6.732  15.748  2.5679  2.0287  0.6101
   7623SM  C10S10012   0.471   6.882  15.587  0.0379  0.2424 -0.6528
   7623SM  H10S10013   0.559   6.944  15.613  0.7515 -0.5643 -1.1337
   7623SM  H10T10014   0.385   6.944  15.552 -0.7042 -0.8947 -0.9193
   7623SM  C11S10015   0.513   6.788  15.477  0.2580  0.7905 -0.0041
   7623SM  H11S10016   0.427   6.739  15.428  0.5922 -0.4222  0.5798
   7623SM  H11T10017   0.583   6.707  15.507  1.0398  1.1708 -0.7413
   7623SM  C12S10018   0.574   6.871  15.365 -0.2024 -0.0613 -1.0304
   7623SM  H12S10019   0.653   6.933  15.412 -1.0078 -0.8933  1.5594
   7623SM  H12T10020   0.495   6.936  15.320 -0.3485  2.0950  2.0384
   7623SM  C13S10021   0.643   6.770  15.266  0.0764  0.1366 -0.3228
   7623SM  H13S10022   0.568   6.695  15.234  1.2661 -0.9568 -0.6221
   7623SM  H13T10023   0.714   6.702  15.318 -2.4074 -2.1378  0.3247
   7623SM  C14S10024   0.681   6.843  15.141 -1.0259  0.6930 -0.0508
   7623SM  H14S10025   0.586   6.872  15.090 -1.0484  2.5439  0.9753
   7623SM  H14T10026   0.747   6.776  15.083 -0.5993  1.1137 -0.0554
   7623SM  C15S10027   0.755   6.976  15.153 -0.0862 -0.0863 -0.8207
   7623SM  H15S10028   0.839   6.951  15.221 -1.8808 -1.4176  1.0400
   7623SM  H15T10029   0.688   7.044  15.210  0.2788 -0.9390  0.6543
   7623SM  C16S10030   0.783   7.038  15.018 -0.0360 -0.2590 -0.8902
   7623SM  H16S10031   0.819   7.140  15.042  0.7759 -0.8349  0.4703
   7623SM  H16T10032   0.688   7.034  14.961 -1.9802  1.0087  2.0048
   7623SM  C17S10033   0.882   6.980  14.931 -0.5289 -0.2257  0.3533
   7623SM  H17S10034   0.893   7.041  14.838 -0.0339 -1.4373 -0.4103
   7623SM  H17T10035   0.857   6.875  14.908  1.4969 -0.4526 -1.0602
   7623SM  C18S10036   1.024   6.992  14.996 -0.0717 -0.1519 -0.2895
   7623SM  H18S10037   1.058   7.096  14.977 -2.7959  0.8692 -0.0041
   7623SM  H18T10038   1.094   6.929  14.937 -0.1850 -0.1045 -0.4739
   7623SM  H18U10039   1.022   6.976  15.106  0.2838 -1.3624 -0.4377
   7623SM   C1F10040  -0.133   7.008  16.395 -0.3128  1.0223  0.7252
   7623SM    OF10041  -0.113   7.098  16.474 -0.1713 -1.0814 -0.0892
   7623SM   C2F10042  -0.266   6.995  16.316 -0.0252 -0.2574 -0.1531
   7623SM   H2F10043  -0.347   6.967  16.385 -0.6557  1.9039  0.0467
   7623SM   H2G10044  -0.259   6.913  16.241  0.0371 -0.7241  0.3553
   7623SM   C3F10045  -0.324   7.115  16.236 -0.0959  0.0381  0.9926
   7623SM   H3F10046  -0.318   7.204  16.302  1.1773  0.8502 -0.1537
   7623SM   H3G10047  -0.429   7.099  16.204 -0.0160  0.1271  0.6770
   7623SM   C4F10048  -0.229   7.149  16.112  0.0036  0.4346 -0.4015
   7623SM   H4F10049  -0.123   7.135  16.140 -0.0424  0.0204 -0.4337
   7623SM   H4G10050  -0.231   7.258  16.089  2.4621  0.1255 -2.5353
   7623SM   C5F10051  -0.240   7.051  15.990  0.3229 -0.0124 -0.4072
   7623SM   H5F10052  -0.338   7.065  15.940 -0.0132  0.1719  0.2850
   7623SM   H5G10053  -0.243   6.947  16.029  1.7616 -0.3262 -1.0692
   7623SM   C6F10054  -0.118   7.068  15.894 -0.5156  0.3396 -0.0839
   7623SM   H6F10055  -0.026   7.042  15.950  0.1977 -2.9120 -2.4376
   7623SM   H6G10056  -0.116   7.171  15.852  2.9136 -0.6578 -2.8620
   7623SM   C7F10057  -0.104   6.972  15.775  0.3600  0.5892  0.1057
   7623SM   H7F10058  -0.181   6.991  15.698 -1.1871  1.9571  1.8931
   7623SM   H7G10059  -0.117   6.866  15.805 -0.3487  0.5242 -0.4233
   7623SM   C8F10060   0.038   6.986  15.723  0.3451  0.3535  0.1849
   7623SM   H8F10061   0.106   6.957  15.806  0.8189  2.7309  0.6878
   7623SM   H8G10062   0.056   7.096  15.722 -1.1810  0.6282  0.7159
   7623SM   C9F10063   0.074   6.919  15.592 -0.0637  0.6383  1.1754
   7623SM   H9F10064   0.069   6.808  15.583  3.0465  0.3792  1.4596
   7623SM   H9G10065   0.182   6.935  15.574  0.0340 -1.3487 -0.4509
   7623SM  C10F10066   0.010   6.992  15.479 -0.0727 -0.6062  0.3600
   7623SM  H10F10067   0.044   7.098  15.476 -0.7780 -0.3714  0.3388
   7623SM  H10G10068  -0.101   6.986  15.480 -0.2198  1.1709  2.2801
   7623SM  C11F10069   0.051   6.934  15.344 -0.5723  0.3768 -0.1139
   7623SM  H11F10070   0.029   6.826  15.338 -0.5413  0.2461  1.6512
   7623SM  H11G10071   0.162   6.939  15.338 -0.5268 -1.1244 -0.7469
   7623SM  C12F10072  -0.020   7.007  15.224  0.6121  0.4319 -1.1206
   7623SM  H12F10073   0.020   6.973  15.126 -0.0071 -0.9657 -0.9081
   7623SM  H12G10074   0.007   7.115  15.230  0.3140  0.5241 -1.4371
   7623SM  C13F10075  -0.175   7.001  15.219 -0.4137  0.7404 -0.1588
   7623SM  H13F10076  -0.214   7.051  15.310 -0.0729 -1.4159  1.2676
   7623SM  H13G10077  -0.207   6.894  15.221 -0.2061  0.6308 -1.6165
   7623SM  C14F10078  -0.238   7.072  15.098  0.0012  0.5847 -0.1790
   7623SM  H14F10079  -0.201   7.176  15.086 -1.1718  0.8676 -1.6703
   7623SM  H14G10080  -0.348   7.087  15.105 -0.1201 -0.4266  0.1413
   7623SM  C15F10081  -0.211   7.007  14.962  0.0731 -0.6151 -0.2750
   7623SM  H15F10082  -0.238   6.900  14.960  0.1242 -0.7107  1.6894
   7623SM  H15G10083  -0.103   7.019  14.938 -0.1846  1.3078 -0.6858
   7623SM  C16F10084  -0.283   7.089  14.853 -0.3157 -0.3602  0.0819
   7623SM  H16F10085  -0.239   7.191  14.859  1.3084 -0.9450 -1.0612
   7623SM  H16G10086  -0.390   7.095  14.882 -0.0063 -0.7248  1.3384
   7623SM  C17F10087  -0.274   7.030  14.721 -0.4872  0.1869 -0.1542
   7623SM  H17F10088  -0.263   6.920  14.733  0.8451  0.2370 -0.6501
   7623SM  H17G10089  -0.177   7.063  14.677 -0.3166  2.5897  1.8321
   7623SM  C18F10090  -0.395   7.056  14.636 -0.8413 -0.1947  0.8464
   7623SM  H18F10091  -0.408   7.166  14.639  1.2061  0.2323 -1.9494
   7623SM  H18G10092  -0.489   7.012  14.675 -1.7539 -0.3854 -1.3791
   7623SM  C19F10093  -0.377   7.013  14.490  0.5300 -0.3463  0.0822
   7623SM  H19F10094  -0.346   6.906  14.482  0.8328 -0.3445  1.0501
   7623SM  H19G10095  -0.296   7.068  14.437  1.8718 -2.3730 -0.1094
   7623SM  C20F10096  -0.510   7.026  14.416 -0.6368 -0.4017  0.0251
   7623SM  H20F10097  -0.580   6.947  14.453 -1.1760 -0.4704 -1.1019
   7623SM  H20G10098  -0.483   7.011  14.310 -1.3907 -1.3597 -0.0526
   7623SM  C21F10099  -0.588   7.158  14.411  0.7435 -0.6555 -0.2970
   7623SM  H21F10100  -0.508   7.235  14.411 -0.7458  0.9660  0.5078
   7623SM  H21G10101  -0.655   7.177  14.498  0.2347 -0.4176 -0.7337
   7623SM  C22F10102  -0.681   7.166  14.288  0.6037 -0.1224 -0.2535
   7623SM  H22F10103  -0.637   7.121  14.197 -0.6532 -1.1305 -0.3944
   7623SM  H22G10104  -0.704   7.274  14.281 -2.8855 -0.7293  0.0694
   7623SM  C23F10105  -0.815   7.098  14.317 -0.8801 -0.1391  0.5300
   7623SM  H23F10106  -0.796   6.988  14.324 -0.6426 -0.1773 -0.5373
   7623SM  H23G10107  -0.880   7.108  14.228 -2.3421 -1.0993  1.4454
   7623SM  H23H10108  -0.868   7.143  14.404 -0.1460  2.4236 -0.2661
   7723SM     N10109   0.156   2.596  17.422 -0.0949 -0.3613 -0.1345
   7723SM   C1510110   0.061   2.525  17.516 -0.1859  0.4673  0.0215
   7723SM  H15A10111   0.017   2.446  17.456 -0.1904 -1.8490  2.8202
   7723SM  H15B10112  -0.012   2.593  17.556  0.2434  0.8513  0.1589
   7723SM  H15C10113   0.111   2.477  17.599 -0.3441  0.2095 -0.0324
   7723SM   C1410114   0.223   2.705  17.500 -0.2609  0.0263  0.2446
   7723SM  H14A10115   0.151   2.758  17.560  0.9567  0.8465  1.0275
   7723SM  H14B10116   0.265   2.779  17.433 -0.5016 -2.9268 -3.5617
   7723SM  H14C10117   0.302   2.663  17.561 -1.2130 -0.8101  0.9253
   7723SM   C1310118   0.259   2.502  17.380 -0.4858 -0.1887 -0.1196
   7723SM  H13A10119   0.326   2.543  17.306 -0.1060  1.2948  1.0073
   7723SM  H13B10120   0.211   2.414  17.338 -1.0882 -0.4006  0.9622
   7723SM  H13C10121   0.323   2.463  17.458 -1.2560  0.8023  1.0448
   7723SM   C1210122   0.083   2.644  17.300  0.2068 -0.0118  0.3341
   7723SM  H12A10123  -0.007   2.693  17.335 -0.3389 -1.6360  1.2853
   7723SM  H12B10124   0.050   2.552  17.256 -1.0075  0.1183  0.9297
   7723SM   C1110125   0.168   2.749  17.208  0.2216 -0.3340  0.3238
   7723SM  H11A10126   0.126   2.745  17.105 -1.8105 -0.4179  1.1106
   7723SM  H11B10127   0.270   2.706  17.205  0.6834  0.7526 -0.7542
   7723SM     P10128   0.028   2.965  17.272 -0.5005 -0.2573  0.2524
   7723SM   O1310129  -0.050   2.912  17.389  0.5212 -0.0946  0.1404
   7723SM   O1410130   0.054   3.109  17.281  0.3178  0.4444  0.2110
   7723SM   O1110131  -0.049   2.925  17.135 -0.0366 -0.0345 -0.2020
   7723SM   O1210132   0.165   2.885  17.258 -0.2042 -0.7209 -0.2952
   7723SM   C1S10133  -0.138   3.012  17.062 -0.2339  0.6981  0.1636
   7723SM   H1S10134  -0.156   3.109  17.113 -1.7113 -0.0017  1.0693
   7723SM   H1T10135  -0.234   2.958  17.048 -0.1277  0.3999  0.5391
   7723SM    NF10136  -0.162   3.138  16.848  0.0121 -0.8343  0.0485
   7723SM   HNF10137  -0.230   3.117  16.778  0.6294 -0.6341 -0.6283
   7723SM   C2S10138  -0.097   3.027  16.913  0.6159 -0.6037 -0.1555
   7723SM   H2S10139   0.008   3.061  16.905  0.4634 -0.4672 -2.1406
   7723SM   C3S10140  -0.104   2.889  16.845  0.4625 -0.1724  0.3458
   7723SM   H3S10141  -0.211   2.861  16.838  0.4894  0.0402 -2.1610
   7723SM    O310142  -0.018   2.790  16.909  0.1238 -0.3650  0.0163
   7723SM   HO310143   0.006   2.835  16.990 -1.6345 -0.6333  0.7388
   7723SM   C4S10144  -0.070   2.899  16.700 -0.4891 -0.3843  0.6696
   7723SM   H4S10145  -0.152   2.919  16.629 -0.5495 -0.5114  0.7042
   7723SM   C5S10146   0.059   2.914  16.650  0.3573  0.0399 -0.4052
   7723SM   H5S10147   0.143   2.910  16.721  0.7329 -2.7274 -0.9017
   7723SM   C6S10148   0.083   2.942  16.505 -0.5558 -0.1791  0.7036
   7723SM   H6S10149   0.127   2.851  16.459  0.9070  2.2531 -3.1995
   7723SM   H6T10150   0.151   3.027  16.483 -2.2535  0.9665 -0.4799
   7723SM   C7S10151  -0.036   2.966  16.411  1.0024 -0.3464 -0.2095
   7723SM   H7S10152  -0.081   3.062  16.444 -0.8519 -0.8895 -0.9848
   7723SM   H7T10153  -0.113   2.888  16.432  0.6187 -0.1761 -0.9605
   7723SM   C8S10154  -0.000   2.963  16.261  0.2760  0.4115  0.3285
   7723SM   H8S10155   0.046   2.864  16.245  0.0517  0.1188  1.4656
   7723SM   H8T10156   0.082   3.038  16.254  1.0239 -0.3992  0.3011
   7723SM   C9S10157  -0.099   2.997  16.152 -0.1828 -0.0116  0.5442
   7723SM   H9S10158  -0.131   3.102  16.167  0.0624  0.4542 -1.8039
   7723SM   H9T10159  -0.185   2.927  16.160  0.4659 -1.0086 -0.8098
   7723SM  C10S10160  -0.027   2.985  16.015 -0.1561  0.0832  0.2134
   7723SM  H10S10161  -0.014   2.879  15.987 -1.0706 -0.0214  0.1325
   7723SM  H10T10162   0.073   3.032  16.010 -0.2744  0.4481  0.9750
   7723SM  C11S10163  -0.110   3.038  15.894 -0.4023 -0.3047  0.1755
   7723SM  H11S10164  -0.131   3.147  15.903  2.4437  0.2038  1.9776
   7723SM  H11T10165  -0.206   2.985  15.876 -1.7216  1.2698  2.1343
   7723SM  C12S10166  -0.034   3.025  15.760  0.2612  0.0397  0.9745
   7723SM  H12S10167   0.022   2.930  15.745  1.5791  1.2741 -2.8372
   7723SM  H12T10168   0.030   3.116  15.756  0.5879 -0.1914  0.9307
   7723SM  C13S10169  -0.121   3.057  15.640 -0.0020 -0.5598 -0.8288
   7723SM  H13S10170  -0.152   3.163  15.651 -1.1084 -0.8504 -1.0035
   7723SM  H13T10171  -0.215   2.997  15.645 -1.3690  1.3029 -2.4475
   7723SM  C14S10172  -0.063   3.026  15.502 -0.4354 -0.0223  0.0596
   7723SM  H14S10173  -0.039   2.919  15.484 -0.5563  0.2658 -2.1474
   7723SM  H14T10174   0.028   3.089  15.488 -0.9728  1.2961  2.0594
   7723SM  C15S10175  -0.164   3.063  15.394 -0.1946  0.1641  0.0565
   7723SM  H15S10176  -0.177   3.171  15.420  0.1981 -0.2857  2.4017
   7723SM  H15T10177  -0.265   3.018  15.408 -0.0121 -0.3813 -0.3717
   7723SM  C16S10178  -0.102   3.054  15.255  0.3854  1.0016 -0.6892
   7723SM  H16S10179  -0.080   2.947  15.238 -4.6527 -0.5006  0.5873
   7723SM  H16T10180  -0.013   3.121  15.250  1.6572 -0.5701 -0.2026
   7723SM  C17S10181  -0.211   3.088  15.153 -0.2651  0.3634  0.5640
   7723SM  H17S10182  -0.256   3.185  15.182 -2.0155  0.0175 -0.7574
   7723SM  H17T10183  -0.294   3.014  15.161 -0.0444  0.0597  0.1072
   7723SM  C18S10184  -0.160   3.088  15.009 -0.4418  0.1830 -0.5965
   7723SM  H18S10185  -0.106   2.994  14.984  0.1384  0.1389  0.7447
   7723SM  H18T10186  -0.090   3.168  14.975  0.4471 -0.0278  0.6643
   7723SM  H18U10187  -0.237   3.108  14.931  0.6658 -1.8068 -2.3235
   7723SM   C1F10188  -0.144   3.265  16.876 -1.2333 -0.0795  0.9278
   7723SM    OF10189  -0.041   3.301  16.927 -0.0073  0.0412  0.2896
   7723SM   C2F10190  -0.246   3.353  16.825  0.4019 -0.4675 -0.6581
   7723SM   H2F10191  -0.278   3.428  16.900 -1.2648  0.5723 -2.3297
   7723SM   H2G10192  -0.340   3.299  16.803 -0.0406 -0.2700  0.6267
   7723SM   C3F10193  -0.203   3.425  16.698 -0.4424  0.3914 -0.1339
   7723SM   H3F10194  -0.106   3.473  16.721  0.3018 -1.2500  0.2726
   7723SM   H3G10195  -0.283   3.498  16.673 -0.6308 -0.5527 -2.5228
   7723SM   C4F10196  -0.191   3.338  16.575  0.1874  0.3770 -0.5167
   7723SM   H4F10197  -0.261   3.252  16.580  0.8413 -0.1459 -0.0823
   7723SM   H4G10198  -0.090   3.293  16.587 -1.0641 -2.3502  0.6810
   7723SM   C5F10199  -0.206   3.413  16.439 -1.0886  0.2393  0.3586
   7723SM   H5F10200  -0.138   3.498  16.458  1.5632 -2.0918  2.0340
   7723SM   H5G10201  -0.312   3.447  16.434 -0.4888  2.1173 -0.3838
   7723SM   C6F10202  -0.151   3.347  16.312 -0.3371  0.4652 -0.1798
   7723SM   H6F10203  -0.212   3.259  16.282  0.0053  0.0531  0.3238
   7723SM   H6G10204  -0.052   3.300  16.331 -0.1369  0.3810 -1.3525
   7723SM   C7F10205  -0.161   3.449  16.204  0.2161 -0.0280  0.0787
   7723SM   H7F10206  -0.117   3.549  16.223  0.2548  0.1491 -0.8580
   7723SM   H7G10207  -0.268   3.457  16.177  0.0110 -1.6411  0.2964
   7723SM   C8F10208  -0.084   3.396  16.079  0.6159 -0.6308  0.4494
   7723SM   H8F10209  -0.118   3.293  16.058  0.8651 -1.1323  2.3172
   7723SM   H8G10210   0.024   3.389  16.103  0.9969 -1.9497 -1.4932
   7723SM   C9F10211  -0.105   3.487  15.957  0.3635 -0.1772 -0.7078
   7723SM   H9F10212  -0.074   3.587  15.992 -3.0384  1.0736 -0.9043
   7723SM   H9G10213  -0.212   3.499  15.929 -0.0994 -0.5859  0.8246
   7723SM  C10F10214  -0.037   3.443  15.826  0.6066  0.2864  0.0865
   7723SM  H10F10215  -0.068   3.516  15.747 -3.0957 -1.0746  0.0732
   7723SM  H10G10216  -0.076   3.345  15.791  0.5209 -0.2379  1.6094
   7723SM  C11F10217   0.114   3.435  15.840 -0.6085  0.3087 -0.4321
   7723SM  H11F10218   0.134   3.332  15.875 -0.9649  0.7413  1.1174
   7723SM  H11G10219   0.143   3.508  15.918  0.1175 -0.6592  0.2280
   7723SM  C12F10220   0.201   3.468  15.714 -0.4640 -0.0248 -0.2844
   7723SM  H12F10221   0.305   3.449  15.750 -0.6718  1.1007  0.9837
   7723SM  H12G10222   0.205   3.574  15.681  0.3938  0.3682  1.0188
   7723SM  C13F10223   0.163   3.384  15.582  0.3005  0.6523 -0.5727
   7723SM  H13F10224   0.056   3.390  15.555  0.4588  1.2735 -1.0775
   7723SM  H13G10225   0.185   3.279  15.614  2.9895  1.3857  0.2446
   7723SM  C14F10226   0.259   3.415  15.472  0.4283  0.0089 -0.1876
   7723SM  H14F10227   0.365   3.405  15.501  1.4972  1.6030 -3.0881
   7723SM  H14G10228   0.252   3.524  15.449  0.3846 -0.3035 -1.7442
   7723SM  C15F10229   0.228   3.324  15.348 -0.2300 -0.3089 -0.1995
   7723SM  H15F10230   0.118   3.308  15.335 -0.9193  2.5426  1.5018
   7723SM  H15G10231   0.263   3.222  15.376  1.2160  0.2019 -0.0926
   7723SM  C16F10232   0.295   3.371  15.215 -0.0441 -0.4749 -0.4119
   7723SM  H16F10233   0.404   3.382  15.229 -0.0041 -1.7119  0.4205
   7723SM  H16G10234   0.244   3.465  15.185 -1.6586 -1.4900 -1.0159
   7723SM  C17F10235   0.271   3.271  15.101  0.2950  0.6115 -0.7125
   7723SM  H17F10236   0.284   3.323  15.004  0.2299  0.2695 -0.9078
   7723SM  H17G10237   0.165   3.237  15.102 -0.3064  2.4031  0.0863
   7723SM  C18F10238   0.365   3.148  15.107  0.0675 -0.3053 -0.4221
   7723SM  H18F10239   0.349   3.109  15.210  1.2105 -2.4420 -0.9870
   7723SM  H18G10240   0.470   3.175  15.086  0.2046 -1.6181 -1.6662
   7723SM  C19F10241   0.323   3.039  15.003  0.0564  0.2364  0.2068
   7723SM  H19F10242   0.352   3.048  14.896  0.6610  0.3903  0.3824
   7723SM  H19G10243   0.211   3.036  15.004  0.0445  0.6258  0.0306
   7723SM  C20F10244   0.362   2.894  15.046 -0.3909 -0.1952 -0.3537
   7723SM  H20F10245   0.325   2.808  14.986  1.4678 -1.1860 -0.1402
   7723SM  H20G10246   0.339   2.871  15.152  2.1978  0.6862  0.4688
   7723SM  C21F10247   0.519   2.887  15.059 -0.4034 -0.9556  0.0756
   7723SM  H21F10248   0.550   2.969  15.127 -0.5276 -1.2042  0.4289
   7723SM  H21G10249   0.544   2.922  14.956 -2.7341  0.3877 -0.0983
   7723SM  C22F10250   0.575   2.754  15.093 -0.0378  0.3085 -0.2889
   7723SM  H22F10251   0.550   2.720  15.196  2.6867 -3.4015 -0.6338
   7723SM  H22G10252   0.686   2.763  15.103 -0.0800 -0.3723  1.0479
   7723SM  C23F10253   0.552   2.638  14.996  0.2891 -0.1041  0.1726
   7723SM  H23F10254   0.597   2.678  14.903  1.2908  2.0007  1.4837
   7723SM  H23G10255   0.443   2.621  14.984  0.4780 -2.1895  0.9394
   7723SM  H23H10256   0.602   2.543  15.026  0.1753 -0.7185 -1.4735
   7823SM     N10257   0.920   0.962  17.172  0.4664 -0.1763  0.7744
   7823SM   C1510258   1.027   0.983  17.074  0.1224  0.1342 -0.1645
   7823SM  H15A10259   1.054   1.087  17.065 -1.2376  0.6324  1.2393
   7823SM  H15B10260   0.998   0.971  16.970  0.4956  1.2588 -0.4039
   7823SM  H15C10261   1.113   0.920  17.091 -1.1930 -1.6486  0.1419
   7823SM   C1410262   0.871   0.820  17.171  0.0684  0.1369  0.4091
   7823SM  H14A10263   0.827   0.802  17.074  0.0592  2.6963 -0.1057
   7823SM  H14B10264   0.802   0.789  17.248  0.6820 -2.8121 -0.0969
   7823SM  H14C10265   0.957   0.755  17.182  1.8874  2.4929  0.7439
   7823SM   C1310266   0.969   0.996  17.311  0.3987  0.6755  0.5422
   7823SM  H13A10267   1.030   1.085  17.311  3.5335 -1.3139  0.6649
   7823SM  H13B10268   1.028   0.916  17.351  0.9931  1.1856  0.7035
   7823SM  H13C10269   0.883   1.016  17.373  0.2560  2.0702 -0.0581
   7823SM   C1210270   0.807   1.059  17.134  0.3835  0.1027 -0.5828
   7823SM  H12A10271   0.768   1.042  17.035 -0.6062 -1.2799  0.0245
   7823SM  H12B10272   0.856   1.156  17.129  0.5164  0.1682  1.3187
   7823SM   C1110273   0.684   1.075  17.231 -0.3581  1.1289  0.2185
   7823SM  H11A10274   0.612   1.145  17.183  0.0488  1.0007 -0.5942
   7823SM  H11B10275   0.727   1.106  17.328 -1.8248  2.6053  0.4419
   7823SM     P10276   0.487   0.909  17.188  0.2352 -0.2027 -0.1352
   7823SM   O1310277   0.461   0.766  17.199  0.2513  0.2849  0.6499
   7823SM   O1410278   0.386   1.000  17.251 -0.0675 -0.5914 -0.0027
   7823SM   O1110279   0.501   0.940  17.034 -0.2184 -0.1441 -0.0126
   7823SM   O1210280   0.625   0.941  17.253 -0.5979  0.3316  0.4420
   7823SM   C1S10281   0.380   0.949  16.949  0.1983 -0.5384 -0.5270
   7823SM   H1S10282   0.320   1.036  16.985 -2.0364 -1.8946 -0.8062
   7823SM   H1T10283   0.317   0.859  16.964  0.3172 -0.4255  0.7546
   7823SM    NF10284   0.291   1.005  16.733 -0.3413  0.3438 -0.0534
   7823SM   HNF10285   0.233   0.932  16.696 -0.7613  0.9983 -0.7153
   7823SM   C2S10286   0.415   0.970  16.794  0.1416 -0.0261 -1.1177
   7823SM   H2S10287   0.491   1.048  16.776  0.4250  0.2414  0.9205
   7823SM   C3S10288   0.479   0.843  16.736 -0.3980 -0.1808  0.6568
   7823SM   H3S10289   0.401   0.764  16.725 -1.1836  0.3958  1.8322
   7823SM    O310290   0.587   0.788  16.813 -0.1623  0.1909 -0.6469
   7823SM   HO310291   0.584   0.851  16.885 -0.1074  2.2125 -2.3338
   7823SM   C4S10292   0.518   0.868  16.592  0.3485 -0.1916  0.0540
   7823SM   H4S10293   0.428   0.843  16.533  1.2169  0.9625 -1.8400
   7823SM   C5S10294   0.631   0.913  16.532 -0.1152  0.0997  0.3057
   7823SM   H5S10295   0.719   0.932  16.595 -0.2349 -1.4193  0.9774
   7823SM   C6S10296   0.643   0.938  16.389  0.6915 -0.2327 -0.5773
   7823SM   H6S10297   0.634   1.046  16.365 -0.7805  0.0071  0.8546
   7823SM   H6T10298   0.559   0.887  16.337  0.5124  0.2220 -0.7393
   7823SM   C7S10299   0.773   0.893  16.320  0.8310  0.1325  0.5024
   7823SM   H7S10300   0.797   0.792  16.361 -1.5838 -0.1872  1.2895
   7823SM   H7T10301   0.852   0.964  16.353  0.8015  0.7727 -0.7334
   7823SM   C8S10302   0.749   0.879  16.176  0.6692  0.4404  0.3498
   7823SM   H8S10303   0.655   0.823  16.162  0.3618 -0.3115  4.1945
   7823SM   H8T10304   0.836   0.824  16.134 -0.6226  0.2214 -2.2532
   7823SM   C9S10305   0.730   1.011  16.096  0.0841  0.8971 -0.2245
   7823SM   H9S10306   0.803   1.093  16.109 -0.4757  1.2273  0.9689
   7823SM   H9T10307   0.627   1.049  16.111 -1.1971 -2.2957 -0.1443
   7823SM  C10S10308   0.742   0.971  15.942  0.2647 -0.0586  0.1006
   7823SM  H10S10309   0.689   0.881  15.903  2.9924 -0.8083 -2.3281
   7823SM  H10T10310   0.849   0.948  15.921  0.3013  1.7388 -2.2157
   7823SM  C11S10311   0.712   1.082  15.839 -0.1017  0.0570 -0.1403
   7823SM  H11S10312   0.747   1.182  15.871 -1.0730  0.3971 -0.0826
   7823SM  H11T10313   0.602   1.092  15.828 -0.0293  0.3657 -0.6059
   7823SM  C12S10314   0.760   1.036  15.702 -0.1606  0.5335 -0.6838
   7823SM  H12S10315   0.726   0.935  15.673  2.1181 -0.9148  1.3343
   7823SM  H12T10316   0.870   1.032  15.711 -0.3607 -1.8763  2.7234
   7823SM  C13S10317   0.734   1.144  15.593  0.6237  0.9915  0.3791
   7823SM  H13S10318   0.797   1.235  15.605  0.4186  1.1606  0.1930
   7823SM  H13T10319   0.629   1.178  15.604 -0.8375 -3.1826  0.8287
   7823SM  C14S10320   0.776   1.091  15.453 -0.4126 -0.1125  0.5867
   7823SM  H14S10321   0.726   0.997  15.424 -1.6974  0.1591  1.8055
   7823SM  H14T10322   0.886   1.073  15.456 -0.7753 -2.6990  0.6032
   7823SM  C15S10323   0.750   1.207  15.348 -0.4790 -0.2213 -0.3249
   7823SM  H15S10324   0.813   1.294  15.376 -0.7997 -0.5578  1.5490
   7823SM  H15T10325   0.642   1.229  15.358 -0.2546  0.7494  0.0008
   7823SM  C16S10326   0.797   1.164  15.211 -0.3400  0.2435  0.8622
   7823SM  H16S10327   0.751   1.068  15.179 -0.9613  0.9553 -0.4869
   7823SM  H16T10328   0.906   1.150  15.197 -0.2926  0.3034  1.1801
   7823SM  C17S10329   0.746   1.280  15.108  0.4388  0.9845 -0.3249
   7823SM  H17S10330   0.813   1.281  15.020  1.8812  0.2536  0.7287
   7823SM  H17T10331   0.752   1.379  15.159  0.4783  0.8583 -0.0845
   7823SM  C18S10332   0.598   1.261  15.062 -0.1964  0.0460 -0.3405
   7823SM  H18S10333   0.524   1.275  15.144  1.1852 -1.3140  1.2236
   7823SM  H18T10334   0.583   1.159  15.021 -0.2899  0.0414 -0.2949
   7823SM  H18U10335   0.565   1.333  14.984 -1.0585 -0.3073 -0.3077
   7823SM   C1F10336   0.246   1.122  16.732 -0.0633  0.4298 -0.6370
   7823SM    OF10337   0.313   1.217  16.771  0.1003 -0.0167 -0.1655
   7823SM   C2F10338   0.110   1.146  16.679  0.1093  1.3878  0.4358
   7823SM   H2F10339   0.063   1.220  16.748 -1.1901  4.2005 -3.1575
   7823SM   H2G10340   0.060   1.046  16.681  0.5398  1.1693  0.2843
   7823SM   C3F10341   0.115   1.202  16.537  0.1346 -0.1129  0.0446
   7823SM   H3F10342   0.172   1.297  16.534 -1.1227  0.6490 -0.6304
   7823SM   H3G10343   0.008   1.219  16.513  0.3051 -1.0249 -1.4409
   7823SM   C4F10344   0.176   1.117  16.428  0.3022  0.3568 -0.2787
   7823SM   H4F10345   0.124   1.020  16.418  0.8866 -0.1664  1.4720
   7823SM   H4G10346   0.283   1.097  16.447  1.7070  2.0107 -5.0285
   7823SM   C5F10347   0.169   1.183  16.288  0.0917  0.5240 -0.3160
   7823SM   H5F10348   0.217   1.282  16.281  0.5153  0.3336 -0.1641
   7823SM   H5G10349   0.060   1.195  16.268  0.0156 -1.2822 -1.2805
   7823SM   C6F10350   0.232   1.104  16.173 -0.0506  0.0952 -0.5348
   7823SM   H6F10351   0.197   0.999  16.186  1.9559 -0.5115  0.3354
   7823SM   H6G10352   0.341   1.103  16.194 -0.2700  0.7692  0.7021
   7823SM   C7F10353   0.202   1.160  16.034 -0.1480 -0.3263 -0.4975
   7823SM   H7F10354   0.232   1.265  16.013 -1.1085 -0.2111 -1.4064
   7823SM   H7G10355   0.092   1.163  16.015 -0.0333  2.3519 -1.1779
   7823SM   C8F10356   0.279   1.092  15.919  0.2490  0.6593  0.3952
   7823SM   H8F10357   0.246   0.986  15.929 -1.1076  0.9642 -0.6250
   7823SM   H8G10358   0.389   1.107  15.926  1.0465 -2.9260 -1.9451
   7823SM   C9F10359   0.226   1.125  15.776 -0.3753 -0.4925 -0.5099
   7823SM   H9F10360   0.239   1.234  15.758 -0.1731 -0.5954 -1.0013
   7823SM   H9G10361   0.119   1.099  15.762 -0.8078  0.8077  0.2046
   7823SM  C10F10362   0.306   1.046  15.665  0.1829  0.1556 -0.0477
   7823SM  H10F10363   0.283   0.940  15.692 -2.5858  0.2511 -1.6109
   7823SM  H10G10364   0.415   1.067  15.661 -0.0761  1.7659  0.7440
   7823SM  C11F10365   0.247   1.069  15.523 -0.3053 -0.7764 -0.3523
   7823SM  H11F10366   0.266   1.177  15.505  0.8653 -0.5286  1.9218
   7823SM  H11G10367   0.144   1.030  15.529  0.8317 -4.0632 -0.5208
   7823SM  C12F10368   0.323   0.996  15.417 -0.0766 -0.5319 -0.3398
   7823SM  H12F10369   0.269   0.914  15.364  1.4797 -0.8378 -1.5346
   7823SM  H12G10370   0.407   0.943  15.467 -0.0638  0.0135  0.2182
   7823SM  C13F10371   0.384   1.094  15.312 -0.0445  0.1553  0.0642
   7823SM  H13F10372   0.462   1.048  15.248 -1.4893 -0.7474 -1.0946
   7823SM  H13G10373   0.424   1.191  15.351  1.0633  0.4265 -1.6227
   7823SM  C14F10374   0.270   1.132  15.214  0.2677  0.1925  0.4509
   7823SM  H14F10375   0.312   1.219  15.161  1.4621 -0.3549  0.4778
   7823SM  H14G10376   0.170   1.158  15.255 -1.4111  0.2648 -3.2641
   7823SM  C15F10377   0.241   1.034  15.095  0.4364 -0.2846  1.0483
   7823SM  H15F10378   0.209   0.935  15.134 -0.9707 -0.5453 -0.6556
   7823SM  H15G10379   0.335   1.020  15.038  1.2407  1.1960  1.9423
   7823SM  C16F10380   0.136   1.088  14.990  0.2121 -0.2187 -0.1095
   7823SM  H16F10381   0.166   1.189  14.954 -1.3090 -0.1419 -1.2060
   7823SM  H16G10382   0.037   1.091  15.041 -0.1298  1.1084 -0.8072
   7823SM  C17F10383   0.132   1.010  14.863 -0.9508 -1.1677 -0.0269
   7823SM  H17F10384   0.109   0.902  14.875  1.2344 -1.6764  0.0595
   7823SM  H17G10385   0.235   1.016  14.821  0.1192  3.1009  2.6329
   7823SM  C18F10386   0.036   1.075  14.762  0.7058 -0.0514 -0.1908
   7823SM  H18F10387   0.083   1.169  14.725 -0.9487  0.2489 -1.6886
   7823SM  H18G10388  -0.056   1.086  14.822  0.9147 -2.3813  0.6579
   7823SM  C19F10389   0.025   0.989  14.635  0.6164  1.0372  0.2434
   7823SM  H19F10390  -0.011   0.887  14.663 -1.0773  1.1825 -1.2559
   7823SM  H19G10391   0.121   0.971  14.582 -0.7577 -1.2564 -1.6416
   7823SM  C20F10392  -0.070   1.049  14.525 -0.0480  0.6666 -0.0516
   7823SM  H20F10393  -0.054   0.978  14.441 -1.3108  1.2203 -0.7996
   7823SM  H20G10394  -0.031   1.147  14.491  0.8198  0.3635  0.0683
   7823SM  C21F10395  -0.213   1.051  14.580  0.6644 -0.0511  0.2967
   7823SM  H21F10396  -0.213   0.984  14.669  0.7328 -0.4276  0.0145
   7823SM  H21G10397  -0.279   0.999  14.508 -1.1228  3.2485 -0.6423
   7823SM  C22F10398  -0.262   1.179  14.632  0.1030  0.4280  0.6255
   7823SM  H22F10399  -0.278   1.240  14.541  1.0541  1.9589  1.4323
   7823SM  H22G10400  -0.185   1.234  14.690  1.1027  1.1121 -1.2716
   7823SM  C23F10401  -0.397   1.154  14.697  0.1741 -0.2021  0.1595
   7823SM  H23F10402  -0.398   1.097  14.792  1.1911 -0.5393 -0.0232
   7823SM  H23G10403  -0.471   1.094  14.639 -0.1977 -0.3202  0.7441
   7823SM  H23H10404  -0.450   1.250  14.715  0.7796 -0.1130  1.5962
   7923SM     N10405   5.749   1.215  17.264  0.0308 -0.1033  0.6561
   7923SM   C1510406   5.655   1.260  17.373 -0.2150 -0.1905  0.4689
   7923SM  H15A10407   5.607   1.344  17.325  0.9539  0.3280  0.1487
   7923SM  H15B10408   5.713   1.293  17.458  2.7085 -1.4706 -0.9005
   7923SM  H15C10409   5.586   1.180  17.393  2.1422 -1.8111  2.9035
   7923SM   C1410410   5.848   1.325  17.233 -0.3299 -0.1802 -0.2660
   7923SM  H14A10411   5.811   1.418  17.191  1.1884  0.6101  0.0948
   7923SM  H14B10412   5.926   1.282  17.172 -1.4248 -1.0807 -1.0799
   7923SM  H14C10413   5.900   1.352  17.323  0.4952 -3.5665  0.4377
   7923SM   C1310414   5.825   1.096  17.311 -0.0861  0.1206  0.1206
   7923SM  H13A10415   5.882   1.115  17.401  0.4235 -2.0828  0.3269
   7923SM  H13B10416   5.884   1.065  17.227 -1.6882  1.1872 -1.4766
   7923SM  H13C10417   5.768   1.008  17.337 -3.0192  2.0983  0.8958
   7923SM   C1210418   5.682   1.173  17.133  0.1815  0.6358 -0.6143
   7923SM  H12A10419   5.758   1.161  17.057  0.2715  1.3333 -0.6485
   7923SM  H12B10420   5.637   1.261  17.089  0.1927 -0.3339 -2.6561
   7923SM   C1110421   5.577   1.063  17.130 -0.0138 -0.0399 -0.0397
   7923SM  H11A10422   5.631   0.966  17.139 -0.1214  0.1388  4.6889
   7923SM  H11B10423   5.538   1.057  17.026 -0.5461  0.9266  0.0952
   7923SM     P10424   5.337   1.155  17.208 -0.0215 -0.2756  0.5071
   7923SM   O1310425   5.224   1.066  17.172  0.0483  0.0603 -0.2179
   7923SM   O1410426   5.311   1.237  17.327 -0.3000  0.4799 -0.3009
   7923SM   O1110427   5.359   1.243  17.079  0.3613  0.1569 -0.0137
   7923SM   O1210428   5.470   1.068  17.226 -0.2563  0.1733  0.1783
   7923SM   C1S10429   5.292   1.226  16.956 -0.3678  0.0236 -0.4856
   7923SM   H1S10430   5.183   1.239  16.972 -0.1040  1.0838  0.6063
   7923SM   H1T10431   5.328   1.128  16.917  0.9845 -0.6070  2.0874
   7923SM    NF10432   5.279   1.305  16.708  0.1039  0.7673  0.8763
   7923SM   HNF10433   5.348   1.295  16.636  0.2488  0.5800  1.0396
   7923SM   C2S10434   5.336   1.330  16.844 -0.1641  0.6307 -0.5422
   7923SM   H2S10435   5.292   1.430  16.865 -1.1616  0.2632 -0.8240
   7923SM   C3S10436   5.491   1.364  16.842 -0.4766  0.0921  1.3005
   7923SM   H3S10437   5.529   1.263  16.814  0.8992  1.2250 -1.1830
   7923SM    O310438   5.548   1.390  16.966 -0.5694 -0.3063 -0.6837
   7923SM   HO310439   5.484   1.362  17.032 -0.0935  0.1658 -0.0098
   7923SM   C4S10440   5.534   1.470  16.747  0.2862 -0.7089 -0.1581
   7923SM   H4S10441   5.502   1.573  16.771  3.0646  0.9783 -2.9661
   7923SM   C5S10442   5.600   1.466  16.623  0.0042  0.2711  0.2098
   7923SM   H5S10443   5.627   1.367  16.582 -0.9816  0.2255 -0.3498
   7923SM   C6S10444   5.606   1.584  16.534  0.0815 -0.3161  0.0939
   7923SM   H6S10445   5.568   1.679  16.576  1.9103  0.8876 -0.8533
   7923SM   H6T10446   5.542   1.563  16.445 -0.5264 -0.5155  0.5687
   7923SM   C7S10447   5.747   1.631  16.495  0.1603  1.0914  0.1862
   7923SM   H7S10448   5.796   1.542  16.450  0.1624 -0.0748  2.3728
   7923SM   H7T10449   5.814   1.653  16.581  0.1521 -0.9039  0.7545
   7923SM   C8S10450   5.757   1.755  16.396 -0.6794  0.0349  0.2402
   7923SM   H8S10451   5.861   1.793  16.385 -0.5356  0.2686  2.1361
   7923SM   H8T10452   5.719   1.847  16.444  0.3168 -0.2899  1.7187
   7923SM   C9S10453   5.692   1.725  16.255 -0.4339 -0.0342 -0.3083
   7923SM   H9S10454   5.582   1.734  16.260 -0.4029  0.5402 -0.6159
   7923SM   H9T10455   5.725   1.623  16.224  1.8715  0.1687  1.2358
   7923SM  C10S10456   5.724   1.820  16.135  0.3972 -0.0933 -0.0188
   7923SM  H10S10457   5.834   1.834  16.141  0.1825  1.3954  1.0983
   7923SM  H10T10458   5.677   1.921  16.143  1.8145  0.5498  0.6408
   7923SM  C11S10459   5.684   1.759  15.993 -0.0978  0.0364  0.6652
   7923SM  H11S10460   5.573   1.755  15.997 -0.0715 -1.6562  0.3115
   7923SM  H11T10461   5.732   1.659  15.990  0.6829  0.3812  1.1661
   7923SM  C12S10462   5.741   1.843  15.875  0.2263  0.1305 -0.8527
   7923SM  H12S10463   5.850   1.861  15.880  0.0520  0.9552  0.4427
   7923SM  H12T10464   5.682   1.937  15.885 -0.5295 -0.5627  2.6368
   7923SM  C13S10465   5.715   1.773  15.736 -0.0401  0.4808 -0.2027
   7923SM  H13S10466   5.605   1.757  15.727  0.1483 -0.8278 -0.2319
   7923SM  H13T10467   5.766   1.675  15.742 -1.0631  0.0023  1.8308
   7923SM  C14S10468   5.776   1.851  15.614  0.0633 -0.0122 -0.5681
   7923SM  H14S10469   5.886   1.844  15.632  0.6140 -1.4965 -3.6643
   7923SM  H14T10470   5.741   1.955  15.627 -0.6826 -0.4331  1.0053
   7923SM  C15S10471   5.746   1.793  15.475  0.6401  0.3694 -0.0598
   7923SM  H15S10472   5.636   1.786  15.460  0.6629  1.4985 -0.9318
   7923SM  H15T10473   5.785   1.690  15.488  0.8260  0.5318  0.6716
   7923SM  C16S10474   5.797   1.873  15.356  0.1873 -0.1228 -0.3281
   7923SM  H16S10475   5.907   1.885  15.348 -0.1015  2.7169 -0.9383
   7923SM  H16T10476   5.775   1.981  15.365  1.4497  0.0659  0.8992
   7923SM  C17S10477   5.728   1.816  15.225  0.0098  1.1459 -0.3888
   7923SM  H17S10478   5.617   1.813  15.232  0.0664  0.1417  0.3590
   7923SM  H17T10479   5.766   1.712  15.209  1.0504  0.4873  4.6617
   7923SM  C18S10480   5.773   1.896  15.108 -0.5168  0.1359 -0.3177
   7923SM  H18S10481   5.788   1.842  15.011  2.7266  1.5538 -0.7596
   7923SM  H18T10482   5.869   1.947  15.131 -0.0849 -0.3256 -1.0396
   7923SM  H18U10483   5.700   1.975  15.079 -0.2257  0.8583  0.8671
   7923SM   C1F10484   5.149   1.291  16.679 -0.1934 -0.1503  0.2642
   7923SM    OF10485   5.064   1.298  16.761 -0.3123 -0.6456 -0.7341
   7923SM   C2F10486   5.120   1.251  16.535  0.3133  0.1952  0.1029
   7923SM   H2F10487   5.154   1.146  16.524  2.1783  0.6896  0.7928
   7923SM   H2G10488   5.169   1.305  16.452  0.8049 -1.2829 -0.6001
   7923SM   C3F10489   4.970   1.264  16.508  0.1745 -0.7404 -0.0507
   7923SM   H3F10490   4.940   1.366  16.541  3.3355  0.2543  0.1096
   7923SM   H3G10491   4.907   1.191  16.563 -0.5964  0.5229  0.7814
   7923SM   C4F10492   4.939   1.250  16.353  0.0720  0.6062  0.3205
   7923SM   H4F10493   4.977   1.346  16.312  2.6962 -0.4744  0.0778
   7923SM   H4G10494   4.828   1.259  16.343 -0.0909 -1.2283  0.2269
   7923SM   C5F10495   5.012   1.134  16.284  0.1055 -0.0322  0.0566
   7923SM   H5F10496   4.965   1.036  16.304 -0.9737 -0.0320 -2.1543
   7923SM   H5G10497   5.117   1.132  16.321  0.5799  1.0900 -1.1336
   7923SM   C6F10498   5.002   1.146  16.128  0.2480 -0.8150  0.0303
   7923SM   H6F10499   5.016   1.254  16.109  1.2714 -0.9460 -0.0343
   7923SM   H6G10500   4.906   1.107  16.088 -0.5912 -1.3993  2.4365
   7923SM   C7F10501   5.122   1.070  16.070 -0.2324  0.7690  0.5122
   7923SM   H7F10502   5.126   0.966  16.109 -3.0489  1.2546  2.3970
   7923SM   H7G10503   5.216   1.124  16.097  1.0411 -0.7844 -0.5803
   7923SM   C8F10504   5.116   1.063  15.913 -0.5029  0.6679 -0.4971
   7923SM   H8F10505   5.109   1.159  15.857  0.5920  0.5982 -0.7802
   7923SM   H8G10506   5.019   1.013  15.894 -0.8092 -0.0285  2.5049
   7923SM   C9F10507   5.240   0.980  15.863 -0.2438  0.1889 -0.1510
   7923SM   H9F10508   5.255   0.891  15.928 -1.6500  0.4256  0.5414
   7923SM   H9G10509   5.331   1.042  15.871 -0.3158  0.4186 -0.9795
   7923SM  C10F10510   5.225   0.907  15.727  0.0759 -0.9560  0.6199
   7923SM  H10F10511   5.123   0.864  15.715  0.9421 -2.8141 -0.4579
   7923SM  H10G10512   5.289   0.817  15.728 -0.6091 -1.4535  0.3444
   7923SM  C11F10513   5.269   0.987  15.607  0.5484  0.5894  0.2557
   7923SM  H11F10514   5.292   0.913  15.527 -0.3448  0.2184  0.3266
   7923SM  H11G10515   5.368   1.033  15.628  0.6011 -0.0691  1.5719
   7923SM  C12F10516   5.171   1.102  15.564  0.2222 -0.1053  0.2227
   7923SM  H12F10517   5.159   1.173  15.648  0.2358 -0.8252  0.8473
   7923SM  H12G10518   5.071   1.065  15.534  0.4253  0.1256 -0.7840
   7923SM  C13F10519   5.232   1.188  15.450 -0.2003 -0.1923  0.5931
   7923SM  H13F10520   5.338   1.213  15.472 -0.2239  1.2595 -0.7376
   7923SM  H13G10521   5.183   1.286  15.435  0.6349 -0.0588 -1.6774
   7923SM  C14F10522   5.239   1.126  15.309  0.0298 -0.6816 -0.0343
   7923SM  H14F10523   5.149   1.067  15.282 -1.1564  1.2737 -0.5965
   7923SM  H14G10524   5.325   1.057  15.312 -0.8302 -1.7459  1.4340
   7923SM  C15F10525   5.260   1.227  15.198 -0.1238 -0.4619 -0.1571
   7923SM  H15F10526   5.339   1.302  15.221  0.1466 -1.1484  1.2321
   7923SM  H15G10527   5.170   1.289  15.176 -0.1284 -0.9380 -1.6307
   7923SM  C16F10528   5.298   1.152  15.069 -0.4229  0.5329 -0.0699
   7923SM  H16F10529   5.394   1.097  15.080  0.0028  1.1664 -0.5240
   7923SM  H16G10530   5.315   1.226  14.987  1.8741 -0.4203 -0.5295
   7923SM  C17F10531   5.184   1.065  15.018  0.4146  0.4603 -0.7225
   7923SM  H17F10532   5.080   1.091  15.048  0.4286 -1.7600  1.5959
   7923SM  H17G10533   5.192   0.967  15.070  0.0191  1.1063  0.6008
   7923SM  C18F10534   5.182   1.039  14.872  0.5095  0.3485 -0.1141
   7923SM  H18F10535   5.109   0.955  14.864 -1.3333  1.7695  0.9652
   7923SM  H18G10536   5.286   1.021  14.839  0.9565  1.1464  0.8111
   7923SM  C19F10537   5.116   1.151  14.793 -0.2005  0.2225 -0.4305
   7923SM  H19F10538   5.140   1.248  14.842 -2.1380  0.6377 -0.2155
   7923SM  H19G10539   5.006   1.147  14.808  0.0166 -2.1700  1.0551
   7923SM  C20F10540   5.154   1.143  14.642  0.2944  0.1975 -0.2818
   7923SM  H20F10541   5.161   1.037  14.608 -1.5535 -0.0190 -0.0828
   7923SM  H20G10542   5.259   1.179  14.636  0.3119  0.3040  0.5699
   7923SM  C21F10543   5.060   1.233  14.562 -0.1710 -1.0948  0.1736
   7923SM  H21F10544   5.119   1.266  14.473 -0.6542 -1.0422 -0.1301
   7923SM  H21G10545   5.029   1.320  14.624  1.1895 -0.5903  0.1828
   7923SM  C22F10546   4.929   1.171  14.519 -0.2506  0.0763  0.6232
   7923SM  H22F10547   4.872   1.152  14.613 -0.8464 -0.8572  0.0817
   7923SM  H22G10548   4.936   1.075  14.465  0.8073  0.5011 -0.0207
   7923SM  C23F10549   4.841   1.256  14.431 -0.2948 -0.5925 -0.3416
   7923SM  H23F10550   4.865   1.249  14.322 -1.9035 -0.6561 -0.7068
   7923SM  H23G10551   4.847   1.364  14.457 -0.1269 -1.0140  1.4711
   7923SM  H23H10552   4.734   1.237  14.450 -0.1444 -1.3546 -0.2271
   8023SM     N10553   5.986   1.902  17.105 -0.9596 -0.2537  0.2497
   8023SM   C1510554   6.009   1.870  17.247  0.0436  0.0887 -0.0730
   8023SM  H15A10555   6.082   1.792  17.262  0.5055  0.3823 -0.7142
   8023SM  H15B10556   5.920   1.838  17.299 -0.6696  0.0574 -1.2841
   8023SM  H15C10557   6.055   1.952  17.300  1.3665 -0.0619 -0.9519
   8023SM   C1410558   5.933   1.782  17.039 -0.1189 -0.1291 -0.0121
   8023SM  H14A10559   5.917   1.805  16.935  0.7123  2.6122  0.3662
   8023SM  H14B10560   5.844   1.746  17.088  0.9717 -0.8547  1.5078
   8023SM  H14C10561   6.008   1.705  17.039  0.6552  0.6016  0.3082
   8023SM   C1310562   5.884   2.012  17.100 -0.2776 -0.2377  0.3445
   8023SM  H13A10563   5.797   1.977  17.154 -2.3853  1.5504 -1.7409
   8023SM  H13B10564   5.862   2.034  16.997  0.0228 -1.3810  0.0205
   8023SM  H13C10565   5.920   2.104  17.143 -1.8028  0.2358  0.6724
   8023SM   C1210566   6.122   1.947  17.055 -0.3453  0.2697  0.1153
   8023SM  H12A10567   6.175   2.020  17.114  1.6236 -1.7896  1.0675
   8023SM  H12B10568   6.119   1.987  16.954  1.0108 -0.3959 -0.2138
   8023SM   C1110569   6.229   1.838  17.041 -0.2407 -0.1655 -0.5809
   8023SM  H11A10570   6.317   1.879  16.988  0.7638  3.2454  3.2313
   8023SM  H11B10571   6.189   1.757  16.977 -2.9796  1.1135 -0.6651
   8023SM     P10572   6.296   1.631  17.188  0.5556  0.3181  0.3370
   8023SM   O1310573   6.410   1.597  17.277 -0.0197  0.2019 -0.2509
   8023SM   O1410574   6.172   1.577  17.243  0.3740 -0.1313  0.0554
   8023SM   O1110575   6.322   1.576  17.039 -0.0100  0.0143 -0.3009
   8023SM   O1210576   6.278   1.789  17.166 -0.5400 -1.0648 -0.2044
   8023SM   C1S10577   6.443   1.609  16.962  0.4640 -0.7693 -0.2980
   8023SM   H1S10578   6.536   1.595  17.021  0.8689  1.1636 -0.4293
   8023SM   H1T10579   6.441   1.711  16.919  1.7773 -0.7812 -0.4306
   8023SM    NF10580   6.583   1.540  16.776 -0.6407  0.2008 -0.1417
   8023SM   HNF10581   6.600   1.601  16.699  0.4281  0.2453  0.1170
   8023SM   C2S10582   6.451   1.526  16.830  0.4243 -0.8089  0.1130
   8023SM   H2S10583   6.433   1.418  16.852  0.0946 -1.0118 -1.0829
   8023SM   C3S10584   6.338   1.578  16.736 -0.1020 -0.0003  0.3479
   8023SM   H3S10585   6.368   1.683  16.712  1.5672 -0.1818  1.4808
   8023SM    O310586   6.205   1.575  16.791  0.2106  0.0061  0.4583
   8023SM   HO310587   6.229   1.553  16.882  2.8599 -1.1772 -0.4286
   8023SM   C4S10588   6.346   1.516  16.592 -0.1744 -0.3135 -0.7986
   8023SM   H4S10589   6.426   1.554  16.527  0.5332 -1.0430 -0.3749
   8023SM   C5S10590   6.289   1.403  16.553 -0.1869 -0.6703 -0.8328
   8023SM   H5S10591   6.216   1.364  16.625  1.3081 -0.8881  0.6100
   8023SM   C6S10592   6.309   1.341  16.419  0.2693  0.5765  0.4521
   8023SM   H6S10593   6.222   1.383  16.364 -0.3818 -1.5554 -0.2394
   8023SM   H6T10594   6.300   1.232  16.437 -0.3877  0.8181  1.7151
   8023SM   C7S10595   6.429   1.369  16.334 -0.6829  0.3102  0.7258
   8023SM   H7S10596   6.523   1.334  16.383 -0.7948 -0.3633  0.4787
   8023SM   H7T10597   6.451   1.474  16.306 -0.5166 -0.1948 -1.2624
   8023SM   C8S10598   6.419   1.288  16.204 -0.7437  0.0530  0.9311
   8023SM   H8S10599   6.324   1.311  16.151 -0.1356 -0.1671 -0.2864
   8023SM   H8T10600   6.428   1.178  16.214  0.2850  0.0809  0.4634
   8023SM   C9S10601   6.530   1.337  16.106 -0.2832  0.8388 -0.3798
   8023SM   H9S10602   6.638   1.340  16.134 -0.3287 -2.2000  0.5166
   8023SM   H9T10603   6.502   1.442  16.086 -1.4432  0.3709 -1.3122
   8023SM  C10S10604   6.528   1.264  15.970 -0.2399  0.5842 -0.4388
   8023SM  H10S10605   6.426   1.265  15.926 -0.4627 -0.5177  0.0153
   8023SM  H10T10606   6.555   1.158  15.988  1.0903  0.6281 -1.8945
   8023SM  C11S10607   6.608   1.331  15.861 -0.0333  0.1825 -0.5760
   8023SM  H11S10608   6.713   1.322  15.893 -0.8926 -0.9785  2.2014
   8023SM  H11T10609   6.579   1.438  15.850 -0.6353  0.1819  0.7970
   8023SM  C12S10610   6.591   1.268  15.725  0.7229  0.3442  0.5939
   8023SM  H12S10611   6.483   1.265  15.697  1.3708  1.7986 -2.5424
   8023SM  H12T10612   6.627   1.163  15.727  0.3599  0.1243 -1.8048
   8023SM  C13S10613   6.650   1.343  15.611 -0.0957  0.3211  0.0749
   8023SM  H13S10614   6.757   1.369  15.625 -0.0205 -0.1517  0.3941
   8023SM  H13T10615   6.612   1.446  15.632 -0.0451 -0.0085  1.9297
   8023SM  C14S10616   6.614   1.288  15.473  0.3211  0.0173 -0.7410
   8023SM  H14S10617   6.505   1.296  15.459 -0.4319 -2.7864  2.2590
   8023SM  H14T10618   6.644   1.181  15.464 -1.6215 -0.6686  0.4944
   8023SM  C15S10619   6.686   1.364  15.357 -0.1421  0.2447  0.3504
   8023SM  H15S10620   6.789   1.389  15.389 -0.7679  1.9343  1.1506
   8023SM  H15T10621   6.644   1.466  15.357  0.7594  0.6234  0.2154
   8023SM  C16S10622   6.663   1.301  15.217 -0.4422  1.0224  0.0662
   8023SM  H16S10623   6.629   1.198  15.241  0.7173  0.5698 -0.1802
   8023SM  H16T10624   6.755   1.297  15.154 -0.5715  0.7784 -0.1078
   8023SM  C17S10625   6.550   1.360  15.126 -0.2081 -0.0516 -0.1021
   8023SM  H17S10626   6.569   1.458  15.076 -0.6151  0.1818  0.1944
   8023SM  H17T10627   6.468   1.385  15.196  1.6055  2.7703  1.2188
   8023SM  C18S10628   6.495   1.267  15.017 -0.4436 -0.3429 -0.7231
   8023SM  H18S10629   6.481   1.168  15.065 -0.5440  0.8202  1.7792
   8023SM  H18T10630   6.571   1.258  14.937  0.5249  1.1388 -0.0183
   8023SM  H18U10631   6.404   1.318  14.977 -1.2184 -0.9601  0.2385
   8023SM   C1F10632   6.698   1.488  16.827 -0.4012  0.3896 -0.1013
   8023SM    OF10633   6.694   1.404  16.917  0.2162 -0.1903  0.0729
   8023SM   C2F10634   6.827   1.545  16.778 -0.1084  1.3238  0.4227
   8023SM   H2F10635   6.906   1.469  16.760  1.7983  2.8850  1.7716
   8023SM   H2G10636   6.869   1.611  16.857 -1.3855  4.7442 -1.5349
   8023SM   C3F10637   6.813   1.647  16.658  0.2604 -0.3659 -0.2207
   8023SM   H3F10638   6.905   1.709  16.647  0.9646 -1.3765 -0.1919
   8023SM   H3G10639   6.730   1.718  16.678 -0.4958 -1.2926  0.0146
   8023SM   C4F10640   6.796   1.576  16.527  0.3454 -0.1277  0.0399
   8023SM   H4F10641   6.720   1.495  16.533  0.3030  0.0208  2.0537
   8023SM   H4G10642   6.896   1.528  16.515  0.7447  0.7052  0.0053
   8023SM   C5F10643   6.771   1.662  16.399 -0.1133  0.7002 -0.1196
   8023SM   H5F10644   6.833   1.753  16.414  0.7441  0.4720 -2.0441
   8023SM   H5G10645   6.663   1.685  16.384 -0.1052  2.0282  1.5623
   8023SM   C6F10646   6.809   1.596  16.262  0.4609  0.4341 -0.8256
   8023SM   H6F10647   6.736   1.517  16.234  0.5644  0.1090 -0.2016
   8023SM   H6G10648   6.914   1.561  16.280 -0.2470 -0.8692  1.2162
   8023SM   C7F10649   6.796   1.696  16.150 -0.0231 -0.0119  0.5938
   8023SM   H7F10650   6.883   1.765  16.157 -1.7048  2.0474  2.6286
   8023SM   H7G10651   6.698   1.748  16.153 -0.1212  0.0743 -1.8629
   8023SM   C8F10652   6.806   1.636  16.010  0.0571  0.1567  0.5307
   8023SM   H8F10653   6.713   1.577  15.992 -0.8716  2.0751 -1.5407
   8023SM   H8G10654   6.895   1.570  16.011 -0.4007 -0.5158 -0.7225
   8023SM   C9F10655   6.796   1.739  15.898 -1.0265 -0.4272  0.3243
   8023SM   H9F10656   6.848   1.831  15.932  1.6357 -1.0830 -1.6861
   8023SM   H9G10657   6.690   1.772  15.900 -0.7872  0.3272  1.2823
   8023SM  C10F10658   6.834   1.674  15.760  0.0656  0.2409 -0.2409
   8023SM  H10F10659   6.822   1.564  15.765  0.5143  0.1377 -1.1581
   8023SM  H10G10660   6.944   1.680  15.744  0.2796 -1.1008  0.5802
   8023SM  C11F10661   6.751   1.738  15.644  0.6287  0.3719 -0.1774
   8023SM  H11F10662   6.749   1.848  15.651  0.0203  0.6644 -3.3750
   8023SM  H11G10663   6.644   1.709  15.643  0.3817  1.2449  0.4268
   8023SM  C12F10664   6.798   1.729  15.498 -0.0701 -0.0824  0.6868
   8023SM  H12F10665   6.819   1.620  15.496  3.2703  0.4366  1.4848
   8023SM  H12G10666   6.899   1.772  15.480  0.1807 -1.1811 -0.7305
   8023SM  C13F10667   6.697   1.772  15.390  0.9435  0.3676  0.2085
   8023SM  H13F10668   6.646   1.867  15.416  0.4693  0.9773 -2.5720
   8023SM  H13G10669   6.618   1.695  15.376  0.1707  1.0345  0.7493
   8023SM  C14F10670   6.772   1.787  15.256 -0.9688  0.7133 -0.3065
   8023SM  H14F10671   6.837   1.703  15.223  0.4237  1.3898  0.6135
   8023SM  H14G10672   6.837   1.877  15.258 -0.2208  0.3362  4.4291
   8023SM  C15F10673   6.677   1.799  15.136 -0.0918 -0.1130  0.1381
   8023SM  H15F10674   6.618   1.891  15.154  0.6868  0.6752 -1.1493
   8023SM  H15G10675   6.596   1.723  15.133  0.8480 -1.0922 -1.4490
   8023SM  C16F10676   6.745   1.802  14.995 -0.0048  0.0662 -0.2327
   8023SM  H16F10677   6.671   1.772  14.918  0.2939 -1.1576 -0.0539
   8023SM  H16G10678   6.842   1.748  14.990  0.4279  0.9083 -1.2975
   8023SM  C17F10679   6.787   1.942  14.976  0.0995  0.5223 -0.0576
   8023SM  H17F10680   6.845   1.990  15.058 -1.6013  1.7848  0.4604
   8023SM  H17G10681   6.700   2.011  14.965  0.4639  1.1300  0.8101
   8023SM  C18F10682   6.856   1.962  14.840  0.1029  1.0442 -0.4688
   8023SM  H18F10683   6.786   1.940  14.757  0.9459 -2.7103 -0.3647
   8023SM  H18G10684   6.944   1.894  14.834 -1.6011 -1.4499  0.9096
   8023SM  C19F10685   6.915   2.097  14.834  0.0348 -0.3837  0.9082
   8023SM  H19F10686   6.964   2.091  14.734 -1.4886  0.5460  0.0632
   8023SM  H19G10687   6.999   2.096  14.907  0.7145 -1.4011  0.1441
   8023SM  C20F10688   6.812   2.214  14.827 -0.0750  0.5205  0.3688
   8023SM  H20F10689   6.760   2.219  14.925 -1.9071  4.0671 -0.6180
   8023SM  H20G10690   6.735   2.194  14.749 -2.1099  1.8977  1.9169
   8023SM  C21F10691   6.879   2.346  14.813 -0.3877  0.8164 -0.4313
   8023SM  H21F10692   6.952   2.339  14.729  1.4747  0.7695  1.0963
   8023SM  H21G10693   6.958   2.352  14.891  1.1025 -0.2043 -1.7910
   8023SM  C22F10694   6.773   2.455  14.801 -0.4526  0.3300 -0.4060
   8023SM  H22F10695   6.704   2.456  14.889  0.8807  0.7692  0.6730
   8023SM  H22G10696   6.706   2.439  14.714  0.6539  2.7022 -1.7822
   8023SM  C23F10697   6.843   2.593  14.790 -0.1736  0.6753 -0.1464
   8023SM  H23F10698   6.886   2.616  14.690 -3.5649  2.0329 -1.4342
   8023SM  H23G10699   6.933   2.583  14.853  1.1004 -0.7022 -2.0505
   8023SM  H23H10700   6.778   2.681  14.806  1.5673  1.9596  0.1143
   8123SM     N10701   4.215   4.600  11.714  0.1391  0.3196 -0.4322
   8123SM   C1510702   4.329   4.674  11.779 -0.2741  0.2533  0.0746
   8123SM  H15A10703   4.377   4.607  11.848 -1.9130 -0.3139  0.7187
   8123SM  H15B10704   4.279   4.754  11.833 -0.3565 -0.7669  1.5722
   8123SM  H15C10705   4.398   4.710  11.704 -0.0884 -2.4634 -1.2064
   8123SM   C1410706   4.159   4.674  11.598  0.4486  0.8125  0.0826
   8123SM  H14A10707   4.122   4.767  11.638  0.9782  0.5731  1.1561
   8123SM  H14B10708   4.085   4.608  11.555  1.3148 -1.5584  1.9945
   8123SM  H14C10709   4.232   4.697  11.522  0.0011 -2.3300 -1.4694
   8123SM   C1310710   4.272   4.470  11.654 -0.8740  0.4758 -0.9943
   8123SM  H13A10711   4.299   4.406  11.736  2.4039 -1.6785 -3.5118
   8123SM  H13B10712   4.362   4.492  11.598  1.2432 -0.0051  2.0213
   8123SM  H13C10713   4.199   4.415  11.597  0.1429 -1.3761 -0.5604
   8123SM   C1210714   4.115   4.568  11.824 -0.2600 -0.8899  0.6788
   8123SM  H12A10715   4.153   4.494  11.893  0.0811 -0.8740  0.5103
   8123SM  H12B10716   4.029   4.517  11.784 -2.4217  1.4440  2.0074
   8123SM   C1110717   4.060   4.680  11.916  0.0351 -0.4753  0.0538
   8123SM  H11A10718   4.140   4.739  11.964 -0.1356 -2.0520  2.4284
   8123SM  H11B10719   4.001   4.624  11.992 -1.0684  1.6887  0.8711
   8123SM     P10720   4.001   4.913  11.842 -0.2145 -0.2300  0.0216
   8123SM   O1310721   4.134   4.932  11.781 -0.4068 -0.2194  0.4495
   8123SM   O1410722   3.877   4.974  11.785 -0.5853 -0.2107 -0.1371
   8123SM   O1110723   4.003   4.943  11.994 -1.0736  0.5160 -0.1215
   8123SM   O1210724   3.971   4.757  11.834 -0.2030  0.3252 -0.0434
   8123SM   C1S10725   4.072   5.055  12.045 -0.5353 -0.1983 -0.2824
   8123SM   H1S10726   4.039   5.146  11.992 -1.4907 -0.1536  0.3545
   8123SM   H1T10727   4.180   5.037  12.030 -0.5096 -1.7501  1.3551
   8123SM    NF10728   4.106   5.190  12.237  0.1889 -0.0986  0.0285
   8123SM   HNF10729   4.195   5.165  12.276  0.7990 -3.8405 -3.1509
   8123SM   C2S10730   4.039   5.072  12.197  0.4727 -0.0095  0.3157
   8123SM   H2S10731   3.929   5.083  12.202  0.5576  1.2786 -0.3136
   8123SM   C3S10732   4.077   4.945  12.281 -0.1724 -0.5989  0.1016
   8123SM   H3S10733   4.187   4.931  12.276 -0.0714  0.3273 -0.3744
   8123SM    O310734   4.019   4.826  12.230  0.3284  0.1455 -0.2639
   8123SM   HO310735   3.984   4.856  12.146 -2.7641  1.6016  1.3851
   8123SM   C4S10736   4.013   4.961  12.414  0.1896 -0.9314 -0.3584
   8123SM   H4S10737   3.905   4.984  12.412 -0.0784 -2.0270  0.2353
   8123SM   C5S10738   4.068   4.968  12.537  0.1201  0.3403  0.6066
   8123SM   H5S10739   4.178   4.958  12.537  0.1109  0.0896  1.5788
   8123SM   C6S10740   4.009   4.993  12.675  0.6427  0.1035  0.4064
   8123SM   H6S10741   4.043   4.915  12.746  0.6562 -1.3594 -1.1380
   8123SM   H6T10742   3.898   4.992  12.671  0.4885 -0.1340  2.9293
   8123SM   C7S10743   4.068   5.128  12.727  0.2928 -0.6257 -1.1060
   8123SM   H7S10744   4.018   5.208  12.669  0.1792 -0.4043 -0.7037
   8123SM   H7T10745   4.176   5.142  12.702 -0.1870 -1.8811 -4.4007
   8123SM   C8S10746   4.035   5.162  12.877 -0.6201  0.0198  0.8841
   8123SM   H8S10747   4.070   5.266  12.898 -0.9848  0.4500 -0.5156
   8123SM   H8T10748   4.101   5.096  12.937  1.5913  0.3356 -1.0840
   8123SM   C9S10749   3.881   5.147  12.920 -0.0883 -0.1575  1.0249
   8123SM   H9S10750   3.856   5.039  12.908 -0.3846 -0.0217  0.3320
   8123SM   H9T10751   3.813   5.200  12.849 -2.3694 -1.0940  2.3839
   8123SM  C10S10752   3.847   5.198  13.058  0.2891  0.6655 -0.1210
   8123SM  H10S10753   3.740   5.186  13.082 -0.0362  1.5816 -1.0479
   8123SM  H10T10754   3.868   5.306  13.069  1.7610  0.2012  2.4866
   8123SM  C11S10755   3.920   5.119  13.167 -0.0298 -0.2959 -0.2519
   8123SM  H11S10756   4.027   5.150  13.167 -0.6575  2.1971  1.2184
   8123SM  H11T10757   3.922   5.009  13.155  2.3299 -0.1760 -1.6085
   8123SM  C12S10758   3.865   5.155  13.303 -0.4832  0.0352  0.3384
   8123SM  H12S10759   3.761   5.116  13.308 -0.6939  0.2903 -1.4361
   8123SM  H12T10760   3.858   5.265  13.310 -0.7417  0.0440 -0.0005
   8123SM  C13S10761   3.942   5.100  13.426  0.4095  0.2411 -0.6144
   8123SM  H13S10762   4.037   5.154  13.445 -0.3321  1.5299 -0.4342
   8123SM  H13T10763   3.963   4.994  13.399  1.8309  0.9312 -2.4512
   8123SM  C14S10764   3.861   5.086  13.552 -0.1917 -0.3466 -0.1800
   8123SM  H14S10765   3.917   5.023  13.625 -1.7982  0.0723  1.4909
   8123SM  H14T10766   3.760   5.043  13.540  0.2039 -1.1978 -0.5856
   8123SM  C15S10767   3.834   5.228  13.619  1.0086  0.0631 -0.9352
   8123SM  H15S10768   3.788   5.284  13.535 -1.3531  0.1153  0.3166
   8123SM  H15T10769   3.932   5.275  13.645  0.7953 -0.3651  0.7942
   8123SM  C16S10770   3.738   5.222  13.738 -0.4219 -0.0602  0.6254
   8123SM  H16S10771   3.770   5.145  13.811 -0.6758 -0.8118 -0.0547
   8123SM  H16T10772   3.631   5.203  13.713 -0.7261  0.3437  1.5495
   8123SM  C17S10773   3.744   5.363  13.803 -0.2394  0.0553 -0.0633
   8123SM  H17S10774   3.682   5.431  13.741 -1.5116 -1.3921 -0.4389
   8123SM  H17T10775   3.853   5.385  13.801 -0.4771  1.2853 -0.5267
   8123SM  C18S10776   3.690   5.378  13.941 -0.1713 -0.2974 -0.2365
   8123SM  H18S10777   3.747   5.333  14.026  0.1226 -0.5284 -0.5523
   8123SM  H18T10778   3.591   5.329  13.952 -0.4872  0.4868  0.5760
   8123SM  H18U10779   3.669   5.483  13.969 -2.0139 -0.6826 -0.0804
   8123SM   C1F10780   4.071   5.313  12.201 -0.1858 -0.5672 -0.4091
   8123SM    OF10781   3.954   5.331  12.156 -0.1102  0.2269 -0.5812
   8123SM   C2F10782   4.166   5.428  12.223  0.2457 -0.4431 -0.0816
   8123SM   H2F10783   4.181   5.485  12.129  1.0411  1.9345  1.3878
   8123SM   H2G10784   4.267   5.391  12.252  0.2677  0.0434  0.4803
   8123SM   C3F10785   4.138   5.537  12.335 -0.4883  0.0992 -1.0826
   8123SM   H3F10786   4.034   5.574  12.323 -1.3304 -2.3472 -2.0791
   8123SM   H3G10787   4.220   5.612  12.330  1.2933 -1.7761 -1.3311
   8123SM   C4F10788   4.160   5.483  12.476 -0.1721 -0.0613 -0.0207
   8123SM   H4F10789   4.260   5.439  12.495  0.1522  0.2985 -0.8554
   8123SM   H4G10790   4.086   5.410  12.517  2.7322 -0.9643  4.1761
   8123SM   C5F10791   4.138   5.584  12.594 -0.4189 -0.1546 -0.0393
   8123SM   H5F10792   4.054   5.653  12.574  0.4768  0.9747 -0.0634
   8123SM   H5G10793   4.234   5.640  12.601  0.1152 -0.8357 -1.4794
   8123SM   C6F10794   4.119   5.511  12.729 -0.0200  0.0986  0.0732
   8123SM   H6F10795   4.199   5.448  12.774 -1.8192 -0.7020  2.3300
   8123SM   H6G10796   4.031   5.444  12.727  0.9828 -1.2683 -1.7717
   8123SM   C7F10797   4.115   5.614  12.844  0.5314  0.0714 -0.5496
   8123SM   H7F10798   4.053   5.703  12.818  2.4760  1.4739 -0.6171
   8123SM   H7G10799   4.221   5.647  12.846  0.3145  0.7392  0.4440
   8123SM   C8F10800   4.066   5.559  12.980 -0.0566 -0.4442 -0.1328
   8123SM   H8F10801   4.148   5.486  12.992 -0.5185 -0.8968  0.2752
   8123SM   H8G10802   3.968   5.507  12.971 -1.3969  1.7025  1.0187
   8123SM   C9F10803   4.078   5.672  13.086 -0.6038 -0.2216  0.3551
   8123SM   H9F10804   3.997   5.748  13.085 -1.2833 -0.8622  2.1939
   8123SM   H9G10805   4.171   5.721  13.049  0.3737 -0.9440  1.7726
   8123SM  C10F10806   4.104   5.620  13.221  0.5356  0.0978 -0.6440
   8123SM  H10F10807   4.173   5.534  13.226 -0.1220 -0.4876 -1.2776
   8123SM  H10G10808   4.009   5.589  13.271  1.8790 -0.2575  1.8301
   8123SM  C11F10809   4.163   5.735  13.304 -0.5060 -0.7905 -0.5761
   8123SM  H11F10810   4.088   5.817  13.305  1.9667  1.6650  0.8949
   8123SM  H11G10811   4.262   5.765  13.265  1.4257 -3.7661  1.5789
   8123SM  C12F10812   4.176   5.700  13.450  0.2409  0.5270 -0.2121
   8123SM  H12F10813   4.263   5.631  13.458 -1.5544 -1.8729 -0.4531
   8123SM  H12G10814   4.088   5.645  13.489 -0.6337  1.3213 -0.9914
   8123SM  C13F10815   4.202   5.821  13.541 -0.6300 -0.5478  1.0353
   8123SM  H13F10816   4.111   5.885  13.544  0.9486  1.8046  1.2819
   8123SM  H13G10817   4.280   5.881  13.491  0.3206 -1.2095  1.6925
   8123SM  C14F10818   4.243   5.782  13.683  0.2473 -0.1539 -0.2467
   8123SM  H14F10819   4.320   5.702  13.677  2.2758  1.6631 -0.0116
   8123SM  H14G10820   4.156   5.733  13.732 -0.1331 -0.2625 -1.0201
   8123SM  C15F10821   4.281   5.901  13.771 -0.2228 -1.0742 -0.2972
   8123SM  H15F10822   4.193   5.964  13.797 -0.3564 -0.7868 -1.3942
   8123SM  H15G10823   4.351   5.963  13.711 -0.9985 -0.7691 -0.9043
   8123SM  C16F10824   4.365   5.857  13.897 -0.3372 -0.2860 -0.4785
   8123SM  H16F10825   4.450   5.793  13.867  0.2163  0.0286  0.3849
   8123SM  H16G10826   4.314   5.786  13.966  0.7461  0.0548  0.7260
   8123SM  C17F10827   4.411   5.976  13.979 -0.4097  0.1520  0.5502
   8123SM  H17F10828   4.324   6.045  13.982 -0.6647 -0.0301 -1.4514
   8123SM  H17G10829   4.498   6.024  13.929 -0.8641  0.3383 -0.0821
   8123SM  C18F10830   4.445   5.933  14.117  0.2260  0.2184  0.3228
   8123SM  H18F10831   4.542   5.879  14.115  0.8295  1.2670  0.6145
   8123SM  H18G10832   4.364   5.870  14.160 -0.5812  0.5135 -0.7245
   8123SM  C19F10833   4.471   6.048  14.221 -0.0674 -0.7458  0.2023
   8123SM  H19F10834   4.484   6.006  14.324  0.3535  0.8242  0.8160
   8123SM  H19G10835   4.385   6.117  14.220  0.1326 -0.4957  0.1917
   8123SM  C20F10836   4.600   6.129  14.188 -0.3925 -0.0630  0.5319
   8123SM  H20F10837   4.601   6.161  14.082  2.2533 -0.0123  0.5031
   8123SM  H20G10838   4.687   6.061  14.205 -1.0581 -0.6738  1.6155
   8123SM  C21F10839   4.624   6.249  14.278 -0.8374 -0.0559  0.6086
   8123SM  H21F10840   4.627   6.215  14.384  0.5635  0.7364  0.8490
   8123SM  H21G10841   4.544   6.325  14.271  0.4628  1.3633  0.6075
   8123SM  C22F10842   4.765   6.320  14.257  0.2755  0.3933 -0.1767
   8123SM  H22F10843   4.820   6.227  14.231 -2.0741 -1.4168  0.9046
   8123SM  H22G10844   4.796   6.357  14.357  0.5388 -0.3659  0.0302
   8123SM  C23F10845   4.770   6.432  14.150 -0.1833  0.1605 -0.7793
   8123SM  H23F10846   4.759   6.386  14.050 -0.2827  0.0984 -0.7390
   8123SM  H23G10847   4.866   6.486  14.163 -0.1753 -0.0877  0.3300
   8123SM  H23H10848   4.685   6.500  14.169 -0.6591 -1.0207  1.7716
   8223SM     N10849   3.905   5.624  11.295  0.0997 -0.0895  0.8825
   8223SM   C1510850   3.899   5.478  11.262 -0.3812 -0.1663  0.2213
   8223SM  H15A10851   3.802   5.437  11.289  0.6876 -1.2413  2.7014
   8223SM  H15B10852   3.970   5.421  11.320  0.5448  0.2548 -0.4870
   8223SM  H15C10853   3.929   5.461  11.160  1.7881  1.6638  0.4638
   8223SM   C1410854   4.041   5.685  11.267 -0.8275  0.5386  0.2045
   8223SM  H14A10855   4.035   5.784  11.309 -3.9407  0.6965 -0.3182
   8223SM  H14B10856   4.074   5.679  11.164  0.1240  0.0430  0.5286
   8223SM  H14C10857   4.120   5.627  11.311  0.6907  1.4068 -1.2760
   8223SM   C1310858   3.826   5.698  11.197  0.3434 -0.2628 -0.3177
   8223SM  H13A10859   3.836   5.802  11.224  1.0174 -0.6357  0.9754
   8223SM  H13B10860   3.722   5.668  11.194  0.0822  0.3929  1.0522
   8223SM  H13C10861   3.871   5.682  11.101  0.8588 -1.3375  0.0892
   8223SM   C1210862   3.849   5.654  11.438 -0.2784  0.3573  0.3303
   8223SM  H12A10863   3.895   5.580  11.502  0.4741 -0.7235 -1.3969
   8223SM  H12B10864   3.745   5.625  11.443  0.2172 -2.3662 -2.1016
   8223SM   C1110865   3.865   5.796  11.505  0.1300 -0.0707 -0.3659
   8223SM  H11A10866   3.817   5.775  11.603 -1.2090 -1.7444 -1.3364
   8223SM  H11B10867   3.804   5.868  11.447  0.4371  0.8907  0.4703
   8223SM     P10868   4.053   5.979  11.530  0.2329 -0.0463 -0.0534
   8223SM   O1310869   4.151   6.003  11.423  0.1848  0.4219  0.1307
   8223SM   O1410870   3.937   6.072  11.530 -0.0017  0.8995 -0.1138
   8223SM   O1110871   4.117   5.964  11.669  0.2643  0.5099 -0.1488
   8223SM   O1210872   4.005   5.829  11.512  0.3222 -0.0719 -0.4232
   8223SM   C1S10873   4.044   5.940  11.789  0.3024 -0.1721 -0.1804
   8223SM   H1S10874   3.935   5.930  11.768  0.2983 -0.2010 -0.1459
   8223SM   H1T10875   4.052   6.030  11.854  0.8474  1.2946 -2.1850
   8223SM    NF10876   4.020   5.812  12.008 -0.7316 -0.2664  0.1283
   8223SM   HNF10877   4.065   5.854  12.087 -1.8580  2.3895 -0.5382
   8223SM   C2S10878   4.100   5.828  11.885 -0.1055 -0.3056 -0.5780
   8223SM   H2S10879   4.091   5.733  11.827 -0.8404  0.4778 -1.7844
   8223SM   C3S10880   4.253   5.848  11.911  0.0734 -0.0677  0.6417
   8223SM   H3S10881   4.263   5.951  11.951  0.3153  0.7762 -1.4543
   8223SM    O310882   4.324   5.842  11.793  0.5446  0.4354  0.2179
   8223SM   HO310883   4.251   5.862  11.733  1.1093 -2.3347 -1.6031
   8223SM   C4S10884   4.319   5.758  12.012 -1.3558 -0.7289  0.1941
   8223SM   H4S10885   4.289   5.655  11.987 -0.8943 -0.6798 -0.5878
   8223SM   C5S10886   4.396   5.792  12.114  0.3531  0.0931 -0.5754
   8223SM   H5S10887   4.420   5.897  12.135 -0.7400  0.3701 -0.6535
   8223SM   C6S10888   4.468   5.701  12.205  0.2973 -0.3590 -0.2652
   8223SM   H6S10889   4.575   5.719  12.179 -0.1775 -0.7609 -2.6943
   8223SM   H6T10890   4.445   5.596  12.179 -2.1894  0.2450 -0.7601
   8223SM   C7S10891   4.454   5.730  12.354  0.0723  0.6855 -0.2360
   8223SM   H7S10892   4.356   5.714  12.403  1.1051  0.4211  1.8959
   8223SM   H7T10893   4.488   5.835  12.372  2.8110 -0.1770  0.1708
   8223SM   C8S10894   4.554   5.633  12.430  0.2340  0.0282  0.2369
   8223SM   H8S10895   4.646   5.627  12.369 -0.4616  2.2111 -1.1638
   8223SM   H8T10896   4.507   5.532  12.432 -0.2240  0.2233 -0.5216
   8223SM   C9S10897   4.573   5.680  12.577  0.2070 -0.4398  0.5023
   8223SM   H9S10898   4.475   5.686  12.629  0.3295  2.6045  0.5791
   8223SM   H9T10899   4.618   5.781  12.575  0.2316 -0.4688 -0.9703
   8223SM  C10S10900   4.674   5.598  12.661  0.1296 -0.4043 -0.0103
   8223SM  H10S10901   4.780   5.616  12.632  0.0182 -0.3709 -0.3976
   8223SM  H10T10902   4.654   5.489  12.652  1.1238 -0.6432  0.4806
   8223SM  C11S10903   4.668   5.635  12.807 -0.4152  0.2847 -0.0324
   8223SM  H11S10904   4.569   5.601  12.844 -0.6680 -1.1996 -1.8867
   8223SM  H11T10905   4.674   5.745  12.820  0.4090  0.0720  1.6992
   8223SM  C12S10906   4.784   5.579  12.896 -0.5674 -0.3954 -0.4899
   8223SM  H12S10907   4.877   5.608  12.844  1.1651 -2.2849  1.3869
   8223SM  H12T10908   4.783   5.469  12.906 -1.1342 -0.7606 -3.5382
   8223SM  C13S10909   4.813   5.651  13.029  0.7755  0.4510 -0.3196
   8223SM  H13S10910   4.805   5.762  13.019  0.5814  0.5613  0.8772
   8223SM  H13T10911   4.911   5.622  13.073  0.0941 -0.4006  0.6972
   8223SM  C14S10912   4.707   5.602  13.128 -0.2688  0.0196  0.1831
   8223SM  H14S10913   4.721   5.491  13.129  0.4931  0.1049 -0.4296
   8223SM  H14T10914   4.609   5.609  13.077 -0.0363 -0.4326 -0.3384
   8223SM  C15S10915   4.720   5.675  13.264 -0.6592 -0.4301  0.4121
   8223SM  H15S10916   4.824   5.712  13.277 -0.6930 -0.8241  2.0921
   8223SM  H15T10917   4.693   5.601  13.342  1.1186 -2.1881 -0.5653
   8223SM  C16S10918   4.625   5.797  13.263  0.2148  0.1297  0.2023
   8223SM  H16S10919   4.525   5.779  13.218 -0.7093 -1.2450  2.6177
   8223SM  H16T10920   4.683   5.865  13.196  1.1560 -0.6877  0.1640
   8223SM  C17S10921   4.601   5.863  13.402 -0.0728 -0.3195  0.4300
   8223SM  H17S10922   4.697   5.866  13.457 -0.1162  1.6113  0.4809
   8223SM  H17T10923   4.526   5.808  13.462  0.7261  0.3632  2.1244
   8223SM  C18S10924   4.556   6.007  13.403  0.4100  0.6870 -0.5385
   8223SM  H18S10925   4.590   6.051  13.499  2.8631 -0.7568 -0.6570
   8223SM  H18T10926   4.446   6.016  13.394  0.1547 -0.8029  0.5849
   8223SM  H18U10927   4.603   6.063  13.320  0.9037 -1.0633 -1.4864
   8223SM   C1F10928   3.896   5.761  12.010  0.1459  0.2673  0.4950
   8223SM    OF10929   3.831   5.725  11.904 -0.2533 -0.0710 -0.1432
   8223SM   C2F10930   3.831   5.764  12.141 -1.0055 -0.2435 -0.5100
   8223SM   H2F10931   3.852   5.866  12.177  0.8817 -1.2173  1.3283
   8223SM   H2G10932   3.880   5.692  12.210  1.0220  0.0419 -1.5787
   8223SM   C3F10933   3.675   5.742  12.136 -0.2130  0.2878 -0.4202
   8223SM   H3F10934   3.650   5.647  12.086 -0.0755  0.2145 -0.3514
   8223SM   H3G10935   3.640   5.830  12.078  0.9172  0.9914 -0.0688
   8223SM   C4F10936   3.619   5.751  12.282 -0.0971  0.3526  0.5746
   8223SM   H4F10937   3.508   5.740  12.283 -0.1839  1.0002 -0.2501
   8223SM   H4G10938   3.633   5.848  12.334 -1.1343  0.3634  0.8563
   8223SM   C5F10939   3.663   5.639  12.371  0.2917  0.1851  0.4244
   8223SM   H5F10940   3.770   5.622  12.394  0.3076 -3.3514 -1.4762
   8223SM   H5G10941   3.634   5.546  12.317 -1.9566  0.2220  1.4621
   8223SM   C6F10942   3.583   5.644  12.502  0.1733  0.2444 -0.2788
   8223SM   H6F10943   3.474   5.637  12.481  0.0681 -0.0071  0.3156
   8223SM   H6G10944   3.580   5.745  12.547 -1.9016 -0.1226  0.5572
   8223SM   C7F10945   3.620   5.528  12.603 -0.1554 -0.3086  0.0136
   8223SM   H7F10946   3.731   5.523  12.610  0.0251  0.8983 -1.4008
   8223SM   H7G10947   3.575   5.429  12.580 -2.9579  1.0779 -1.0009
   8223SM   C8F10948   3.592   5.564  12.754 -0.3741 -0.0708  0.5591
   8223SM   H8F10949   3.483   5.587  12.758  0.1025  2.6063  0.3336
   8223SM   H8G10950   3.648   5.659  12.769  1.2661 -0.6827 -1.3643
   8223SM   C9F10951   3.633   5.445  12.842 -0.1855 -0.2076 -0.1722
   8223SM   H9F10952   3.742   5.428  12.827  0.0449  0.2404  0.9162
   8223SM   H9G10953   3.574   5.355  12.814  0.3402 -1.8159  3.3412
   8223SM  C10F10954   3.598   5.455  12.993 -0.3479 -0.2128  0.1049
   8223SM  H10F10955   3.635   5.361  13.040 -3.9761 -2.7195 -1.5642
   8223SM  H10G10956   3.488   5.453  13.008 -0.2300  1.9942  1.7549
   8223SM  C11F10957   3.664   5.570  13.064 -0.1795  0.0140 -0.2834
   8223SM  H11F10958   3.592   5.655  13.057  1.8034  2.0019  1.9444
   8223SM  H11G10959   3.752   5.590  12.999 -0.4378 -0.8431 -0.9121
   8223SM  C12F10960   3.691   5.551  13.213 -0.3769 -1.2948  0.9833
   8223SM  H12F10961   3.771   5.474  13.218  0.7603 -0.0668  2.3899
   8223SM  H12G10962   3.600   5.510  13.262 -0.6949  0.6416  2.1122
   8223SM  C13F10963   3.726   5.679  13.299  0.1359 -0.3003  0.0769
   8223SM  H13F10964   3.642   5.751  13.296  0.7095  0.3777 -2.2592
   8223SM  H13G10965   3.815   5.729  13.254  1.2965 -1.7738  0.6468
   8223SM  C14F10966   3.761   5.641  13.445  0.4678 -0.0178 -0.3394
   8223SM  H14F10967   3.842   5.565  13.455 -0.7002 -1.4469 -1.3780
   8223SM  H14G10968   3.675   5.581  13.482 -0.1356  0.5678 -0.7867
   8223SM  C15F10969   3.770   5.759  13.540 -0.6211  0.6275 -0.7552
   8223SM  H15F10970   3.684   5.827  13.519 -0.0094  1.8344  0.4970
   8223SM  H15G10971   3.863   5.807  13.503  0.2950 -0.7260 -0.2707
   8223SM  C16F10972   3.794   5.701  13.681  0.0791 -0.1841  0.2407
   8223SM  H16F10973   3.846   5.605  13.663 -1.7908 -1.8610  2.9887
   8223SM  H16G10974   3.697   5.675  13.729  0.6967  1.2277  2.4092
   8223SM  C17F10975   3.882   5.799  13.761 -0.0144 -0.5177 -0.4568
   8223SM  H17F10976   3.815   5.885  13.784  2.1753  0.7756  1.5579
   8223SM  H17G10977   3.972   5.827  13.703 -0.4476 -2.0641 -1.9375
   8223SM  C18F10978   3.926   5.748  13.899  0.0137 -0.0455 -0.6815
   8223SM  H18F10979   4.010   5.678  13.884  0.7171  0.9175 -1.3894
   8223SM  H18G10980   3.839   5.694  13.941  0.6087  1.2397  2.5116
   8223SM  C19F10981   3.969   5.842  14.006 -0.1473 -0.0765  0.1425
   8223SM  H19F10982   3.886   5.899  14.052 -1.7831 -1.1044 -1.4282
   8223SM  H19G10983   4.045   5.907  13.957  0.8220 -1.7256 -0.5968
   8223SM  C20F10984   4.044   5.786  14.122  0.2912  0.7229  0.4261
   8223SM  H20F10985   4.077   5.874  14.181  0.2718  1.6758 -0.9493
   8223SM  H20G10986   4.137   5.731  14.096 -0.3741  0.6685 -2.1319
   8223SM  C21F10987   3.957   5.696  14.212 -0.4278 -1.0403  0.3431
   8223SM  H21F10988   4.027   5.647  14.283  1.4863  0.5626 -0.3653
   8223SM  H21G10989   3.907   5.616  14.154 -2.3888  0.6833 -0.4751
   8223SM  C22F10990   3.846   5.767  14.278 -0.4446 -0.8360  0.3809
   8223SM  H22F10991   3.782   5.830  14.213 -2.1395  0.6595  3.3089
   8223SM  H22G10992   3.875   5.835  14.361 -1.3028  1.5978 -1.2038
   8223SM  C23F10993   3.733   5.666  14.329  0.6001 -0.2898 -0.1477
   8223SM  H23F10994   3.781   5.603  14.407 -2.1853  0.9485  2.7936
   8223SM  H23G10995   3.698   5.611  14.240  2.4379  2.7733 -2.9725
   8223SM  H23H10996   3.649   5.726  14.370 -0.0319 -1.3625  0.1692
   8323SM     N10997   4.706   5.268  11.791 -0.5389 -0.2984 -0.3563
   8323SM   C1510998   4.682   5.141  11.717  0.0583 -0.4550  0.0587
   8323SM  H15A10999   4.576   5.131  11.701 -0.2741  3.2800 -1.1269
   8323SM  H15B11000   4.720   5.060  11.777 -1.6418 -1.2024  0.1595
   8323SM  H15C11001   4.732   5.153  11.621  0.8707  2.7916  0.7557
   8323SM   C1411002   4.857   5.297  11.778 -0.0588  0.1775  0.3255
   8323SM  H14A11003   4.874   5.395  11.820  2.5428 -0.2315  0.3477
   8323SM  H14B11004   4.881   5.293  11.673  0.7475  0.1149  0.5091
   8323SM  H14C11005   4.905   5.221  11.838 -0.7693 -0.1678  0.4756
   8323SM   C1311006   4.621   5.372  11.731 -0.2841 -0.2663 -0.5558
   8323SM  H13A11007   4.618   5.463  11.789 -2.0577 -0.6145 -0.0313
   8323SM  H13B11008   4.518   5.342  11.723 -0.6205  0.6171  0.3237
   8323SM  H13C11009   4.653   5.409  11.635  0.7018  1.2974  0.3200
   8323SM   C1211010   4.670   5.268  11.939 -0.0255 -0.1286 -0.6829
   8323SM  H12A11011   4.562   5.256  11.934 -0.0898  0.2991 -0.3442
   8323SM  H12B11012   4.687   5.363  11.988  0.1992 -1.1699  1.3559
   8323SM   C1111013   4.727   5.147  12.024  0.1963  0.8502 -0.2631
   8323SM  H11A11014   4.733   5.168  12.133  1.3718  1.4737 -0.4311
   8323SM  H11B11015   4.832   5.134  11.991 -0.7391 -3.5927 -2.1254
   8323SM     P11016   4.501   5.019  12.026  0.0667  0.2450 -0.0951
   8323SM   O1311017   4.432   5.123  11.952 -0.1369  0.4257 -0.0158
   8323SM   O1411018   4.453   4.879  12.004 -0.0578  0.3546 -0.0387
   8323SM   O1111019   4.499   5.052  12.177 -0.1326 -0.2996  0.1234
   8323SM   O1211020   4.655   5.027  11.989  0.5244  0.5716 -0.5017
   8323SM   C1S11021   4.574   4.965  12.264 -0.2878  0.7383  0.5589
   8323SM   H1S11022   4.673   4.939  12.221 -0.9429 -2.2473  0.6557
   8323SM   H1T11023   4.530   4.864  12.276  1.1885 -0.2928 -1.9998
   8323SM    NF11024   4.693   4.939  12.485  0.3625  0.6046  0.0623
   8323SM   HNF11025   4.647   4.897  12.562  1.1157  2.1056  1.3979
   8323SM   C2S11026   4.601   5.028  12.402 -0.7466 -0.7677 -0.4551
   8323SM   H2S11027   4.650   5.125  12.377 -0.7625 -0.4582  0.6634
   8323SM   C3S11028   4.462   5.055  12.474 -0.0733  0.2254 -0.6220
   8323SM   H3S11029   4.417   4.954  12.487 -2.1011  1.1787  0.3458
   8323SM    O311030   4.368   5.127  12.393  0.0249  0.2448 -0.1102
   8323SM   HO311031   4.401   5.110  12.304 -1.5463 -0.5056 -0.6020
   8323SM   C4S11032   4.470   5.111  12.612  0.5162 -0.2808 -0.5943
   8323SM   H4S11033   4.419   5.048  12.686 -1.0904 -0.8387 -2.1199
   8323SM   C5S11034   4.506   5.237  12.643 -0.4294  0.4052  0.1486
   8323SM   H5S11035   4.547   5.294  12.559  0.4929  0.7038  0.7855
   8323SM   C6S11036   4.484   5.311  12.778  0.7378  0.4177 -0.6461
   8323SM   H6S11037   4.398   5.381  12.777 -0.7534 -1.2898 -3.4747
   8323SM   H6T11038   4.575   5.365  12.811  0.5924 -0.4383  1.3492
   8323SM   C7S11039   4.454   5.219  12.901 -0.4037 -0.3298 -0.1477
   8323SM   H7S11040   4.535   5.144  12.907 -0.8906 -0.7553  1.8911
   8323SM   H7T11041   4.363   5.160  12.877 -1.4941  0.9035  0.7512
   8323SM   C8S11042   4.445   5.315  13.024  0.3395 -0.1314 -0.0164
   8323SM   H8S11043   4.345   5.362  13.018 -1.2159 -3.1108  0.8265
   8323SM   H8T11044   4.517   5.400  13.018 -1.1942  1.1925 -0.2082
   8323SM   C9S11045   4.437   5.241  13.150 -0.4469 -0.2675  0.4197
   8323SM   H9S11046   4.535   5.203  13.187  0.3759  2.1096  0.8039
   8323SM   H9T11047   4.366   5.158  13.128 -2.0822  0.9122  1.0333
   8323SM  C10S11048   4.378   5.323  13.265 -0.0185  0.5988  0.0777
   8323SM  H10S11049   4.269   5.327  13.240 -0.7384 -0.7085  2.6375
   8323SM  H10T11050   4.417   5.427  13.272 -2.1863  1.4739  0.2442
   8323SM  C11S11051   4.384   5.253  13.400 -0.1398 -0.5861 -1.0267
   8323SM  H11S11052   4.491   5.252  13.430 -0.4399  2.2325  0.5577
   8323SM  H11T11053   4.346   5.149  13.390  1.3235 -1.1098 -1.4002
   8323SM  C12S11054   4.303   5.330  13.507 -0.1085 -0.4453 -0.7917
   8323SM  H12S11055   4.207   5.374  13.472 -0.0070 -0.3334 -0.9332
   8323SM  H12T11056   4.379   5.408  13.529  0.4410 -1.3271  0.5504
   8323SM  C13S11057   4.279   5.256  13.645  0.1917  0.5098  0.5390
   8323SM  H13S11058   4.379   5.233  13.688  0.2188  0.8471  0.6627
   8323SM  H13T11059   4.225   5.160  13.638 -0.7648  1.1044 -0.9818
   8323SM  C14S11060   4.202   5.337  13.752 -0.0817  0.0740  0.5088
   8323SM  H14S11061   4.112   5.362  13.691  1.2241  0.4133 -1.3372
   8323SM  H14T11062   4.263   5.426  13.779  0.8602 -1.2753  3.1306
   8323SM  C15S11063   4.152   5.262  13.877  0.7162  0.0651  0.5903
   8323SM  H15S11064   4.247   5.226  13.924 -0.4968  0.4161  3.5708
   8323SM  H15T11065   4.092   5.170  13.859  1.2441 -0.5269  1.7041
   8323SM  C16S11066   4.094   5.363  13.979  0.1122 -0.0507 -0.1500
   8323SM  H16S11067   4.015   5.430  13.936  0.3147  1.4195  1.6227
   8323SM  H16T11068   4.176   5.427  14.018  0.5478  0.2680 -1.5483
   8323SM  C17S11069   4.030   5.295  14.103 -0.1049 -0.5868  0.2550
   8323SM  H17S11070   3.961   5.218  14.063 -1.9428  0.8063  0.6055
   8323SM  H17T11071   3.970   5.368  14.161  2.0803  0.6433  1.1120
   8323SM  C18S11072   4.133   5.236  14.197 -0.0619  0.4501  0.2299
   8323SM  H18S11073   4.094   5.195  14.292 -2.2542  1.0828 -0.3362
   8323SM  H18T11074   4.204   5.320  14.215 -1.0679  1.9027 -2.1079
   8323SM  H18U11075   4.191   5.155  14.149 -1.3733 -0.7198  0.5643
   8323SM   C1F11076   4.823   4.911  12.459 -0.3054  0.5630  0.1566
   8323SM    OF11077   4.879   4.946  12.353 -0.1820 -0.6134 -0.0612
   8323SM   C2F11078   4.891   4.841  12.568  0.1381  0.1121 -0.2610
   8323SM   H2F11079   4.815   4.784  12.625  0.9560 -0.3686  0.3639
   8323SM   H2G11080   4.937   4.918  12.634  0.0869  1.2179 -1.4660
   8323SM   C3F11081   5.011   4.752  12.517  1.1553 -0.5211 -0.4429
   8323SM   H3F11082   5.068   4.806  12.439 -0.2650  1.4890 -0.1849
   8323SM   H3G11083   4.962   4.666  12.466  0.3522  0.5158 -1.4904
   8323SM   C4F11084   5.100   4.716  12.635  0.0316  0.4441  0.2485
   8323SM   H4F11085   5.155   4.806  12.670 -0.3519  1.2881 -1.2160
   8323SM   H4G11086   5.177   4.642  12.602  0.1885  0.3298  0.8567
   8323SM   C5F11087   5.026   4.648  12.754  0.0026  0.1173 -1.0458
   8323SM   H5F11088   5.055   4.540  12.751 -2.0438 -0.4617 -1.4245
   8323SM   H5G11089   4.916   4.645  12.737 -0.0237 -1.2103 -0.7556
   8323SM   C6F11090   5.067   4.716  12.882  0.3062  0.3176  0.2511
   8323SM   H6F11091   5.041   4.824  12.875  2.3172  0.7389 -3.3090
   8323SM   H6G11092   5.176   4.700  12.890  0.4725 -0.2080 -2.2225
   8323SM   C7F11093   4.998   4.660  13.006  0.3266 -0.0219  0.4023
   8323SM   H7F11094   5.016   4.551  13.022 -1.3619  0.0016  3.0732
   8323SM   H7G11095   4.888   4.670  13.014  0.4596 -0.0233  3.1509
   8323SM   C8F11096   5.059   4.734  13.124 -0.0709  0.6272 -0.0397
   8323SM   H8F11097   5.049   4.843  13.104  1.8782  0.8324 -0.0436
   8323SM   H8G11098   5.168   4.725  13.142 -0.3816  1.9661  3.5092
   8323SM   C9F11099   4.993   4.695  13.255 -0.7399  0.0432 -0.0075
   8323SM   H9F11100   5.004   4.585  13.262 -2.0787 -0.0755  0.5609
   8323SM   H9G11101   4.885   4.720  13.265 -0.8265 -0.5469  0.5314
   8323SM  C10F11102   5.062   4.761  13.378 -0.2804 -0.8296 -0.2052
   8323SM  H10F11103   5.079   4.869  13.361  0.3385 -0.7740  0.7083
   8323SM  H10G11104   5.169   4.733  13.378  0.3303  1.2774 -1.1297
   8323SM  C11F11105   4.988   4.738  13.508  0.5763  0.1998  0.3538
   8323SM  H11F11106   4.966   4.629  13.516  0.8390  0.1622  0.5929
   8323SM  H11G11107   4.901   4.806  13.503 -0.0398 -0.6569 -3.1816
   8323SM  C12F11108   5.080   4.781  13.622  0.0662  0.2583 -1.0254
   8323SM  H12F11109   5.105   4.889  13.614 -0.3731  0.4725  0.3505
   8323SM  H12G11110   5.174   4.722  13.622  0.5966  1.0524  0.7140
   8323SM  C13F11111   5.005   4.750  13.761  0.2387 -0.0799 -0.2639
   8323SM  H13F11112   4.968   4.647  13.750  1.6791 -0.4180 -2.7041
   8323SM  H13G11113   4.922   4.822  13.776  2.2099  2.8493 -2.0975
   8323SM  C14F11114   5.095   4.771  13.887  0.8624 -0.1464 -0.0187
   8323SM  H14F11115   5.123   4.877  13.901  0.4993 -0.2718  1.9451
   8323SM  H14G11116   5.185   4.710  13.865  1.4734  1.3086 -1.7744
   8323SM  C15F11117   5.018   4.720  14.014  0.0361 -0.4495 -0.2666
   8323SM  H15F11118   5.085   4.723  14.103  0.9729 -2.5727 -0.8323
   8323SM  H15G11119   5.001   4.611  13.999 -1.0159 -0.1516 -1.3205
   8323SM  C16F11120   4.888   4.798  14.043  0.0806 -0.3606 -0.6677
   8323SM  H16F11121   4.850   4.763  14.142  0.3271  1.6641  0.1922
   8323SM  H16G11122   4.821   4.763  13.961 -1.4377 -1.2590  0.8851
   8323SM  C17F11123   4.899   4.951  14.053  0.1175 -0.0916 -1.2115
   8323SM  H17F11124   4.923   4.996  13.954 -0.0976  0.3890 -1.0484
   8323SM  H17G11125   4.979   4.977  14.127 -0.8400 -1.5726  0.4223
   8323SM  C18F11126   4.778   5.028  14.101  0.1937  0.2038  0.8458
   8323SM  H18F11127   4.750   4.992  14.202  0.2152 -0.6893  0.5344
   8323SM  H18G11128   4.692   4.995  14.039 -0.3026 -0.5740  1.9130
   8323SM  C19F11129   4.795   5.185  14.105  0.1528 -0.2412  0.8558
   8323SM  H19F11130   4.813   5.220  14.002 -0.9467  1.2892  1.1544
   8323SM  H19G11131   4.892   5.203  14.157  0.7194 -1.2520  0.1787
   8323SM  C20F11132   4.685   5.270  14.151  0.3728 -0.2123 -0.4555
   8323SM  H20F11133   4.643   5.248  14.251 -1.5591  2.9117 -0.4277
   8323SM  H20G11134   4.606   5.252  14.074  0.6103 -0.4432 -0.6468
   8323SM  C21F11135   4.740   5.409  14.157 -0.3002 -0.4511  0.0496
   8323SM  H21F11136   4.769   5.427  14.051  0.2424 -2.4064 -0.1873
   8323SM  H21G11137   4.839   5.412  14.207 -0.7720 -0.4463  1.0095
   8323SM  C22F11138   4.641   5.516  14.196 -0.0564  0.0239  0.0111
   8323SM  H22F11139   4.682   5.614  14.162 -0.4469  0.1611 -0.0703
   8323SM  H22G11140   4.642   5.515  14.307  1.6523  1.8801  0.0736
   8323SM  C23F11141   4.503   5.501  14.140 -0.4819 -0.0174  0.4476
   8323SM  H23F11142   4.457   5.407  14.176 -1.4701  0.2523 -0.1003
   8323SM  H23G11143   4.508   5.492  14.030  0.5949 -1.6058  0.5907
   8323SM  H23H11144   4.438   5.587  14.167  0.5320  1.4880 -1.6484
   8423SM     N11145   4.266   2.992  11.626  0.9734 -0.1766  0.2781
   8423SM   C1511146   4.131   3.031  11.689  0.1459 -0.5003 -0.0344
   8423SM  H15A11147   4.159   3.104  11.763 -0.0609 -0.0196 -0.4263
   8423SM  H15B11148   4.080   2.943  11.726  0.0041 -0.8139 -0.9497
   8423SM  H15C11149   4.066   3.082  11.620  2.3589  0.6872 -1.3640
   8423SM   C1411150   4.244   2.907  11.505  0.0717 -0.4768 -0.3583
   8423SM  H14A11151   4.235   2.960  11.411 -2.2341  1.5218  0.8761
   8423SM  H14B11152   4.166   2.833  11.518 -0.2820 -0.3288 -1.4828
   8423SM  H14C11153   4.340   2.860  11.490  1.3751  1.9350 -0.0368
   8423SM   C1311154   4.345   3.117  11.592  0.3521  0.1444 -0.0394
   8423SM  H13A11155   4.278   3.189  11.546  0.8282  0.3696 -0.3935
   8423SM  H13B11156   4.420   3.093  11.517  0.6735 -0.4489  0.4651
   8423SM  H13C11157   4.386   3.170  11.677  1.7916  0.2744 -0.7838
   8423SM   C1211158   4.352   2.916  11.725  0.0420  0.3059 -0.5484
   8423SM  H12A11159   4.452   2.891  11.692 -0.1420  0.1164 -0.9583
   8423SM  H12B11160   4.308   2.819  11.738 -0.0138  0.6477  2.5184
   8423SM   C1111161   4.352   2.965  11.872  0.3001  0.2073  0.0149
   8423SM  H11A11162   4.398   2.881  11.930  0.1716  0.0608 -0.0961
   8423SM  H11B11163   4.248   2.971  11.909  0.5754 -1.2546  1.1354
   8423SM     P11164   4.360   3.210  11.966  0.2766  0.4672 -0.2513
   8423SM   O1311165   4.478   3.272  12.033 -0.0680  0.4165  0.3513
   8423SM   O1411166   4.269   3.283  11.877  0.4257 -0.1289  0.3294
   8423SM   O1111167   4.284   3.141  12.085 -0.1140 -0.0323 -0.3497
   8423SM   O1211168   4.426   3.087  11.892 -0.1670  0.5758  0.0800
   8423SM   C1S11169   4.350   3.055  12.186 -0.0861 -0.3684  0.1012
   8423SM   H1S11170   4.457   3.029  12.173 -0.0881 -1.9610  2.6185
   8423SM   H1T11171   4.288   2.964  12.203 -0.3213  0.2391  2.9915
   8423SM    NF11172   4.390   3.019  12.424 -1.0620  0.1929 -0.3381
   8423SM   HNF11173   4.331   2.962  12.480 -0.1551 -0.9432 -0.5026
   8423SM   C2S11174   4.339   3.120  12.332  0.2797  0.3875  0.8517
   8423SM   H2S11175   4.410   3.205  12.341  2.6569 -1.3759 -0.0910
   8423SM   C3S11176   4.190   3.166  12.356 -0.1016 -0.3238 -0.3691
   8423SM   H3S11177   4.130   3.074  12.338 -1.0533  0.0669  0.6995
   8423SM    O311178   4.123   3.267  12.271 -0.0353 -0.6534  0.5061
   8423SM   HO311179   4.186   3.268  12.199  0.3419  0.2872  0.8397
   8423SM   C4S11180   4.173   3.218  12.498 -0.2068  0.3653  0.2160
   8423SM   H4S11181   4.174   3.142  12.577 -1.2902  2.6876  2.5882
   8423SM   C5S11182   4.183   3.342  12.541  0.2449 -0.0924 -0.3946
   8423SM   H5S11183   4.201   3.417  12.463  1.8402 -2.4960 -2.4907
   8423SM   C6S11184   4.184   3.395  12.681 -0.5047  0.9526 -0.5212
   8423SM   H6S11185   4.075   3.413  12.693 -0.8553 -1.1848 -0.0370
   8423SM   H6T11186   4.232   3.494  12.692  0.6574  0.5206 -1.4555
   8423SM   C7S11187   4.229   3.299  12.791  0.4368 -0.3026  0.8677
   8423SM   H7S11188   4.326   3.249  12.771 -0.0154 -0.3070 -1.5454
   8423SM   H7T11189   4.151   3.221  12.800 -0.0816  0.1916  0.7319
   8423SM   C8S11190   4.227   3.371  12.925 -0.9563  0.7422  0.1213
   8423SM   H8S11191   4.121   3.385  12.955 -1.1271  0.2288 -0.2245
   8423SM   H8T11192   4.276   3.471  12.927  0.7611 -0.0226 -1.2084
   8423SM   C9S11193   4.301   3.280  13.031 -0.3029 -0.3781  0.0144
   8423SM   H9S11194   4.411   3.297  13.034 -0.4039  0.2324  0.7388
   8423SM   H9T11195   4.276   3.177  12.999  1.3873 -0.4929 -1.0422
   8423SM  C10S11196   4.240   3.305  13.172  0.3369  0.2914 -0.4113
   8423SM  H10S11197   4.140   3.354  13.162  0.5065  0.4736 -1.3565
   8423SM  H10T11198   4.313   3.372  13.223  0.3698 -1.0721  1.3994
   8423SM  C11S11199   4.233   3.182  13.261 -0.4515 -0.0736  0.3263
   8423SM  H11S11200   4.330   3.129  13.267  0.1231  0.6900 -1.6722
   8423SM  H11T11201   4.164   3.100  13.231 -0.5975  0.0885  0.2172
   8423SM  C12S11202   4.214   3.219  13.406 -0.2578  0.6959 -0.0782
   8423SM  H12S11203   4.110   3.250  13.432 -0.5037 -2.4782  3.7324
   8423SM  H12T11204   4.286   3.301  13.427  0.1720 -0.1005  1.8236
   8423SM  C13S11205   4.237   3.104  13.509 -0.0095  0.2994 -0.1721
   8423SM  H13S11206   4.344   3.086  13.489 -0.6189 -0.1015 -3.8259
   8423SM  H13T11207   4.189   3.012  13.469 -1.1728  0.3198  1.0834
   8423SM  C14S11208   4.204   3.129  13.654  0.4227 -0.2468 -0.2902
   8423SM  H14S11209   4.093   3.123  13.661  0.4787 -1.2137 -0.0392
   8423SM  H14T11210   4.228   3.234  13.681 -0.6187  0.1201 -0.7514
   8423SM  C15S11211   4.275   3.026  13.745 -0.1034 -0.0691 -0.0116
   8423SM  H15S11212   4.228   3.030  13.846  0.6937 -3.5038  0.6415
   8423SM  H15T11213   4.381   3.059  13.748  0.0579 -0.4768 -1.0849
   8423SM  C16S11214   4.254   2.873  13.711  0.2869  0.3488  0.6645
   8423SM  H16S11215   4.298   2.840  13.615  1.9502 -0.5916  1.7102
   8423SM  H16T11216   4.144   2.857  13.709 -0.0910  2.4838 -2.2881
   8423SM  C17S11217   4.322   2.790  13.819  0.1872 -0.5306 -0.6251
   8423SM  H17S11218   4.298   2.827  13.921  0.9031 -0.0640 -0.6247
   8423SM  H17T11219   4.431   2.813  13.819 -0.3002  2.6876  2.5756
   8423SM  C18S11220   4.308   2.636  13.794 -0.0831 -0.2943 -0.1124
   8423SM  H18S11221   4.391   2.589  13.851 -1.4251 -0.8186  1.4933
   8423SM  H18T11222   4.319   2.616  13.686 -0.8090 -0.6230 -0.1329
   8423SM  H18U11223   4.214   2.604  13.845  0.1675 -0.7337  0.0735
   8423SM   C1F11224   4.527   3.015  12.429  0.2488  0.4840 -0.1129
   8423SM    OF11225   4.596   3.072  12.348 -0.1525 -0.3737 -0.2825
   8423SM   C2F11226   4.576   2.946  12.546 -0.8930  0.6181  0.3198
   8423SM   H2F11227   4.663   2.879  12.530 -0.2708  0.8749  2.2874
   8423SM   H2G11228   4.489   2.896  12.594 -1.7823  3.9153  2.5187
   8423SM   C3F11229   4.619   3.053  12.653 -0.3809  0.2750 -0.9723
   8423SM   H3F11230   4.533   3.117  12.679 -1.8564 -2.2693  0.8841
   8423SM   H3G11231   4.695   3.122  12.610  0.9204  0.6803  1.7809
   8423SM   C4F11232   4.682   2.993  12.780 -0.2558  0.6315 -0.0906
   8423SM   H4F11233   4.786   2.955  12.772 -0.3510 -0.9379  4.0494
   8423SM   H4G11234   4.625   2.908  12.822  0.4147 -0.0686 -0.5698
   8423SM   C5F11235   4.679   3.093  12.900  0.0616 -0.0821 -0.5125
   8423SM   H5F11236   4.583   3.149  12.909 -0.1781 -0.1893 -2.0946
   8423SM   H5G11237   4.758   3.171  12.895  1.5420 -1.1853  2.6424
   8423SM   C6F11238   4.699   3.034  13.038  0.3084  0.2741 -0.1689
   8423SM   H6F11239   4.794   2.977  13.039  1.0284  1.4451  0.3018
   8423SM   H6G11240   4.615   2.963  13.057  0.7447 -0.6326 -1.5218
   8423SM   C7F11241   4.690   3.133  13.162 -0.7362 -0.4456 -0.0024
   8423SM   H7F11242   4.593   3.182  13.145 -0.1797  0.2908 -1.2185
   8423SM   H7G11243   4.776   3.202  13.145  0.1830 -1.2931  1.0752
   8423SM   C8F11244   4.712   3.052  13.290 -0.2432 -0.8291  0.2003
   8423SM   H8F11245   4.815   3.014  13.301 -0.6231 -2.0132 -0.1845
   8423SM   H8G11246   4.644   2.965  13.289 -0.9809 -0.2882  1.0328
   8423SM   C9F11247   4.684   3.132  13.421  0.1565 -0.8708 -0.2484
   8423SM   H9F11248   4.589   3.190  13.416 -0.3086 -1.5532  0.5191
   8423SM   H9G11249   4.760   3.213  13.426 -0.3445 -0.4626  2.8037
   8423SM  C10F11250   4.671   3.063  13.559  0.4964  0.0155 -0.5076
   8423SM  H10F11251   4.760   2.998  13.573  1.4406  1.1963 -0.8154
   8423SM  H10G11252   4.586   2.992  13.563  0.8007 -0.3270 -0.0282
   8423SM  C11F11253   4.662   3.149  13.686  0.6288  0.5052  0.4125
   8423SM  H11F11254   4.561   3.194  13.694 -0.3442 -1.7204  1.4122
   8423SM  H11G11255   4.730   3.237  13.685  1.2648  0.0192  0.0895
   8423SM  C12F11256   4.696   3.074  13.816 -0.2224  0.2226  0.2664
   8423SM  H12F11257   4.804   3.051  13.814 -0.0144  0.8262  2.1504
   8423SM  H12G11258   4.636   2.980  13.818  0.1814 -0.0295  2.0933
   8423SM  C13F11259   4.647   3.150  13.932  0.0996 -0.0779  0.1804
   8423SM  H13F11260   4.540   3.178  13.940  0.1854 -0.2892  3.8038
   8423SM  H13G11261   4.696   3.250  13.936 -0.3514  0.1508 -0.0045
   8423SM  C14F11262   4.686   3.075  14.064  0.1138  0.1625 -0.0115
   8423SM  H14F11263   4.791   3.039  14.063  0.9158  2.2824 -2.5073
   8423SM  H14G11264   4.619   2.988  14.078  1.3502 -0.3883  3.8311
   8423SM  C15F11265   4.655   3.159  14.185  0.1696 -0.0326  0.3280
   8423SM  H15F11266   4.546   3.180  14.184 -0.2162 -1.7221  1.7293
   8423SM  H15G11267   4.700   3.259  14.174 -0.2078  0.0788 -0.2705
   8423SM  C16F11268   4.689   3.097  14.316 -0.1139 -0.2185  0.0256
   8423SM  H16F11269   4.649   2.994  14.320  3.0130 -1.5855 -0.8658
   8423SM  H16G11270   4.656   3.169  14.394 -2.1437  0.9384 -1.7730
   8423SM  C17F11271   4.848   3.093  14.336 -0.2868  0.5939 -0.5667
   8423SM  H17F11272   4.867   3.186  14.394 -1.8164 -0.7479  2.3136
   8423SM  H17G11273   4.908   3.103  14.243 -0.5624  0.8804 -0.7157
   8423SM  C18F11274   4.909   2.974  14.421  0.2100  0.4236 -0.2348
   8423SM  H18F11275   5.020   2.978  14.423  0.1750  1.6123 -0.0520
   8423SM  H18G11276   4.876   2.883  14.367  0.5048  1.2736 -1.8923
   8423SM  C19F11277   4.847   2.960  14.560 -0.6862 -0.0648 -0.4262
   8423SM  H19F11278   4.860   2.854  14.590 -0.6276  0.1964  0.5217
   8423SM  H19G11279   4.737   2.974  14.555 -0.9844 -0.9518  2.1317
   8423SM  C20F11280   4.920   3.056  14.650  0.4007  0.4489  0.1492
   8423SM  H20F11281   4.889   3.154  14.609  0.0431  0.4874  0.4977
   8423SM  H20G11282   5.031   3.055  14.645  0.4261  2.3296 -0.1342
   8423SM  C21F11283   4.880   3.041  14.802  0.9331  0.2080 -0.0474
   8423SM  H21F11284   4.912   2.941  14.838  0.4770 -0.0783 -0.4180
   8423SM  H21G11285   4.769   3.031  14.801  0.7431  1.6854  1.3791
   8423SM  C22F11286   4.935   3.160  14.879  0.0154  0.5997 -0.0467
   8423SM  H22F11287   4.887   3.253  14.841  1.5580  0.9048 -1.3163
   8423SM  H22G11288   5.042   3.169  14.851  0.3531  0.5139  1.1639
   8423SM  C23F11289   4.940   3.145  15.036  0.1352 -0.6909  0.5331
   8423SM  H23F11290   4.834   3.149  15.069  0.4921  1.7131  1.5760
   8423SM  H23G11291   5.012   3.219  15.076  0.4059 -1.2801  1.1583
   8423SM  H23H11292   4.976   3.042  15.056 -1.4069 -0.9036  2.4813
   8523SM     N11293   5.138   4.165  11.788  0.1292  0.2198 -0.4475
   8523SM   C1511294   4.986   4.146  11.780  0.0685 -0.1077 -0.5889
   8523SM  H15A11295   4.957   4.071  11.708 -1.9470 -0.0055  0.0619
   8523SM  H15B11296   4.929   4.233  11.754  0.4344  0.0869 -0.7487
   8523SM  H15C11297   4.955   4.103  11.874  0.3444 -0.6474 -0.7381
   8523SM   C1411298   5.196   4.027  11.812 -0.3434 -0.5284  0.5233
   8523SM  H14A11299   5.150   3.955  11.745 -1.0977 -0.5752  1.0774
   8523SM  H14B11300   5.197   3.985  11.912  3.0731 -0.5118  0.5997
   8523SM  H14C11301   5.302   4.035  11.794 -0.4192 -0.9310 -0.1587
   8523SM   C1311302   5.194   4.211  11.656 -0.0092 -0.7418 -0.2151
   8523SM  H13A11303   5.135   4.293  11.619  0.4189 -0.4062 -0.1577
   8523SM  H13B11304   5.187   4.138  11.576  1.6223  0.4281 -1.4774
   8523SM  H13C11305   5.297   4.239  11.666  0.3508 -2.5908  1.9810
   8523SM   C1211306   5.171   4.257  11.901 -0.3635 -0.8797 -0.1674
   8523SM  H12A11307   5.110   4.218  11.981 -0.4821 -0.0923  0.1293
   8523SM  H12B11308   5.127   4.353  11.879  1.0081  0.2069  1.5050
   8523SM   C1111309   5.322   4.277  11.939  0.3577 -0.9007  0.4120
   8523SM  H11A11310   5.365   4.177  11.964  0.9976 -0.3202  1.6965
   8523SM  H11B11311   5.320   4.330  12.036  0.4377  3.0353 -1.5609
   8523SM     P11312   5.504   4.449  11.881 -0.2338 -0.2201  0.0253
   8523SM   O1311313   5.616   4.455  11.777  0.3660  0.0830  0.3626
   8523SM   O1411314   5.440   4.581  11.906 -0.0267 -0.0697 -0.3000
   8523SM   O1111315   5.569   4.378  12.009 -0.5710  0.8774 -0.7946
   8523SM   O1211316   5.401   4.339  11.836 -0.1986 -0.9689 -1.1947
   8523SM   C1S11317   5.712   4.399  12.024 -0.7977 -0.3805  0.9042
   8523SM   H1S11318   5.745   4.500  11.989  2.7969 -1.6596  0.1171
   8523SM   H1T11319   5.768   4.326  11.962  2.1434  1.2334  1.4356
   8523SM    NF11320   5.895   4.427  12.200 -0.0984  0.6432 -0.0250
   8523SM   HNF11321   5.966   4.357  12.207  0.0921  0.9315  1.0530
   8523SM   C2S11322   5.759   4.380  12.169 -0.0380 -0.1439  0.1084
   8523SM   H2S11323   5.694   4.433  12.242  2.0331 -1.9461  3.5998
   8523SM   C3S11324   5.742   4.229  12.204  0.5991 -0.0174 -0.1685
   8523SM   H3S11325   5.830   4.183  12.154  1.1694 -1.1801  1.7849
   8523SM    O311326   5.619   4.172  12.163 -0.6597 -0.1508 -0.4414
   8523SM   HO311327   5.601   4.227  12.086 -0.4598  2.2078  1.1266
   8523SM   C4S11328   5.754   4.196  12.351 -0.9052  0.0577 -0.0139
   8523SM   H4S11329   5.852   4.157  12.383 -0.1571  1.3748 -0.6270
   8523SM   C5S11330   5.664   4.212  12.453 -0.0978  1.0112 -0.3531
   8523SM   H5S11331   5.560   4.242  12.435 -0.4186  1.8249  2.3770
   8523SM   C6S11332   5.705   4.192  12.597  0.5836 -0.0758  0.1506
   8523SM   H6S11333   5.625   4.137  12.651 -0.6127  0.3533 -1.1176
   8523SM   H6T11334   5.724   4.295  12.633  3.5720  0.7275 -3.1205
   8523SM   C7S11335   5.838   4.128  12.642  0.2346 -0.3984  0.2511
   8523SM   H7S11336   5.916   4.166  12.573 -0.3733  0.8830  0.2620
   8523SM   H7T11337   5.826   4.017  12.637 -3.2085 -0.2389  2.0252
   8523SM   C8S11338   5.875   4.179  12.785 -0.2875  0.1914 -0.1757
   8523SM   H8S11339   5.893   4.288  12.780  1.2270 -0.0864 -1.9695
   8523SM   H8T11340   5.970   4.124  12.806 -0.5272 -0.2769 -0.3019
   8523SM   C9S11341   5.775   4.134  12.891  0.3476 -0.4457 -1.2605
   8523SM   H9S11342   5.765   4.024  12.887 -0.9939 -0.3326 -1.6326
   8523SM   H9T11343   5.669   4.162  12.874 -0.3589 -2.0268  0.2814
   8523SM  C10S11344   5.802   4.190  13.035  0.4414 -0.2859 -0.1609
   8523SM  H10S11345   5.768   4.296  13.033 -1.8730 -0.9186  1.3755
   8523SM  H10T11346   5.911   4.186  13.056  0.5406  0.1187 -0.5790
   8523SM  C11S11347   5.726   4.122  13.154 -0.6624 -0.3585  0.8496
   8523SM  H11S11348   5.761   4.018  13.168 -0.6948 -0.4757  0.0979
   8523SM  H11T11349   5.618   4.129  13.129 -1.4061 -1.6188  3.3779
   8523SM  C12S11350   5.742   4.198  13.284  0.0912  0.3042  0.1845
   8523SM  H12S11351   5.717   4.304  13.262 -1.2549 -0.3810 -1.8975
   8523SM  H12T11352   5.849   4.198  13.315  0.2493  0.6999 -0.3499
   8523SM  C13S11353   5.669   4.134  13.399 -0.1777 -0.2676  0.5787
   8523SM  H13S11354   5.689   4.026  13.389 -0.3234 -0.2188 -0.3947
   8523SM  H13T11355   5.559   4.149  13.394 -0.0939  0.8484  1.5698
   8523SM  C14S11356   5.704   4.194  13.538 -0.0024 -0.2674 -0.8995
   8523SM  H14S11357   5.694   4.305  13.540 -0.0109 -0.2770 -0.4317
   8523SM  H14T11358   5.811   4.173  13.560  0.0256  1.8615  1.4091
   8523SM  C15S11359   5.624   4.134  13.656  0.3421 -0.0276  0.2311
   8523SM  H15S11360   5.657   4.028  13.654  0.3351 -0.0199 -0.3180
   8523SM  H15T11361   5.516   4.145  13.632  0.1458  0.2933  1.1897
   8523SM  C16S11362   5.664   4.190  13.796 -0.3069 -0.0845 -0.3489
   8523SM  H16S11363   5.677   4.300  13.786  0.0196 -0.2455 -2.1860
   8523SM  H16T11364   5.764   4.148  13.824 -0.7761 -0.5347  0.6959
   8523SM  C17S11365   5.563   4.171  13.905 -0.1357  0.2450 -0.0859
   8523SM  H17S11366   5.544   4.062  13.916  2.5891 -0.3081 -0.1112
   8523SM  H17T11367   5.470   4.220  13.867  1.1147  2.6687 -0.2430
   8523SM  C18S11368   5.610   4.232  14.039  0.4367 -0.9283  0.2589
   8523SM  H18S11369   5.701   4.189  14.085  1.1258  2.2050  2.1307
   8523SM  H18T11370   5.527   4.226  14.112  1.1921 -3.3224  1.0141
   8523SM  H18U11371   5.621   4.342  14.025  0.7610 -0.6114  2.6665
   8523SM   C1F11372   5.937   4.559  12.190 -0.3983  0.0924  0.7423
   8523SM    OF11373   5.868   4.653  12.146  0.5006  0.3982  0.1561
   8523SM   C2F11374   6.081   4.581  12.226  0.7236  0.0102  0.2243
   8523SM   H2F11375   6.156   4.568  12.144  0.0988  0.0307 -0.3569
   8523SM   H2G11376   6.092   4.499  12.300 -1.2255 -1.4890 -1.0855
   8523SM   C3F11377   6.120   4.712  12.292  0.0297 -0.5423 -0.1242
   8523SM   H3F11378   6.111   4.802  12.228 -0.4139  0.6002  1.4817
   8523SM   H3G11379   6.227   4.692  12.317 -0.2711 -2.8668 -0.4737
   8523SM   C4F11380   6.062   4.750  12.429  0.8845  0.5314  0.2546
   8523SM   H4F11381   5.958   4.782  12.404  0.6935 -0.5167 -0.3622
   8523SM   H4G11382   6.116   4.838  12.470  1.5201 -0.5733  1.8544
   8523SM   C5F11383   6.052   4.630  12.532  0.4137 -0.1703  0.9164
   8523SM   H5F11384   6.146   4.571  12.524 -0.6482 -1.6736 -1.3964
   8523SM   H5G11385   5.973   4.560  12.497  0.7527  1.0727 -2.7361
   8523SM   C6F11386   6.015   4.681  12.673 -0.5108  0.0563 -0.4228
   8523SM   H6F11387   5.904   4.678  12.679 -0.8919 -2.1125 -4.6192
   8523SM   H6G11388   6.050   4.787  12.677 -1.6768  0.4241  0.7378
   8523SM   C7F11389   6.091   4.603  12.781  0.6563 -0.1332 -0.4144
   8523SM   H7F11390   6.194   4.643  12.794  1.3004 -1.2525 -1.8763
   8523SM   H7G11391   6.097   4.495  12.755 -0.7525 -0.0553 -1.1296
   8523SM   C8F11392   6.012   4.619  12.914 -0.5063  0.4501  0.5667
   8523SM   H8F11393   5.913   4.571  12.903 -0.1058 -0.1004 -0.7781
   8523SM   H8G11394   5.993   4.726  12.938  3.0546  1.0878  1.1126
   8523SM   C9F11395   6.089   4.560  13.034  0.0850  0.0891  0.2526
   8523SM   H9F11396   6.174   4.626  13.058  0.0424  0.7559 -1.3059
   8523SM   H9G11397   6.130   4.458  13.016 -2.6536 -1.1046  0.3003
   8523SM  C10F11398   6.000   4.546  13.161 -0.0435  0.3785 -0.2564
   8523SM  H10F11399   5.904   4.495  13.136  1.1874 -2.2472  0.0020
   8523SM  H10G11400   5.980   4.648  13.200  3.0122  1.8577 -2.1871
   8523SM  C11F11401   6.068   4.474  13.282 -0.5476 -0.3058  0.4733
   8523SM  H11F11402   6.162   4.523  13.316  1.1254 -3.4734  0.8130
   8523SM  H11G11403   6.099   4.373  13.248  0.7690  0.1857  0.1580
   8523SM  C12F11404   5.981   4.480  13.403  0.2453 -0.3608  0.4393
   8523SM  H12F11405   5.896   4.412  13.382  0.2463 -0.1266 -0.3698
   8523SM  H12G11406   5.945   4.584  13.415  3.0418  0.6020  1.2111
   8523SM  C13F11407   6.062   4.445  13.528  0.3641 -0.1119  0.1892
   8523SM  H13F11408   6.160   4.497  13.529 -0.2483  1.2519  3.4307
   8523SM  H13G11409   6.083   4.336  13.517  1.2875  0.1116 -0.3341
   8523SM  C14F11410   5.969   4.463  13.648  0.3302  0.1946 -0.3729
   8523SM  H14F11411   5.872   4.413  13.630  1.2459 -2.8448  2.1822
   8523SM  H14G11412   5.959   4.572  13.671  3.2269  0.0170  2.3736
   8523SM  C15F11413   6.022   4.398  13.780 -0.0798 -0.3512 -0.5783
   8523SM  H15F11414   6.122   4.437  13.810  0.3204 -1.5838 -0.2544
   8523SM  H15G11415   6.026   4.291  13.749  2.6058 -0.6524  0.4743
   8523SM  C16F11416   5.928   4.417  13.906 -0.3423  0.2012 -0.7752
   8523SM  H16F11417   5.953   4.351  13.992  0.9258 -0.1607 -1.3936
   8523SM  H16G11418   5.825   4.380  13.889  0.4656 -2.0967 -0.9781
   8523SM  C17F11419   5.922   4.569  13.951 -0.6144  0.7860  0.3858
   8523SM  H17F11420   5.881   4.637  13.873  3.2031  1.5589 -1.1579
   8523SM  H17G11421   6.029   4.600  13.960 -0.5399  0.6253  0.0560
   8523SM  C18F11422   5.849   4.598  14.090 -0.0896 -0.6371  0.6128
   8523SM  H18F11423   5.763   4.528  14.087 -0.1261 -0.5821 -1.2880
   8523SM  H18G11424   5.806   4.700  14.079 -1.1915 -1.1948 -0.5456
   8523SM  C19F11425   5.938   4.588  14.208 -0.0007 -0.4513 -0.2369
   8523SM  H19F11426   6.000   4.680  14.205  0.5303 -0.7834  0.4142
   8523SM  H19G11427   5.998   4.495  14.206 -0.8205 -0.9983  0.1173
   8523SM  C20F11428   5.881   4.591  14.352  0.2183 -0.2843 -0.3398
   8523SM  H20F11429   5.829   4.688  14.368  0.1183 -0.2059 -1.1401
   8523SM  H20G11430   5.965   4.588  14.426  0.6489 -1.6975 -0.8534
   8523SM  C21F11431   5.770   4.492  14.385 -0.3526 -0.1873  0.6696
   8523SM  H21F11432   5.687   4.495  14.311 -1.9897  1.0644  2.4431
   8523SM  H21G11433   5.726   4.521  14.483  0.9981 -0.5855  1.4095
   8523SM  C22F11434   5.814   4.344  14.395 -0.2394  0.6319  0.0581
   8523SM  H22F11435   5.818   4.299  14.294  0.4487  1.9221 -0.5031
   8523SM  H22G11436   5.726   4.286  14.428 -0.3661  0.4330 -0.6169
   8523SM  C23F11437   5.941   4.317  14.481 -0.0394 -0.2086  0.4965
   8523SM  H23F11438   5.974   4.214  14.458  1.5697  0.5111 -0.5853
   8523SM  H23G11439   5.911   4.319  14.588 -0.5197 -2.7602  0.4567
   8523SM  H23H11440   6.029   4.382  14.462  1.2460 -2.2206 -0.6482
   8623SM     N11441   4.718   2.749  12.078 -0.2554 -0.1099 -0.4655
   8623SM   C1511442   4.856   2.722  12.131  0.3019 -0.1503 -0.1205
   8623SM  H15A11443   4.926   2.687  12.057 -1.5118  0.5285 -2.2834
   8623SM  H15B11444   4.851   2.640  12.201  1.1711 -0.3637 -0.3011
   8623SM  H15C11445   4.898   2.805  12.186  0.9685 -0.3225 -0.3632
   8623SM   C1411446   4.626   2.801  12.178  0.2600 -0.0462  0.6158
   8623SM  H14A11447   4.529   2.803  12.133  1.6378  0.8785 -2.5961
   8623SM  H14B11448   4.646   2.903  12.208 -0.3360  0.2922 -0.1180
   8623SM  H14C11449   4.616   2.735  12.263  0.3224 -3.9088 -2.1434
   8623SM   C1311450   4.728   2.844  11.964 -0.6134 -0.1374 -0.1019
   8623SM  H13A11451   4.634   2.846  11.913 -1.4622 -1.6830  1.2765
   8623SM  H13B11452   4.805   2.822  11.892  1.1580 -0.6006  1.8143
   8623SM  H13C11453   4.758   2.945  11.988  0.2670 -0.4943  0.3791
   8623SM   C1211454   4.667   2.615  12.034  0.4489  0.4214  0.7367
   8623SM  H12A11455   4.660   2.546  12.117 -0.0200  0.3117  0.6084
   8623SM  H12B11456   4.733   2.572  11.961 -1.2301 -0.1175 -0.5298
   8623SM   C1111457   4.526   2.614  11.969 -0.1320 -0.1490 -0.3096
   8623SM  H11A11458   4.501   2.511  11.939 -0.9822 -0.4875  1.4499
   8623SM  H11B11459   4.520   2.664  11.870 -0.0023 -1.6321 -1.0960
   8623SM     P11460   4.293   2.597  12.105 -0.5330 -0.0596  0.1911
   8623SM   O1311461   4.208   2.695  12.168  0.6237 -0.0968 -0.4208
   8623SM   O1411462   4.235   2.536  11.986 -0.2504 -0.0606 -0.4309
   8623SM   O1111463   4.328   2.488  12.210 -0.0961 -0.6154 -0.3695
   8623SM   O1211464   4.425   2.662  12.059  0.0312 -0.0130  0.3638
   8623SM   C1S11465   4.435   2.507  12.305 -0.5451  0.9099 -0.2540
   8623SM   H1S11466   4.435   2.607  12.353 -1.4021 -0.3146  2.5048
   8623SM   H1T11467   4.529   2.481  12.253  0.3473  3.0744  0.1643
   8623SM    NF11468   4.491   2.446  12.550  0.0480 -0.4229 -0.6477
   8623SM   HNF11469   4.572   2.401  12.587  1.2673  2.7215  0.7973
   8623SM   C2S11470   4.425   2.401  12.431 -0.0431 -0.2956 -0.7515
   8623SM   H2S11471   4.315   2.395  12.446 -0.2430  2.9045 -0.2218
   8623SM   C3S11472   4.462   2.262  12.383  0.5220  0.7988  0.4419
   8623SM   H3S11473   4.570   2.277  12.362  0.5241  4.2974  2.1117
   8623SM    O311474   4.391   2.225  12.268  0.5283  0.5864  0.0273
   8623SM   HO311475   4.350   2.308  12.245 -1.3364 -0.3752 -0.3570
   8623SM   C4S11476   4.432   2.162  12.487 -0.5883  0.1555  0.9047
   8623SM   H4S11477   4.328   2.138  12.514 -0.2287 -2.6496  0.0760
   8623SM   C5S11478   4.523   2.074  12.527 -0.2009 -0.9862 -0.3369
   8623SM   H5S11479   4.623   2.075  12.480 -0.4382  0.9271 -0.8902
   8623SM   C6S11480   4.500   1.955  12.613 -0.4594 -0.2307 -0.3709
   8623SM   H6S11481   4.512   1.853  12.570  0.2069 -1.8791  3.2929
   8623SM   H6T11482   4.393   1.953  12.644 -0.3707 -0.8119 -0.0743
   8623SM   C7S11483   4.599   1.962  12.730  0.1927  0.3956 -0.3439
   8623SM   H7S11484   4.694   1.992  12.682 -0.1728 -1.5132 -2.4038
   8623SM   H7T11485   4.600   1.869  12.792  1.7271  1.2503  1.0016
   8623SM   C8S11486   4.553   2.076  12.825 -0.3090 -0.0018 -0.0501
   8623SM   H8S11487   4.449   2.052  12.856 -0.6712 -0.5128 -1.5788
   8623SM   H8T11488   4.560   2.167  12.762 -3.4221  0.9228  0.7622
   8623SM   C9S11489   4.637   2.087  12.954 -0.2167  0.8721  0.0299
   8623SM   H9S11490   4.648   2.194  12.982 -1.8502  1.2918 -0.8652
   8623SM   H9T11491   4.736   2.044  12.927 -1.4811 -0.9804 -1.9803
   8623SM  C10S11492   4.581   1.996  13.071  0.6877 -0.3300  0.1397
   8623SM  H10S11493   4.564   1.894  13.031 -0.5738  0.0897 -0.4399
   8623SM  H10T11494   4.484   2.035  13.110 -0.7641 -1.6400 -1.9699
   8623SM  C11S11495   4.671   1.997  13.199  0.0058 -0.0019  0.4688
   8623SM  H11S11496   4.698   2.100  13.230  1.6995 -0.3246  0.1419
   8623SM  H11T11497   4.761   1.935  13.180 -0.2888 -0.2673 -0.0952
   8623SM  C12S11498   4.598   1.937  13.319 -0.0056  0.6488  0.4862
   8623SM  H12S11499   4.589   1.827  13.311  0.5415  0.4991  1.6651
   8623SM  H12T11500   4.494   1.977  13.317 -0.2782 -0.0712 -1.8889
   8623SM  C13S11501   4.664   1.966  13.458  0.5592 -0.5044 -0.6145
   8623SM  H13S11502   4.672   2.076  13.471  0.1275 -0.5700  0.3088
   8623SM  H13T11503   4.764   1.918  13.462  0.2998 -1.2406 -2.2063
   8623SM  C14S11504   4.588   1.907  13.568 -0.2751 -0.1951 -0.2149
   8623SM  H14S11505   4.560   1.801  13.549 -1.4163 -0.2085  1.3401
   8623SM  H14T11506   4.487   1.951  13.578 -0.6913 -0.5779 -2.2383
   8623SM  C15S11507   4.651   1.907  13.707 -0.7797 -0.0455  0.1003
   8623SM  H15S11508   4.676   2.011  13.737  0.3196 -0.3785  0.3705
   8623SM  H15T11509   4.740   1.841  13.705 -0.8687 -0.1684 -1.3379
   8623SM  C16S11510   4.552   1.846  13.805  0.0468 -0.2930 -0.6496
   8623SM  H16S11511   4.515   1.753  13.757 -0.0034  0.1053 -1.4073
   8623SM  H16T11512   4.466   1.913  13.825  0.8633  0.5124  0.2498
   8623SM  C17S11513   4.605   1.813  13.950 -0.0020  0.1640  0.0824
   8623SM  H17S11514   4.655   1.714  13.950 -1.0206 -0.3891  2.0227
   8623SM  H17T11515   4.512   1.801  14.010 -0.3638 -1.3633 -0.7605
   8623SM  C18S11516   4.701   1.919  14.012  0.5788  0.2874 -0.6121
   8623SM  H18S11517   4.790   1.920  13.945  1.0719 -0.9550 -0.0197
   8623SM  H18T11518   4.729   1.893  14.116 -1.5105 -1.2852 -0.3788
   8623SM  H18U11519   4.647   2.012  14.039  0.9237  0.2594  0.1877
   8623SM   C1F11520   4.447   2.560  12.609 -0.3758  0.0230  0.2006
   8623SM    OF11521   4.342   2.616  12.579  0.5667  0.0519  0.1211
   8623SM   C2F11522   4.537   2.639  12.706  0.4552 -0.3935  0.1739
   8623SM   H2F11523   4.488   2.736  12.728  0.3872 -0.9061  2.5450
   8623SM   H2G11524   4.642   2.648  12.670  0.1150 -1.1928 -1.1132
   8623SM   C3F11525   4.525   2.575  12.841  0.4135 -0.0287  0.1527
   8623SM   H3F11526   4.589   2.485  12.838 -1.3405 -1.4247  1.7214
   8623SM   H3G11527   4.420   2.550  12.868  0.5503 -0.1451  0.5931
   8623SM   C4F11528   4.579   2.657  12.960 -0.8730 -0.1711  0.1386
   8623SM   H4F11529   4.524   2.753  12.973  1.6161  1.1926  1.2837
   8623SM   H4G11530   4.685   2.680  12.937 -1.2245  1.0407 -0.3785
   8623SM   C5F11531   4.570   2.577  13.097  0.2271  0.1518 -0.0888
   8623SM   H5F11532   4.639   2.491  13.084  0.6614  0.4994 -0.1032
   8623SM   H5G11533   4.463   2.553  13.116 -0.2628  0.9683 -1.6445
   8623SM   C6F11534   4.624   2.664  13.213  0.5751  0.1744 -0.2684
   8623SM   H6F11535   4.574   2.762  13.208 -1.4005 -0.6475  1.7050
   8623SM   H6G11536   4.731   2.687  13.196 -0.2639  3.5517 -1.6369
   8623SM   C7F11537   4.619   2.589  13.345 -0.0001  0.0562 -0.0831
   8623SM   H7F11538   4.657   2.487  13.325 -0.6142  0.0515 -1.3514
   8623SM   H7G11539   4.518   2.579  13.389  0.7395 -1.1362  1.4266
   8623SM   C8F11540   4.715   2.654  13.457  0.5887  0.1730  0.0341
   8623SM   H8F11541   4.700   2.763  13.464  0.3141  0.1677 -0.4016
   8623SM   H8G11542   4.820   2.634  13.429  0.7068  1.2199 -0.2999
   8623SM   C9F11543   4.682   2.598  13.591 -0.3909  0.6883 -0.7656
   8623SM   H9F11544   4.697   2.488  13.592  2.9994  1.0078  1.4935
   8623SM   H9G11545   4.577   2.617  13.619  0.7985  1.1751  4.1355
   8623SM  C10F11546   4.761   2.669  13.703 -0.0108  0.3738  0.2040
   8623SM  H10F11547   4.741   2.778  13.709  3.5291  1.2600 -1.2322
   8623SM  H10G11548   4.870   2.660  13.681 -0.0032 -0.3510  0.4912
   8623SM  C11F11549   4.707   2.599  13.828 -0.2850  0.0514  0.0866
   8623SM  H11F11550   4.733   2.491  13.823  1.2580  0.3621 -5.4870
   8623SM  H11G11551   4.596   2.606  13.834 -0.2656 -0.7488  2.1049
   8623SM  C12F11552   4.764   2.669  13.955  0.1109 -0.2346  0.1344
   8623SM  H12F11553   4.762   2.780  13.954  0.6114 -0.1311  2.9014
   8623SM  H12G11554   4.872   2.642  13.949 -0.0192 -0.4155 -2.5444
   8623SM  C13F11555   4.687   2.625  14.088 -0.2517  0.5070  0.1201
   8623SM  H13F11556   4.691   2.514  14.096 -2.8067  0.4614  2.0226
   8623SM  H13G11557   4.583   2.654  14.062 -0.1365  0.1591 -0.7830
   8623SM  C14F11558   4.736   2.698  14.220  0.5008 -0.5990 -0.1586
   8623SM  H14F11559   4.739   2.808  14.206  1.1954 -0.7721 -1.5354
   8623SM  H14G11560   4.843   2.682  14.246  0.1303 -2.6468  0.2475
   8623SM  C15F11561   4.649   2.666  14.342  0.2801  0.4374  0.2448
   8623SM  H15F11562   4.564   2.606  14.302  1.1983 -0.7179 -0.0328
   8623SM  H15G11563   4.599   2.753  14.388 -0.2738 -0.3640  1.1921
   8623SM  C16F11564   4.720   2.584  14.451 -0.2226  0.1445 -0.5093
   8623SM  H16F11565   4.803   2.644  14.493 -0.8621  0.1995  0.7386
   8623SM  H16G11566   4.770   2.496  14.406 -1.1537  0.1166 -1.5299
   8623SM  C17F11567   4.637   2.528  14.565  0.2233 -0.1982  0.1484
   8623SM  H17F11568   4.551   2.462  14.540 -0.7551  0.8397  0.6554
   8623SM  H17G11569   4.584   2.610  14.619 -0.4399 -1.4685  1.5059
   8623SM  C18F11570   4.721   2.446  14.670 -0.4939 -0.4079  0.0004
   8623SM  H18F11571   4.655   2.437  14.759  0.6377 -1.3056  0.7897
   8623SM  H18G11572   4.810   2.506  14.701 -1.2737  0.1886  1.1446
   8623SM  C19F11573   4.740   2.290  14.629  0.8114 -0.3029  0.1557
   8623SM  H19F11574   4.790   2.280  14.530  2.0968  0.9969  0.6360
   8623SM  H19G11575   4.638   2.246  14.630 -0.1179  1.5094 -2.7138
   8623SM  C20F11576   4.801   2.204  14.735  0.5754  0.5861  0.2318
   8623SM  H20F11577   4.746   2.202  14.832  2.3747 -2.5333  1.3174
   8623SM  H20G11578   4.904   2.238  14.757 -0.1086  0.8385  3.7051
   8623SM  C21F11579   4.813   2.052  14.693 -0.8723  0.1056 -0.2025
   8623SM  H21F11580   4.891   2.008  14.758  0.2403  0.5530 -1.1908
   8623SM  H21G11581   4.827   2.052  14.583  0.3406 -0.6250 -0.0751
   8623SM  C22F11582   4.678   1.984  14.713  0.0850 -0.0192 -0.3736
   8623SM  H22F11583   4.592   2.053  14.722  0.0701  0.0899 -1.3211
   8623SM  H22G11584   4.682   1.939  14.815 -0.0196 -0.8094 -0.7134
   8623SM  C23F11585   4.650   1.877  14.609  0.7734  0.2409  0.4698
   8623SM  H23F11586   4.617   1.913  14.509 -2.6814 -0.1697  1.3284
   8623SM  H23G11587   4.576   1.804  14.648  1.9718 -0.1435  2.1055
   8623SM  H23H11588   4.737   1.811  14.591  0.5634  0.0061  0.2944
   8723SM     N11589   5.180   2.485  11.572  0.2727 -0.2733  0.5196
   8723SM   C1511590   5.110   2.619  11.566 -0.0067 -0.3573 -0.0113
   8723SM  H15A11591   5.125   2.677  11.656 -1.5283 -0.1008  0.1111
   8723SM  H15B11592   5.005   2.604  11.542  0.1398 -1.1091 -0.2102
   8723SM  H15C11593   5.159   2.680  11.491  2.7349 -0.8944  1.2182
   8723SM   C1411594   5.115   2.401  11.663  0.0392  0.1867  0.0387
   8723SM  H14A11595   5.127   2.444  11.761  1.1021  2.1344 -0.8903
   8723SM  H14B11596   5.158   2.302  11.662  0.2700  0.2886 -0.4217
   8723SM  H14C11597   5.011   2.398  11.634  0.0595 -1.1052  0.0498
   8723SM   C1311598   5.180   2.422  11.436 -0.0920 -0.5757  0.4277
   8723SM  H13A11599   5.222   2.481  11.356 -0.6281 -2.6654 -1.4970
   8723SM  H13B11600   5.081   2.402  11.397  0.7783 -0.4465 -1.9748
   8723SM  H13C11601   5.232   2.327  11.432 -1.5553 -1.4212  0.7045
   8723SM   C1211602   5.320   2.501  11.631  0.5188  0.3574 -0.3359
   8723SM  H12A11603   5.367   2.577  11.570  1.1738 -0.0499 -0.3491
   8723SM  H12B11604   5.367   2.403  11.632  0.6481  0.3502  2.5924
   8723SM   C1111605   5.347   2.546  11.774 -0.1751 -0.0341 -0.1485
   8723SM  H11A11606   5.458   2.551  11.778 -0.2277  0.6675  0.9552
   8723SM  H11B11607   5.299   2.467  11.837  2.0755 -3.0278 -1.9487
   8723SM     P11608   5.214   2.742  11.905  0.9689 -0.2078  0.2612
   8723SM   O1311609   5.182   2.877  11.858 -0.2198 -0.2239 -0.3102
   8723SM   O1411610   5.101   2.649  11.924  0.1051 -0.5833  0.1402
   8723SM   O1111611   5.284   2.752  12.047  0.1541 -0.2898  0.1841
   8723SM   O1211612   5.313   2.684  11.795  0.4007 -0.0861  0.2250
   8723SM   C1S11613   5.246   2.859  12.138  0.1297 -0.0315  0.2733
   8723SM   H1S11614   5.135   2.868  12.136 -0.0288 -1.6873 -2.0937
   8723SM   H1T11615   5.287   2.961  12.119  1.9485  0.0839  3.9253
   8723SM    NF11616   5.229   2.933  12.377  0.1852 -0.0443 -0.6237
   8723SM   HNF11617   5.285   3.008  12.411 -0.3616 -0.5265  1.5135
   8723SM   C2S11618   5.296   2.836  12.284 -0.7788  0.5000 -0.0020
   8723SM   H2S11619   5.255   2.734  12.303 -0.4387  0.0655 -1.4453
   8723SM   C3S11620   5.449   2.844  12.289  0.6838 -0.3492  0.3076
   8723SM   H3S11621   5.486   2.945  12.259  0.2202  0.3028  1.8666
   8723SM    O311622   5.508   2.753  12.195  0.2459 -0.5268  0.5385
   8723SM   HO311623   5.432   2.743  12.137 -0.7585  1.4254  1.4242
   8723SM   C4S11624   5.489   2.810  12.425 -0.2430  0.2698 -0.1545
   8723SM   H4S11625   5.453   2.708  12.448  0.3992 -0.1817 -1.1117
   8723SM   C5S11626   5.555   2.885  12.514 -0.2290 -0.1074  0.3608
   8723SM   H5S11627   5.596   2.983  12.486  0.3419 -1.2903 -3.3862
   8723SM   C6S11628   5.572   2.854  12.666 -0.5180 -0.0845  0.6122
   8723SM   H6S11629   5.671   2.871  12.712 -0.3023 -1.8767  0.8472
   8723SM   H6T11630   5.551   2.748  12.689 -1.0510 -0.2776 -0.6792
   8723SM   C7S11631   5.461   2.935  12.738  0.5045  1.0367  0.3162
   8723SM   H7S11632   5.369   2.929  12.676  2.4200  1.5213 -2.8494
   8723SM   H7T11633   5.478   3.045  12.732  2.1428  0.8234  0.4906
   8723SM   C8S11634   5.426   2.888  12.880  0.6324  0.4651 -0.1749
   8723SM   H8S11635   5.393   2.782  12.884  1.2216  0.3157  1.0807
   8723SM   H8T11636   5.338   2.939  12.925  0.7099  2.6778 -2.3140
   8723SM   C9S11637   5.537   2.908  12.986 -0.5261 -0.3413 -0.4614
   8723SM   H9S11638   5.578   3.011  12.985  0.5712 -0.7307  1.1592
   8723SM   H9T11639   5.613   2.832  12.958 -0.2877 -0.5920  0.7990
   8723SM  C10S11640   5.495   2.879  13.137 -0.4928 -0.4119 -0.5419
   8723SM  H10S11641   5.481   2.769  13.137  0.1108 -0.4983 -1.0195
   8723SM  H10T11642   5.396   2.927  13.153 -0.7882 -0.7509 -1.3168
   8723SM  C11S11643   5.589   2.927  13.249 -0.0461  0.6025  0.4039
   8723SM  H11S11644   5.585   3.037  13.242 -0.6903  0.5107 -0.8186
   8723SM  H11T11645   5.693   2.892  13.233  0.7650  2.7996  0.6545
   8723SM  C12S11646   5.538   2.890  13.395  0.4590  0.0114  0.0767
   8723SM  H12S11647   5.485   2.792  13.389 -2.4337  1.4993 -0.9428
   8723SM  H12T11648   5.463   2.968  13.423  0.3418 -0.9100  2.5202
   8723SM  C13S11649   5.649   2.884  13.502  0.2903  0.6895 -0.1514
   8723SM  H13S11650   5.728   2.961  13.486  3.2287 -1.6918  1.6300
   8723SM  H13T11651   5.711   2.791  13.498 -1.1119 -0.2417 -1.0254
   8723SM  C14S11652   5.582   2.892  13.645 -0.0458  0.5084 -0.9621
   8723SM  H14S11653   5.501   2.816  13.642  0.7950 -0.3990 -1.7103
   8723SM  H14T11654   5.539   2.993  13.656  0.4104  0.6594 -0.5106
   8723SM  C15S11655   5.676   2.860  13.763 -0.4807  0.2161 -0.2182
   8723SM  H15S11656   5.776   2.908  13.755  0.4770 -1.0326  2.7906
   8723SM  H15T11657   5.704   2.752  13.764 -2.0665 -0.2378  1.2645
   8723SM  C16S11658   5.601   2.895  13.893  0.1470 -0.3132  0.0060
   8723SM  H16S11659   5.509   2.835  13.907 -0.6134  1.4072  3.6024
   8723SM  H16T11660   5.567   3.000  13.909  0.3740 -0.4535  1.5309
   8723SM  C17S11661   5.691   2.873  14.019  0.3898 -0.4640 -0.5100
   8723SM  H17S11662   5.781   2.938  14.025 -0.7887  1.6017 -3.0913
   8723SM  H17T11663   5.723   2.768  14.001 -0.3123 -0.9069  0.6910
   8723SM  C18S11664   5.614   2.901  14.147 -0.0088  0.3498 -0.5166
   8723SM  H18S11665   5.574   3.005  14.137  0.7513  0.6571 -0.4057
   8723SM  H18T11666   5.676   2.896  14.239 -1.3915 -1.4508  0.3725
   8723SM  H18U11667   5.537   2.822  14.157  0.1008  0.0297 -1.9185
   8723SM   C1F11668   5.101   2.938  12.405 -0.1548 -0.7113  0.1902
   8723SM    OF11669   5.025   2.859  12.350  0.8512 -0.1247  0.0281
   8723SM   C2F11670   5.047   3.057  12.471 -0.1056 -0.2447 -0.4154
   8723SM   H2F11671   4.950   3.078  12.421  0.8691  0.5475 -2.0449
   8723SM   H2G11672   5.121   3.138  12.457 -0.3882  1.2366  4.6405
   8723SM   C3F11673   5.032   3.037  12.630  0.4126 -0.2886 -0.5225
   8723SM   H3F11674   5.114   2.977  12.675  0.6043  0.5840  0.3204
   8723SM   H3G11675   4.946   2.971  12.657  0.6154  0.5783  2.5777
   8723SM   C4F11676   5.043   3.170  12.698 -0.6924  0.3027  0.2475
   8723SM   H4F11677   4.958   3.235  12.668 -0.8853 -0.7502 -1.6492
   8723SM   H4G11678   5.131   3.220  12.651 -2.1894  1.0651 -1.8727
   8723SM   C5F11679   5.044   3.149  12.848 -0.4379 -0.4005 -0.1353
   8723SM   H5F11680   5.134   3.089  12.872 -0.9272 -0.9858  0.2908
   8723SM   H5G11681   4.949   3.096  12.873 -0.5622 -0.5470 -0.9045
   8723SM   C6F11682   5.052   3.271  12.946  0.1102  0.8857 -0.8671
   8723SM   H6F11683   4.951   3.317  12.936 -1.0565 -0.6478  2.2454
   8723SM   H6G11684   5.135   3.338  12.916 -0.1674  1.1208 -1.1114
   8723SM   C7F11685   5.079   3.232  13.091  0.4879 -0.3429 -0.2634
   8723SM   H7F11686   5.183   3.199  13.113  0.9925  1.4963  0.2462
   8723SM   H7G11687   5.008   3.160  13.138 -0.8913  1.4144  0.4723
   8723SM   C8F11688   5.055   3.350  13.183 -0.3109  0.0157 -0.6782
   8723SM   H8F11689   4.958   3.396  13.156 -0.6279 -1.1583 -1.6464
   8723SM   H8G11690   5.124   3.436  13.169 -2.0617  2.0420  2.0838
   8723SM   C9F11691   5.053   3.301  13.331 -0.1628  0.2964  0.2408
   8723SM   H9F11692   5.156   3.261  13.347  0.4944  2.9957  4.2792
   8723SM   H9G11693   4.982   3.217  13.347  2.2464 -1.6543  1.4382
   8723SM  C10F11694   5.034   3.407  13.446  0.5763  0.9452 -0.3089
   8723SM  H10F11695   4.941   3.462  13.421 -0.0525  0.0785  0.0814
   8723SM  H10G11696   5.115   3.483  13.443 -0.3750  2.0069  0.1921
   8723SM  C11F11697   5.007   3.348  13.585 -0.4096  0.2137  0.0657
   8723SM  H11F11698   5.086   3.273  13.607 -1.7906 -0.7567  2.0188
   8723SM  H11G11699   4.914   3.287  13.579  0.7285 -1.6465  0.5423
   8723SM  C12F11700   5.008   3.449  13.703  0.2684  0.3391  0.5959
   8723SM  H12F11701   4.932   3.528  13.688  0.8638  0.6314 -1.1020
   8723SM  H12G11702   5.112   3.486  13.705  1.4717 -2.3980 -2.4495
   8723SM  C13F11703   4.970   3.380  13.841  0.8883 -0.2032 -0.1762
   8723SM  H13F11704   5.044   3.300  13.865 -0.3195 -1.5814 -0.9208
   8723SM  H13G11705   4.867   3.339  13.831  1.1284 -0.7037 -0.7185
   8723SM  C14F11706   4.979   3.484  13.948 -0.6348 -0.0498 -0.5850
   8723SM  H14F11707   4.899   3.556  13.918 -1.1911 -0.6362 -0.5246
   8723SM  H14G11708   5.080   3.529  13.938 -0.1417 -1.1535 -0.6668
   8723SM  C15F11709   4.955   3.418  14.085  0.3240  0.3914 -0.2068
   8723SM  H15F11710   5.028   3.335  14.087 -1.1248 -0.9867 -1.5705
   8723SM  H15G11711   4.859   3.365  14.065 -1.5853  3.6871 -0.6058
   8723SM  C16F11712   4.942   3.515  14.195  0.5405 -0.7683  0.8681
   8723SM  H16F11713   4.859   3.585  14.173  0.4473 -1.1468 -0.0235
   8723SM  H16G11714   5.034   3.577  14.196  0.2884 -0.2668 -1.5767
   8723SM  C17F11715   4.918   3.449  14.332  0.4045 -0.2003  0.0389
   8723SM  H17F11716   5.005   3.385  14.356 -0.7913 -1.9577 -0.0926
   8723SM  H17G11717   4.827   3.385  14.320 -0.6176  1.4745 -1.7562
   8723SM  C18F11718   4.892   3.545  14.453 -0.1141  0.3636  0.7072
   8723SM  H18F11719   4.973   3.620  14.442 -0.5391  0.7853  0.3692
   8723SM  H18G11720   4.912   3.484  14.544  1.6777 -2.3941 -1.3910
   8723SM  C19F11721   4.757   3.617  14.462 -0.3101 -0.0055  0.5996
   8723SM  H19F11722   4.728   3.659  14.363  2.5743  1.6995  0.3614
   8723SM  H19G11723   4.766   3.711  14.521 -1.1009  0.1798  0.4427
   8723SM  C20F11724   4.653   3.524  14.530  0.3131 -0.0595  0.1671
   8723SM  H20F11725   4.706   3.492  14.623  1.1606  0.8959  0.0325
   8723SM  H20G11726   4.635   3.433  14.470  0.5270  0.0298 -0.0356
   8723SM  C21F11727   4.527   3.600  14.567  0.5091  0.1665  0.1391
   8723SM  H21F11728   4.498   3.634  14.465 -1.7518  0.4734  0.8194
   8723SM  H21G11729   4.555   3.686  14.631 -2.5839  0.5314  1.1874
   8723SM  C22F11730   4.414   3.515  14.634 -0.4603 -0.2234 -0.0663
   8723SM  H22F11731   4.324   3.580  14.639 -0.5535 -0.3985  0.7998
   8723SM  H22G11732   4.452   3.513  14.739 -1.6686  0.6756  0.4110
   8723SM  C23F11733   4.376   3.385  14.555 -0.0360 -0.4069 -0.1347
   8723SM  H23F11734   4.359   3.412  14.449  0.8350  0.4138 -0.0840
   8723SM  H23G11735   4.276   3.351  14.591 -0.2305  0.9420  0.7277
   8723SM  H23H11736   4.451   3.305  14.566 -0.1395 -0.8058 -1.9969
   8823SM     N11737   2.905   3.820  12.152 -0.3712  0.0117 -0.1748
   8823SM   C1511738   2.961   3.807  12.284  0.5201 -0.0235 -0.8411
   8823SM  H15A11739   2.986   3.904  12.325  0.1350  0.3578 -1.4984
   8823SM  H15B11740   3.055   3.755  12.278 -0.0276 -1.0917 -0.3154
   8823SM  H15C11741   2.895   3.754  12.351 -0.4798  1.5262 -0.5346
   8823SM   C1411742   2.987   3.926  12.084  0.5683 -1.1827  0.3831
   8823SM  H14A11743   2.988   4.012  12.148 -0.3620 -0.0179 -1.0988
   8823SM  H14B11744   2.938   3.950  11.991  0.3759  0.3494  0.8528
   8823SM  H14C11745   3.088   3.897  12.058  0.5270 -0.3459 -0.7695
   8823SM   C1311746   2.936   3.693  12.075 -0.4051 -0.7079 -0.3866
   8823SM  H13A11747   2.903   3.714  11.975  2.5359  1.0280 -1.1217
   8823SM  H13B11748   2.894   3.606  12.125  1.5365 -2.2416 -1.2773
   8823SM  H13C11749   3.042   3.670  12.070 -0.5816 -1.2995 -1.6210
   8823SM   C1211750   2.755   3.848  12.152 -0.4749  0.5704 -0.4524
   8823SM  H12A11751   2.743   3.943  12.202  0.0451  0.0437  0.7289
   8823SM  H12B11752   2.704   3.779  12.218  0.5350  0.5021  0.2920
   8823SM   C1111753   2.677   3.859  12.020  0.5758  0.3378  0.3814
   8823SM  H11A11754   2.661   3.756  11.979 -0.8951 -0.1098  1.9618
   8823SM  H11B11755   2.728   3.902  11.931 -0.2769 -2.6162 -1.7008
   8823SM     P11756   2.537   4.077  12.064 -0.1629  0.0783 -0.0092
   8823SM   O1311757   2.629   4.164  11.992 -0.1706  0.4771 -0.0604
   8823SM   O1411758   2.391   4.110  12.059 -0.1805  0.4848  1.0901
   8823SM   O1111759   2.581   4.092  12.214 -0.0324  0.4178 -0.2109
   8823SM   O1211760   2.553   3.921  12.037  0.1838 -0.0875  0.3278
   8823SM   C1S11761   2.528   4.002  12.315  0.3472  0.3776 -0.3419
   8823SM   H1S11762   2.523   3.900  12.271 -0.8452  0.2822 -0.0110
   8823SM   H1T11763   2.425   4.032  12.342  0.6969  1.1503  0.1591
   8823SM    NF11764   2.546   3.898  12.537  0.5556 -0.6142 -0.1420
   8823SM   HNF11765   2.473   3.934  12.594 -0.3032 -0.1346 -1.4961
   8823SM   C2S11766   2.603   4.006  12.456  0.0610  0.8138  0.2675
   8823SM   H2S11767   2.711   3.979  12.445  0.3062 -0.1811  3.7089
   8823SM   C3S11768   2.591   4.143  12.517 -0.6608  0.3105  0.4695
   8823SM   H3S11769   2.483   4.164  12.533 -0.5854  2.0554 -0.9629
   8823SM    O311770   2.632   4.244  12.429  0.0762 -0.2821  0.7014
   8823SM   HO311771   2.643   4.208  12.341  0.0063  1.1429  0.0877
   8823SM   C4S11772   2.660   4.155  12.648 -0.5053 -0.7151 -0.3531
   8823SM   H4S11773   2.764   4.119  12.649  0.4593  1.9033 -0.0777
   8823SM   C5S11774   2.598   4.186  12.767 -0.0256  0.3382  0.4385
   8823SM   H5S11775   2.493   4.218  12.767  0.0190  0.4853  0.4486
   8823SM   C6S11776   2.665   4.199  12.898  0.2170 -0.1113 -0.1707
   8823SM   H6S11777   2.660   4.307  12.923 -0.7245 -0.4497  1.1902
   8823SM   H6T11778   2.770   4.163  12.891  0.3442 -0.4019  2.2911
   8823SM   C7S11779   2.601   4.127  13.016  0.3534 -0.1976 -0.1398
   8823SM   H7S11780   2.616   4.019  12.995  0.3542  0.1438 -2.0665
   8823SM   H7T11781   2.493   4.152  13.018  0.7406  1.6561 -0.8445
   8823SM   C8S11782   2.664   4.169  13.152  0.3694 -0.2085 -0.4686
   8823SM   H8S11783   2.655   4.269  13.199  0.3352 -1.0191  1.3314
   8823SM   H8T11784   2.773   4.154  13.132  0.5832  2.0706 -1.3905
   8823SM   C9S11785   2.613   4.065  13.255  0.0842 -0.2595 -0.0827
   8823SM   H9S11786   2.626   3.957  13.231 -0.8360 -0.2825 -0.5497
   8823SM   H9T11787   2.503   4.081  13.255  0.0582 -0.4329 -0.1150
   8823SM  C10S11788   2.647   4.103  13.399  0.0503 -0.1012 -0.0752
   8823SM  H10S11789   2.642   4.212  13.418  3.1515  0.2192 -0.7025
   8823SM  H10T11790   2.749   4.063  13.413 -0.4647 -1.5423 -0.2819
   8823SM  C11S11791   2.553   4.032  13.502 -0.2475 -0.2975  0.9462
   8823SM  H11S11792   2.534   3.928  13.469  2.5085  0.2075 -2.8873
   8823SM  H11T11793   2.457   4.085  13.520 -2.0005 -3.0580  0.2523
   8823SM  C12S11794   2.614   4.021  13.647  0.4876 -0.4120 -0.0634
   8823SM  H12S11795   2.546   4.058  13.727 -0.3822  1.4471 -1.5760
   8823SM  H12T11796   2.697   4.095  13.649 -1.3236  1.7123  0.6760
   8823SM  C13S11797   2.671   3.889  13.689 -0.6936 -0.2668  0.4055
   8823SM  H13S11798   2.778   3.881  13.661 -0.7464  1.4068 -0.4123
   8823SM  H13T11799   2.620   3.807  13.633  1.5563 -1.1324 -0.4555
   8823SM  C14S11800   2.659   3.867  13.839 -1.1333 -0.1348 -0.3488
   8823SM  H14S11801   2.695   3.764  13.860 -3.3363 -0.9326 -0.1411
   8823SM  H14T11802   2.551   3.862  13.864 -0.9679  0.9960  0.6529
   8823SM  C15S11803   2.741   3.965  13.924  0.0983 -0.7754  0.3209
   8823SM  H15S11804   2.710   4.071  13.913  0.4547 -0.8841 -2.4318
   8823SM  H15T11805   2.850   3.958  13.903 -0.0301 -0.3033 -0.5612
   8823SM  C16S11806   2.719   3.935  14.073 -0.1151  0.0695 -0.1399
   8823SM  H16S11807   2.750   3.829  14.084 -0.1539  0.0035 -0.6470
   8823SM  H16T11808   2.611   3.948  14.098  0.1195  1.9210  0.0293
   8823SM  C17S11809   2.820   4.013  14.156 -0.8145 -0.7007 -0.4843
   8823SM  H17S11810   2.847   4.111  14.112  1.7340 -1.0022  0.2726
   8823SM  H17T11811   2.912   3.952  14.163 -0.9595 -0.7516  1.6659
   8823SM  C18S11812   2.775   4.023  14.303 -0.9034 -0.3291  0.3385
   8823SM  H18S11813   2.687   4.090  14.316 -0.4446 -0.0609  2.2094
   8823SM  H18T11814   2.855   4.056  14.372 -0.6822 -0.9275  0.3758
   8823SM  H18U11815   2.737   3.923  14.333  0.0092 -0.8511 -0.2044
   8823SM   C1F11816   2.562   3.766  12.518  0.5476 -0.3348  0.5798
   8823SM    OF11817   2.637   3.723  12.427  0.2089  0.6399 -0.3089
   8823SM   C2F11818   2.479   3.669  12.606 -0.0141 -0.5601  1.1083
   8823SM   H2F11819   2.416   3.600  12.544  1.8284 -2.2450  1.0042
   8823SM   H2G11820   2.407   3.731  12.662  1.3290 -0.0665  2.3465
   8823SM   C3F11821   2.565   3.594  12.713 -0.3691 -0.1235 -1.1372
   8823SM   H3F11822   2.649   3.531  12.678 -0.6169 -1.0926 -0.0605
   8823SM   H3G11823   2.499   3.516  12.757 -1.0952  0.1120 -1.7976
   8823SM   C4F11824   2.622   3.686  12.825 -0.1365 -0.4430 -0.2577
   8823SM   H4F11825   2.541   3.749  12.869  2.0004  1.9950  0.4217
   8823SM   H4G11826   2.702   3.751  12.785  0.5482 -1.5780 -0.7843
   8823SM   C5F11827   2.676   3.600  12.936  0.1240  0.0192 -0.0415
   8823SM   H5F11828   2.767   3.543  12.906  1.0873  1.1411  0.6564
   8823SM   H5G11829   2.592   3.532  12.962 -0.6654  1.1048  0.3148
   8823SM   C6F11830   2.720   3.666  13.070 -0.3634  0.3864 -0.6921
   8823SM   H6F11831   2.629   3.705  13.120 -0.7335 -1.7014  0.3945
   8823SM   H6G11832   2.796   3.744  13.049 -0.0982  0.5049  0.6133
   8823SM   C7F11833   2.788   3.572  13.168  0.5164 -0.2918 -0.2758
   8823SM   H7F11834   2.880   3.526  13.127  1.5261  2.0877 -0.8116
   8823SM   H7G11835   2.720   3.485  13.179  2.0846 -1.4619  0.5319
   8823SM   C8F11836   2.821   3.629  13.308 -0.5031  0.2783  0.6484
   8823SM   H8F11837   2.740   3.699  13.337 -0.6459  0.4000 -0.0378
   8823SM   H8G11838   2.913   3.691  13.299 -1.3098  1.1323 -3.1528
   8823SM   C9F11839   2.843   3.523  13.417  0.3729  0.2956 -0.3315
   8823SM   H9F11840   2.888   3.431  13.375 -1.0684  0.4745 -2.4427
   8823SM   H9G11841   2.739   3.499  13.450  1.4145 -0.9613  2.3265
   8823SM  C10F11842   2.907   3.585  13.540  0.8118 -0.2454 -0.9615
   8823SM  H10F11843   2.872   3.690  13.538 -1.6665 -0.9889  0.3018
   8823SM  H10G11844   3.017   3.577  13.527  0.8302 -1.0956 -0.3635
   8823SM  C11F11845   2.868   3.519  13.675 -0.1042  0.1921  0.7304
   8823SM  H11F11846   2.893   3.411  13.660  0.4776  0.5484 -1.1644
   8823SM  H11G11847   2.758   3.519  13.696 -0.9829  0.6533 -3.0779
   8823SM  C12F11848   2.947   3.575  13.792  0.0488 -0.0908 -0.0935
   8823SM  H12F11849   2.963   3.684  13.784 -0.7521  0.0425 -0.0126
   8823SM  H12G11850   3.048   3.530  13.784  0.5496  1.1075 -0.7550
   8823SM  C13F11851   2.896   3.558  13.930 -0.2763 -0.2207  0.3698
   8823SM  H13F11852   2.869   3.451  13.943 -0.3888 -0.4851 -1.7357
   8823SM  H13G11853   2.799   3.611  13.933 -0.2032 -0.0618  0.0083
   8823SM  C14F11854   2.993   3.610  14.039  0.6688 -0.2469  0.6607
   8823SM  H14F11855   3.025   3.715  14.024 -0.0207 -0.0187  0.7270
   8823SM  H14G11856   3.083   3.547  14.020  1.2474  1.3462 -2.5327
   8823SM  C15F11857   2.927   3.588  14.174 -0.1478  0.7619  0.5022
   8823SM  H15F11858   2.858   3.500  14.170  0.1987  0.4877 -3.3825
   8823SM  H15G11859   2.870   3.679  14.204  0.6935  1.1343  0.9996
   8823SM  C16F11860   3.027   3.555  14.287 -0.6371 -0.1776 -0.3795
   8823SM  H16F11861   3.098   3.641  14.285  1.4387 -1.7280  1.4843
   8823SM  H16G11862   3.069   3.453  14.281 -2.1066 -1.1638  3.2140
   8823SM  C17F11863   2.958   3.580  14.421  0.7189  0.6277 -0.0636
   8823SM  H17F11864   2.973   3.484  14.475  4.0905 -0.2551 -2.3219
   8823SM  H17G11865   2.850   3.608  14.412  0.6590  0.3245 -0.2802
   8823SM  C18F11866   3.021   3.701  14.494 -0.2647 -0.7874  0.6554
   8823SM  H18F11867   3.035   3.788  14.426  1.5786 -0.8394  0.9128
   8823SM  H18G11868   3.123   3.675  14.529  0.5865  0.2342 -0.9374
   8823SM  C19F11869   2.932   3.759  14.611 -0.2038  0.6341  0.3952
   8823SM  H19F11870   2.904   3.679  14.683 -0.1226  0.4756  0.2508
   8823SM  H19G11871   2.836   3.795  14.569 -0.6640 -0.2764  0.6372
   8823SM  C20F11872   2.991   3.874  14.704  0.1989  0.6529  0.1905
   8823SM  H20F11873   3.097   3.854  14.733  0.6416  0.9469 -1.1300
   8823SM  H20G11874   2.942   3.877  14.803  0.1651  0.5806  0.1771
   8823SM  C21F11875   3.002   4.004  14.627  0.2539  0.1967  0.5320
   8823SM  H21F11876   2.900   4.041  14.602  1.0677  2.6005  0.4776
   8823SM  H21G11877   3.056   3.984  14.532  0.7270  0.5539  0.7210
   8823SM  C22F11878   3.081   4.104  14.712  0.0132 -0.0928 -0.7335
   8823SM  H22F11879   3.187   4.073  14.723  0.0675  0.5117  0.6832
   8823SM  H22G11880   3.033   4.099  14.812  0.3147  1.8363 -0.4672
   8823SM  C23F11881   3.089   4.246  14.660 -0.2585 -0.1368  0.4529
   8823SM  H23F11882   3.146   4.316  14.724 -0.8927  0.8939 -0.0736
   8823SM  H23G11883   2.983   4.281  14.659 -0.4087 -0.5581  1.0178
   8823SM  H23H11884   3.120   4.247  14.553  2.7580 -0.1714  1.2500
   8923SM     N11885   6.161   2.429  11.768  0.2334 -0.2176  0.2138
   8923SM   C1511886   6.219   2.295  11.754  0.1158 -0.0380 -0.2081
   8923SM  H15A11887   6.224   2.264  11.650  2.6950 -0.8219  0.0771
   8923SM  H15B11888   6.167   2.216  11.807 -0.8468  0.3672 -0.5154
   8923SM  H15C11889   6.321   2.300  11.787  0.3707  1.4564 -1.1259
   8923SM   C1411890   6.224   2.527  11.679  0.1977  0.1753 -1.1477
   8923SM  H14A11891   6.244   2.487  11.581  2.6441 -0.5479 -0.4110
   8923SM  H14B11892   6.323   2.547  11.715  0.3295  0.1940 -1.5185
   8923SM  H14C11893   6.158   2.612  11.668  0.4492  0.7228  1.1565
   8923SM   C1311894   6.014   2.407  11.732  0.0025  0.8693 -0.2454
   8923SM  H13A11895   5.967   2.349  11.811  0.8165  0.9149  0.2759
   8923SM  H13B11896   6.003   2.355  11.637  0.3863  2.8158 -1.4013
   8923SM  H13C11897   5.970   2.505  11.721 -0.4470  0.5366 -1.8017
   8923SM   C1211898   6.161   2.480  11.913 -0.2887 -0.0322  0.3280
   8923SM  H12A11899   6.090   2.421  11.968 -1.2527 -0.1312 -0.9781
   8923SM  H12B11900   6.122   2.580  11.924 -1.4904 -0.4130 -0.3001
   8923SM   C1111901   6.292   2.471  11.996 -0.3088 -0.4099  0.5084
   8923SM  H11A11902   6.359   2.547  11.950  0.0810 -2.1171 -1.9056
   8923SM  H11B11903   6.335   2.370  11.985 -2.0180 -1.0770 -0.5223
   8923SM     P11904   6.194   2.375  12.226 -0.0759 -0.1356 -0.0983
   8923SM   O1311905   6.060   2.355  12.187  0.2863 -0.1356  0.8352
   8923SM   O1411906   6.288   2.262  12.223 -0.2480 -0.0013 -0.5964
   8923SM   O1111907   6.188   2.439  12.372 -0.0938 -0.1427  0.2501
   8923SM   O1211908   6.252   2.490  12.130 -0.2951  0.2776 -0.0562
   8923SM   C1S11909   6.178   2.340  12.481 -0.8491 -0.0626  0.0345
   8923SM   H1S11910   6.271   2.281  12.485  0.4634  1.9389  0.7538
   8923SM   H1T11911   6.089   2.274  12.474  0.0283 -1.0693 -2.0316
   8923SM    NF11912   6.223   2.326  12.729  0.0939 -0.0592  0.4356
   8923SM   HNF11913   6.146   2.294  12.784 -0.4043 -1.2125 -0.8829
   8923SM   C2S11914   6.174   2.415  12.625 -0.3188 -0.4316  0.6441
   8923SM   H2S11915   6.235   2.508  12.615  0.8459 -1.1464  0.8773
   8923SM   C3S11916   6.026   2.463  12.645 -0.2803  0.1903 -0.0026
   8923SM   H3S11917   5.966   2.369  12.647 -0.1045  0.0889  1.4259
   8923SM    O311918   5.978   2.549  12.547 -0.7401 -0.5101  0.1456
   8923SM   HO311919   6.038   2.532  12.473 -0.5019 -0.0917  0.2424
   8923SM   C4S11920   6.006   2.515  12.787  0.4237 -0.0628  0.2286
   8923SM   H4S11921   5.984   2.442  12.867 -1.6309 -0.3283 -0.5155
   8923SM   C5S11922   6.000   2.645  12.818 -0.7366  0.4122  0.1894
   8923SM   H5S11923   6.020   2.719  12.739  1.7797 -0.3632  0.0007
   8923SM   C6S11924   5.956   2.699  12.949 -0.4170  0.1212 -0.7001
   8923SM   H6S11925   5.849   2.727  12.942  0.2390  2.8615 -0.8527
   8923SM   H6T11926   6.012   2.791  12.975 -0.4514  0.2104 -0.9387
   8923SM   C7S11927   5.985   2.606  13.059 -0.7340 -0.0221  0.8215
   8923SM   H7S11928   6.090   2.569  13.048 -0.5298  0.8412 -0.3010
   8923SM   H7T11929   5.912   2.523  13.066  1.7252 -2.4853 -0.6589
   8923SM   C8S11930   5.963   2.681  13.191 -0.1202 -0.2204 -0.0913
   8923SM   H8S11931   5.857   2.715  13.197 -0.4391 -1.4548  2.8131
   8923SM   H8T11932   6.026   2.772  13.200  1.1560 -1.1618  0.8339
   8923SM   C9S11933   5.986   2.595  13.310  0.2365 -0.7421 -0.1634
   8923SM   H9S11934   6.082   2.541  13.295  1.0433 -0.4518  3.0954
   8923SM   H9T11935   5.909   2.516  13.318  0.4516 -0.8471  1.1223
   8923SM  C10S11936   5.988   2.670  13.448  0.2355  0.1481  0.4774
   8923SM  H10S11937   5.897   2.733  13.453 -1.0833 -1.7099  1.0114
   8923SM  H10T11938   6.079   2.734  13.449  0.3377 -0.0070  1.4828
   8923SM  C11S11939   5.983   2.576  13.565 -0.2383 -0.5233  0.3398
   8923SM  H11S11940   6.063   2.499  13.555  0.1820  0.1573 -2.0010
   8923SM  H11T11941   5.888   2.520  13.582 -0.5575  0.2940  1.3491
   8923SM  C12S11942   6.007   2.675  13.680 -0.3014 -0.0150 -0.4015
   8923SM  H12S11943   5.937   2.761  13.686 -0.6922 -0.3263 -0.4647
   8923SM  H12T11944   6.114   2.704  13.672 -0.4358  1.6016  2.4844
   8923SM  C13S11945   5.987   2.618  13.827  0.2379  0.2280  0.4825
   8923SM  H13S11946   6.064   2.539  13.841 -0.4485 -0.5925 -0.2282
   8923SM  H13T11947   5.880   2.589  13.825  0.0875  0.6499 -2.8764
   8923SM  C14S11948   6.008   2.734  13.930  0.4747  0.1977  0.5355
   8923SM  H14S11949   5.979   2.686  14.026  1.2553 -1.1050  0.1549
   8923SM  H14T11950   5.933   2.811  13.906  0.4956  0.3217  0.8656
   8923SM  C15S11951   6.147   2.798  13.937 -0.1539  0.7159 -0.2503
   8923SM  H15S11952   6.196   2.808  13.838 -0.0978  0.6660 -0.2270
   8923SM  H15T11953   6.207   2.722  13.993  0.2325  2.0069  1.1778
   8923SM  C16S11954   6.160   2.937  14.008 -0.9173 -0.0401  0.4130
   8923SM  H16S11955   6.112   2.933  14.108 -1.4602  3.4728  0.4166
   8923SM  H16T11956   6.090   2.999  13.948 -0.9378  0.2769  0.7596
   8923SM  C17S11957   6.304   2.993  14.003  0.2650  0.7765  0.2936
   8923SM  H17S11958   6.315   3.093  14.049 -1.3932  1.2928 -0.3761
   8923SM  H17T11959   6.327   3.008  13.895 -0.5265 -0.3368 -0.0465
   8923SM  C18S11960   6.415   2.906  14.070 -0.5365 -0.7196 -0.4924
   8923SM  H18S11961   6.407   2.800  14.036 -2.5111 -0.4498 -0.9753
   8923SM  H18T11962   6.403   2.909  14.181  1.3282 -1.2911 -0.2513
   8923SM  H18U11963   6.518   2.931  14.039 -0.6469 -1.5131 -1.5499
   8923SM   C1F11964   6.349   2.287  12.754 -0.5031  0.0745  0.8144
   8923SM    OF11965   6.437   2.308  12.675  0.0209  0.6071  0.1738
   8923SM   C2F11966   6.375   2.224  12.885  0.5985  0.2106  0.1401
   8923SM   H2F11967   6.482   2.195  12.882  0.6159  0.1168  1.3598
   8923SM   H2G11968   6.319   2.129  12.903 -0.6338  1.4064  3.3677
   8923SM   C3F11969   6.350   2.311  13.011 -0.6183 -0.0961  0.7817
   8923SM   H3F11970   6.242   2.323  13.035 -0.8716  1.2508 -0.8925
   8923SM   H3G11971   6.390   2.413  12.999  1.5995 -1.0769 -0.8836
   8923SM   C4F11972   6.421   2.259  13.130 -1.0087 -0.1142  0.4582
   8923SM   H4F11973   6.529   2.239  13.111 -0.9832 -1.2554  1.6383
   8923SM   H4G11974   6.381   2.159  13.159  3.5131 -2.4099 -0.1696
   8923SM   C5F11975   6.394   2.349  13.248 -0.1787  0.3813 -0.0520
   8923SM   H5F11976   6.296   2.329  13.295 -0.5791 -0.0504 -1.0591
   8923SM   H5G11977   6.402   2.457  13.224  1.5851  0.4389  0.6295
   8923SM   C6F11978   6.496   2.307  13.362  0.4624  0.0605  0.2033
   8923SM   H6F11979   6.599   2.289  13.323  0.7572  3.2475 -0.8312
   8923SM   H6G11980   6.471   2.205  13.398  1.6295 -0.0315  0.7970
   8923SM   C7F11981   6.496   2.403  13.480  0.1481 -0.3371  0.0715
   8923SM   H7F11982   6.507   2.507  13.441 -1.1359  0.0327  0.6352
   8923SM   H7G11983   6.579   2.383  13.551  0.9617  2.5026  0.0697
   8923SM   C8F11984   6.361   2.403  13.548  0.0077  0.2403  0.3724
   8923SM   H8F11985   6.339   2.295  13.566  1.4689 -0.8779 -3.4284
   8923SM   H8G11986   6.284   2.435  13.475  0.2685 -3.2269 -1.6841
   8923SM   C9F11987   6.351   2.479  13.676 -0.2751 -0.1939  0.8036
   8923SM   H9F11988   6.250   2.520  13.700 -0.5740 -0.5763  0.2264
   8923SM   H9G11989   6.419   2.567  13.669 -0.4957 -0.0722  0.1254
   8923SM  C10F11990   6.391   2.403  13.802 -0.4400  0.0023 -0.1015
   8923SM  H10F11991   6.499   2.380  13.792 -0.6093 -0.2880 -1.3798
   8923SM  H10G11992   6.338   2.308  13.824  0.0953 -0.1334  0.6397
   8923SM  C11F11993   6.369   2.485  13.930  0.2522 -0.2868  0.8786
   8923SM  H11F11994   6.261   2.505  13.945  0.8695  2.6221  2.2051
   8923SM  H11G11995   6.424   2.582  13.921  1.4337 -1.1126 -1.9779
   8923SM  C12F11996   6.411   2.407  14.052  0.0966  0.2911 -0.1583
   8923SM  H12F11997   6.518   2.383  14.033 -0.3094 -1.1934 -0.6235
   8923SM  H12G11998   6.357   2.311  14.045 -0.6571  0.8298 -2.8411
   8923SM  C13F11999   6.390   2.473  14.186 -0.4492 -0.1441 -0.2617
   8923SM  H13F12000   6.431   2.576  14.185  0.9737 -0.6887 -0.6904
   8923SM  H13G12001   6.446   2.430  14.272  1.0031  1.9145 -0.0983
   8923SM  C14F12002   6.238   2.489  14.226  0.7964 -0.6255 -0.5152
   8923SM  H14F12003   6.181   2.399  14.256 -2.0390  1.8254  2.2510
   8923SM  H14G12004   6.184   2.530  14.138  0.6422 -0.3720 -0.3061
   8923SM  C15F12005   6.202   2.594  14.333 -0.5543 -0.0031 -0.0892
   8923SM  H15F12006   6.255   2.690  14.318  0.6642 -0.6259  0.0493
   8923SM  H15G12007   6.228   2.552  14.433  0.2134 -0.6979 -0.5590
   8923SM  C16F12008   6.055   2.625  14.332  0.1056 -0.0648 -0.1247
   8923SM  H16F12009   5.999   2.528  14.329  3.5001 -2.1432 -1.3710
   8923SM  H16G12010   6.020   2.669  14.236  0.4602  0.6722  0.0836
   8923SM  C17F12011   6.012   2.713  14.448 -0.5472 -0.7611  0.1654
   8923SM  H17F12012   6.079   2.800  14.468  0.9627 -2.2800  2.1353
   8923SM  H17G12013   6.012   2.644  14.535 -1.4233 -1.2398 -0.2120
   8923SM  C18F12014   5.868   2.770  14.427 -0.1456 -0.0042  0.0214
   8923SM  H18F12015   5.867   2.828  14.332  0.7821  1.9861  1.1729
   8923SM  H18G12016   5.853   2.836  14.515  1.6753  0.5458 -0.0317
   8923SM  C19F12017   5.759   2.667  14.420 -0.4312 -0.4551  0.3900
   8923SM  H19F12018   5.790   2.587  14.349  0.5074  0.7156 -0.5771
   8923SM  H19G12019   5.666   2.702  14.371  0.7274  0.9409 -0.9341
   8923SM  C20F12020   5.726   2.620  14.558  0.0661 -0.2997  0.2126
   8923SM  H20F12021   5.652   2.689  14.603 -1.1428  0.2543 -2.4688
   8923SM  H20G12022   5.817   2.637  14.620  0.3965 -0.5270 -0.1987
   8923SM  C21F12023   5.659   2.480  14.562 -0.8442  0.2445  0.1605
   8923SM  H21F12024   5.729   2.407  14.516  1.1716  2.4708 -0.5220
   8923SM  H21G12025   5.574   2.486  14.491 -0.5862 -3.7436 -0.7358
   8923SM  C22F12026   5.611   2.445  14.706 -0.4564  1.1758  0.1747
   8923SM  H22F12027   5.527   2.510  14.739 -0.2694  0.1158  2.9894
   8923SM  H22G12028   5.700   2.451  14.772 -0.1844 -2.6273  0.3375
   8923SM  C23F12029   5.563   2.300  14.708 -0.0445 -0.5592 -0.0014
   8923SM  H23F12030   5.630   2.224  14.663  0.9906  0.0807  0.4431
   8923SM  H23G12031   5.467   2.294  14.652  0.4118 -0.4471 -0.8125
   8923SM  H23H12032   5.544   2.272  14.814 -1.2673  2.5343  0.6993
   9023SM     N12033   5.568   2.970  11.695  0.1903  0.0391 -0.3819
   9023SM   C1512034   5.521   2.979  11.556  0.0940  0.3468  0.1143
   9023SM  H15A12035   5.498   3.081  11.529  0.6136  1.0737  2.2271
   9023SM  H15B12036   5.425   2.932  11.537 -0.8759  2.9314 -1.9170
   9023SM  H15C12037   5.588   2.951  11.477 -1.1278  0.3939 -0.9696
   9023SM   C1412038   5.693   3.050  11.706  0.3986 -0.2453 -0.0611
   9023SM  H14A12039   5.740   3.035  11.802  0.4462  0.0963 -0.0280
   9023SM  H14B12040   5.683   3.158  11.701  3.2776  0.1952  1.4812
   9023SM  H14C12041   5.762   3.025  11.627  0.9353 -3.2969  1.2450
   9023SM   C1312042   5.464   3.016  11.791  0.1169  0.1443 -0.5607
   9023SM  H13A12043   5.496   3.018  11.894 -1.1595  0.8849 -0.1525
   9023SM  H13B12044   5.380   2.948  11.801  1.3309 -1.0967  2.4747
   9023SM  H13C12045   5.434   3.114  11.760  0.4075  0.4141 -0.0082
   9023SM   C1212046   5.612   2.831  11.734  0.5271 -0.5571 -0.4703
   9023SM  H12A12047   5.693   2.797  11.671  0.3350  0.7667 -1.4935
   9023SM  H12B12048   5.520   2.778  11.716 -0.6793  0.9111  1.0525
   9023SM   C1112049   5.655   2.798  11.882 -0.1042 -0.1618 -0.2196
   9023SM  H11A12050   5.641   2.688  11.885 -0.4359 -0.1243 -0.3194
   9023SM  H11B12051   5.572   2.839  11.944 -3.1792 -3.5511 -1.7139
   9023SM     P12052   5.921   2.772  11.863 -0.4768  0.1285 -0.1317
   9023SM   O1312053   5.889   2.702  11.740  0.4749  0.4006  0.2855
   9023SM   O1412054   6.037   2.866  11.866 -0.4458 -0.1791  0.4299
   9023SM   O1112055   5.934   2.660  11.967 -0.3305  0.1419 -0.3681
   9023SM   O1212056   5.791   2.845  11.919  0.1609  0.5375  0.7603
   9023SM   C1S12057   5.966   2.697  12.105  0.0728  0.0871 -0.0797
   9023SM   H1S12058   6.006   2.801  12.111 -1.2795  0.7030 -1.0447
   9023SM   H1T12059   6.037   2.629  12.156 -1.5494 -0.3566  1.7084
   9023SM    NF12060   5.871   2.741  12.333 -0.0000 -0.0738  0.0223
   9023SM   HNF12061   5.874   2.664  12.397  0.2417 -1.2693 -1.3823
   9023SM   C2S12062   5.839   2.689  12.205 -1.0731 -0.2100 -0.3705
   9023SM   H2S12063   5.764   2.754  12.155 -1.6454  0.6183  1.4549
   9023SM   C3S12064   5.792   2.542  12.206 -0.2314  0.1209  0.0791
   9023SM   H3S12065   5.888   2.487  12.221 -0.6764 -0.8957 -0.6604
   9023SM    O312066   5.727   2.508  12.092  0.7081 -0.0509 -0.0953
   9023SM   HO312067   5.713   2.585  12.036 -3.9834 -1.0628 -0.7236
   9023SM   C4S12068   5.695   2.507  12.316  0.4761 -0.6674  0.0192
   9023SM   H4S12069   5.601   2.561  12.300 -1.0361 -3.1631  0.0226
   9023SM   C5S12070   5.708   2.415  12.416  0.5846 -0.0226 -0.5776
   9023SM   H5S12071   5.787   2.340  12.421 -0.3617 -1.0396 -0.5681
   9023SM   C6S12072   5.601   2.406  12.521  0.2889 -0.1330 -0.2277
   9023SM   H6S12073   5.576   2.298  12.522 -2.1796  0.3639 -1.4233
   9023SM   H6T12074   5.511   2.466  12.495  0.1355  0.3260  1.2635
   9023SM   C7S12075   5.652   2.464  12.658 -0.7565  0.1751  0.7366
   9023SM   H7S12076   5.664   2.573  12.643 -1.0395  0.1215  0.0683
   9023SM   H7T12077   5.750   2.417  12.681 -1.2252 -0.8585  0.6712
   9023SM   C8S12078   5.557   2.435  12.776  0.7199 -0.1149  0.3803
   9023SM   H8S12079   5.528   2.330  12.795 -1.8576  0.1877 -1.3127
   9023SM   H8T12080   5.455   2.479  12.770  1.6810  2.8890  2.9946
   9023SM   C9S12081   5.616   2.494  12.909 -0.1874  0.2894 -0.2313
   9023SM   H9S12082   5.647   2.600  12.902 -0.9761  0.5865  0.5832
   9023SM   H9T12083   5.709   2.435  12.920 -0.1291  0.3036 -0.6338
   9023SM  C10S12084   5.536   2.488  13.035 -1.1294  0.0359  0.4550
   9023SM  H10S12085   5.485   2.389  13.029  2.2710 -1.8733 -0.0096
   9023SM  H10T12086   5.466   2.573  13.022 -3.4104 -1.7279  0.6373
   9023SM  C11S12087   5.615   2.503  13.163 -0.1594 -0.0055  0.2199
   9023SM  H11S12088   5.646   2.609  13.174 -0.2260  0.1453 -0.8916
   9023SM  H11T12089   5.708   2.442  13.166  0.8313  1.2333 -2.3485
   9023SM  C12S12090   5.524   2.484  13.280  0.3035  0.3293 -0.5488
   9023SM  H12S12091   5.466   2.390  13.273 -0.2554  0.5546  0.7095
   9023SM  H12T12092   5.446   2.563  13.288 -0.7880 -0.7617 -0.2113
   9023SM  C13S12093   5.601   2.478  13.409 -0.7372 -0.3759 -0.7354
   9023SM  H13S12094   5.653   2.574  13.430  1.1968 -1.5778  0.2813
   9023SM  H13T12095   5.676   2.397  13.401 -0.2671 -0.1446  0.9432
   9023SM  C14S12096   5.519   2.452  13.531 -0.2173 -0.2669  0.2632
   9023SM  H14S12097   5.471   2.352  13.527 -1.4325  0.3108 -0.0249
   9023SM  H14T12098   5.439   2.529  13.534  0.5665  0.5690  0.1353
   9023SM  C15S12099   5.595   2.450  13.662 -0.3009  0.0864 -0.2677
   9023SM  H15S12100   5.657   2.542  13.674 -1.3921  1.0297 -1.5268
   9023SM  H15T12101   5.669   2.368  13.665  1.6034  1.6985 -0.8889
   9023SM  C16S12102   5.503   2.436  13.776 -0.5204 -0.6559 -0.8857
   9023SM  H16S12103   5.454   2.338  13.760  1.4773 -1.5942 -1.5492
   9023SM  H16T12104   5.426   2.517  13.778 -0.4202 -0.5705 -0.3460
   9023SM  C17S12105   5.586   2.440  13.901 -0.0658 -0.4424  0.1426
   9023SM  H17S12106   5.679   2.498  13.886 -0.8681  1.1057  0.9916
   9023SM  H17T12107   5.619   2.337  13.926  1.1539 -0.1370 -0.1505
   9023SM  C18S12108   5.517   2.507  14.022  0.1512 -0.6221 -0.6486
   9023SM  H18S12109   5.599   2.514  14.096 -0.2666  1.8292 -0.3567
   9023SM  H18T12110   5.449   2.433  14.069 -0.2074 -0.5418 -1.0254
   9023SM  H18U12111   5.482   2.608  13.992 -1.4074 -1.3582 -1.4455
   9023SM   C1F12112   5.878   2.870  12.369  0.4977  0.6386  0.1286
   9023SM    OF12113   5.835   2.959  12.297 -0.0508 -0.0353  0.1282
   9023SM   C2F12114   5.946   2.892  12.498 -0.7041  0.0336  0.5011
   9023SM   H2F12115   6.055   2.899  12.476 -0.8512  3.7600  0.2492
   9023SM   H2G12116   5.914   2.814  12.569 -1.0496  1.4355  1.9397
   9023SM   C3F12117   5.912   3.025  12.578 -0.4175  0.0427 -0.0891
   9023SM   H3F12118   5.803   3.029  12.598 -0.3110  0.1392  0.4757
   9023SM   H3G12119   5.944   3.117  12.526 -0.6650 -0.3553 -0.9739
   9023SM   C4F12120   5.984   3.026  12.719  0.6447 -0.2730  0.0850
   9023SM   H4F12121   6.093   3.047  12.721  0.3777  1.2255 -0.0219
   9023SM   H4G12122   5.955   2.933  12.772 -2.2934  1.7822  2.5190
   9023SM   C5F12123   5.928   3.138  12.797 -0.1921  0.0187 -0.5551
   9023SM   H5F12124   5.819   3.152  12.778 -0.1926 -1.1792 -1.6246
   9023SM   H5G12125   5.977   3.232  12.764  0.8851 -0.2607  0.1850
   9023SM   C6F12126   5.948   3.130  12.954 -0.4949 -0.0287  0.1180
   9023SM   H6F12127   6.052   3.105  12.984 -0.9268 -1.9987  0.1109
   9023SM   H6G12128   5.888   3.049  13.001  0.6278 -1.1848 -0.3565
   9023SM   C7F12129   5.919   3.262  13.023 -0.6350  0.3154  1.2378
   9023SM   H7F12130   5.816   3.295  12.997  0.1874  1.5968 -0.6702
   9023SM   H7G12131   5.986   3.345  12.991 -0.9003  0.0907  0.0538
   9023SM   C8F12132   5.922   3.248  13.175 -0.1202 -0.2019  0.6947
   9023SM   H8F12133   5.851   3.165  13.198 -1.3669  0.9086  1.0031
   9023SM   H8G12134   5.900   3.339  13.235 -0.0202  0.7180 -0.6367
   9023SM   C9F12135   6.052   3.184  13.237  0.5964 -0.8325 -0.5817
   9023SM   H9F12136   6.127   3.266  13.228  0.0313  0.0595  1.8990
   9023SM   H9G12137   6.094   3.105  13.172  0.7586  0.1998 -1.7656
   9023SM  C10F12138   6.036   3.135  13.383  0.0118  0.3232  0.8808
   9023SM  H10F12139   6.138   3.098  13.406 -0.0001 -0.4183 -0.1911
   9023SM  H10G12140   5.974   3.042  13.381  2.0647 -1.2118  3.1209
   9023SM  C11F12141   5.987   3.231  13.489  0.5811 -0.5409  0.1562
   9023SM  H11F12142   5.900   3.287  13.449  1.9590 -0.2929 -2.7370
   9023SM  H11G12143   6.063   3.309  13.508  0.4718 -0.2135 -0.7412
   9023SM  C12F12144   5.932   3.165  13.619 -0.2896 -0.0406  0.9155
   9023SM  H12F12145   6.020   3.105  13.649  0.1130 -1.2540 -2.2532
   9023SM  H12G12146   5.849   3.095  13.593 -1.0793  0.9716  0.6336
   9023SM  C13F12147   5.892   3.273  13.716 -0.4182  0.7262 -0.2385
   9023SM  H13F12148   5.802   3.327  13.678 -0.4040 -0.5653 -2.2266
   9023SM  H13G12149   5.981   3.339  13.713  0.1069  0.0174 -0.2298
   9023SM  C14F12150   5.863   3.224  13.856  0.0065  0.0778  0.3715
   9023SM  H14F12151   5.946   3.158  13.888 -1.0212 -0.9359  1.0192
   9023SM  H14G12152   5.778   3.153  13.858  1.2528 -1.4856 -0.0278
   9023SM  C15F12153   5.845   3.333  13.952  0.4527  0.1868 -0.1320
   9023SM  H15F12154   5.763   3.401  13.921 -0.7017  0.1900  2.6406
   9023SM  H15G12155   5.941   3.387  13.965  1.9495 -2.1204 -0.9800
   9023SM  C16F12156   5.826   3.285  14.098 -0.0119 -0.9021 -0.3560
   9023SM  H16F12157   5.738   3.219  14.116 -0.0276 -0.3242  2.0374
   9023SM  H16G12158   5.804   3.369  14.168  2.1160  0.1759 -0.9039
   9023SM  C17F12159   5.956   3.218  14.147  0.8094  0.0226  0.0544
   9023SM  H17F12160   6.043   3.265  14.096 -1.2088  1.5285 -2.2308
   9023SM  H17G12161   5.933   3.117  14.106  0.5473 -0.0328  0.3378
   9023SM  C18F12162   5.958   3.213  14.307  0.7118 -0.0009 -0.2178
   9023SM  H18F12163   5.853   3.192  14.336  0.3956  1.2614 -0.4007
   9023SM  H18G12164   5.983   3.315  14.342  3.1930 -0.6361  0.0429
   9023SM  C19F12165   6.041   3.101  14.372 -0.0965 -0.2449 -0.6947
   9023SM  H19F12166   6.048   3.011  14.308  1.1436 -1.4012  0.9781
   9023SM  H19G12167   5.987   3.071  14.464  0.1886  1.0925 -0.0725
   9023SM  C20F12168   6.168   3.165  14.428 -0.5620 -0.1780 -0.2318
   9023SM  H20F12169   6.147   3.248  14.499 -1.0032 -1.5048  1.2477
   9023SM  H20G12170   6.232   3.199  14.344 -0.3420  0.8132  0.3201
   9023SM  C21F12171   6.254   3.060  14.510  0.1155 -0.7780  0.7325
   9023SM  H21F12172   6.261   2.975  14.439  2.3544 -0.5249  0.5674
   9023SM  H21G12173   6.200   3.021  14.599  0.5807  1.7994  2.2506
   9023SM  C22F12174   6.391   3.111  14.548  0.0170  0.4497  0.3290
   9023SM  H22F12175   6.447   3.145  14.459 -2.5968 -0.6914 -1.9187
   9023SM  H22G12176   6.453   3.031  14.593  1.3780  0.8731 -0.7586
   9023SM  C23F12177   6.384   3.223  14.657  0.1395 -0.7683  0.2839
   9023SM  H23F12178   6.336   3.192  14.752 -1.6149 -2.1786 -1.0041
   9023SM  H23G12179   6.339   3.315  14.614 -2.8084 -1.1604  2.2413
   9023SM  H23H12180   6.491   3.242  14.681 -0.5812  1.6539  1.9813
   9123SM     N12181   6.674   4.786  11.625 -0.7170  0.6523  0.2002
   9123SM   C1512182   6.652   4.636  11.621  0.6835  0.8450  0.3232
   9123SM  H15A12183   6.557   4.604  11.662  0.2548  0.8927 -0.5847
   9123SM  H15B12184   6.735   4.589  11.671  1.2433  2.0094  0.5248
   9123SM  H15C12185   6.648   4.592  11.522  1.1399  0.9944  0.2351
   9123SM   C1412186   6.576   4.856  11.545  0.3391  0.7409  0.6935
   9123SM  H14A12187   6.577   4.964  11.542  0.6706  0.7285  0.0911
   9123SM  H14B12188   6.480   4.820  11.578 -1.2751  1.7488 -2.4416
   9123SM  H14C12189   6.581   4.823  11.442 -0.5351  0.4013  0.7512
   9123SM   C1312190   6.645   4.821  11.769 -0.6249 -0.7282 -0.0760
   9123SM  H13A12191   6.652   4.927  11.790  0.7899 -0.8018 -0.0316
   9123SM  H13B12192   6.716   4.776  11.838 -1.7801  0.2330  1.8378
   9123SM  H13C12193   6.543   4.788  11.778  0.0029 -2.4554  1.4698
   9123SM   C1212194   6.804   4.823  11.570 -0.1940  0.0486  0.7898
   9123SM  H12A12195   6.810   4.770  11.476 -2.3041 -1.0268  1.1972
   9123SM  H12B12196   6.882   4.777  11.628  0.2483 -1.2751 -0.7859
   9123SM   C1112197   6.837   4.973  11.561  0.7707 -0.0044  0.1466
   9123SM  H11A12198   6.778   5.033  11.488  0.5749 -2.7916 -2.1698
   9123SM  H11B12199   6.940   4.970  11.519  1.2732 -0.2303  1.3514
   9123SM     P12200   6.951   5.013  11.786  0.2127 -0.1636  0.0312
   9123SM   O1312201   7.024   4.886  11.753  0.8368  0.3207 -0.2549
   9123SM   O1412202   7.038   5.133  11.788  0.3523 -0.5421 -0.2920
   9123SM   O1112203   6.874   4.999  11.920 -0.2297 -0.2087  0.3658
   9123SM   O1212204   6.832   5.041  11.687  1.0789 -0.4301  0.9605
   9123SM   C1S12205   6.769   5.085  11.958 -0.3102 -0.1580 -0.0268
   9123SM   H1S12206   6.668   5.063  11.916 -1.2590  2.4041  0.7224
   9123SM   H1T12207   6.791   5.191  11.933  0.6965  0.1530  1.9829
   9123SM    NF12208   6.641   5.146  12.166  0.4516 -0.0098  0.5831
   9123SM   HNF12209   6.666   5.227  12.219 -0.4554  1.8327 -1.6203
   9123SM   C2S12210   6.747   5.073  12.112 -0.4700  0.7267  0.5039
   9123SM   H2S12211   6.735   4.963  12.128  0.8111  0.5791  0.6063
   9123SM   C3S12212   6.880   5.097  12.191  0.1772 -0.3618  0.6154
   9123SM   H3S12213   6.910   5.204  12.187 -0.1579 -0.2284  1.5263
   9123SM    O312214   6.995   5.023  12.145  0.2980  0.5542 -0.3903
   9123SM   HO312215   6.958   4.977  12.070 -2.7821  0.7782  0.8659
   9123SM   C4S12216   6.864   5.057  12.326  0.6478  0.0130 -0.8336
   9123SM   H4S12217   6.845   4.949  12.337 -0.7311 -0.0802 -3.3836
   9123SM   C5S12218   6.866   5.136  12.436 -0.4926  0.0999  0.7464
   9123SM   H5S12219   6.883   5.244  12.419  1.5816 -0.3739 -0.5678
   9123SM   C6S12220   6.866   5.090  12.575 -0.0334  0.2175 -0.1075
   9123SM   H6S12221   6.967   5.085  12.621 -0.1591 -0.0332  0.1482
   9123SM   H6T12222   6.831   4.985  12.580  2.5603 -0.6916  0.8681
   9123SM   C7S12223   6.788   5.184  12.664  0.4146 -0.1380  0.2544
   9123SM   H7S12224   6.679   5.186  12.642  0.2163  1.6819  1.2509
   9123SM   H7T12225   6.818   5.290  12.654 -1.8733  0.5908  0.5520
   9123SM   C8S12226   6.805   5.148  12.816 -0.1941 -0.4734  0.2426
   9123SM   H8S12227   6.913   5.129  12.838  1.0091  3.3120 -1.5319
   9123SM   H8T12228   6.747   5.055  12.834  1.3724 -1.1295  2.4431
   9123SM   C9S12229   6.747   5.249  12.910 -0.3577 -0.0660  0.1549
   9123SM   H9S12230   6.638   5.267  12.903 -0.2506  1.1230  1.0914
   9123SM   H9T12231   6.807   5.340  12.890 -0.6434 -0.2233 -1.5328
   9123SM  C10S12232   6.755   5.194  13.054 -0.1711 -0.5023  0.0481
   9123SM  H10S12233   6.861   5.176  13.082 -0.2993  0.5093  1.2571
   9123SM  H10T12234   6.701   5.097  13.054  0.5785 -0.9839  2.0040
   9123SM  C11S12235   6.713   5.284  13.178  0.0530 -0.3418 -0.4597
   9123SM  H11S12236   6.612   5.325  13.154  0.3299  0.8136  0.3206
   9123SM  H11T12237   6.777   5.371  13.201 -0.7914  0.2382 -0.2224
   9123SM  C12S12238   6.685   5.201  13.299  0.3399  0.3046 -0.1963
   9123SM  H12S12239   6.778   5.171  13.352 -0.4408 -4.0412 -0.9509
   9123SM  H12T12240   6.629   5.108  13.280  0.6366  0.2585 -0.8625
   9123SM  C13S12241   6.590   5.270  13.402 -0.4643 -0.1542 -0.1144
   9123SM  H13S12242   6.493   5.297  13.356 -0.9611 -1.0525  0.3797
   9123SM  H13T12243   6.623   5.372  13.431  0.9722 -0.1380 -1.6111
   9123SM  C14S12244   6.566   5.180  13.523 -0.5637 -0.6929  0.0933
   9123SM  H14S12245   6.534   5.078  13.493 -1.8154 -1.1473  2.7170
   9123SM  H14T12246   6.477   5.226  13.571 -0.9543 -0.4237 -0.8569
   9123SM  C15S12247   6.672   5.175  13.627 -0.2172  0.4915 -0.2344
   9123SM  H15S12248   6.730   5.268  13.644  0.8629 -0.5832  2.5695
   9123SM  H15T12249   6.748   5.101  13.594  0.7006  1.4845 -0.4171
   9123SM  C16S12250   6.620   5.116  13.757 -0.2076  0.3740 -0.3877
   9123SM  H16S12251   6.711   5.074  13.805 -1.7106 -1.8233  0.7268
   9123SM  H16T12252   6.540   5.040  13.742  0.0902  0.3532 -2.0495
   9123SM  C17S12253   6.556   5.220  13.844 -0.1874 -0.3696  0.4347
   9123SM  H17S12254   6.453   5.240  13.808  0.3598 -2.6945 -2.8834
   9123SM  H17T12255   6.612   5.313  13.820  1.5586 -1.6701 -0.8483
   9123SM  C18S12256   6.564   5.197  13.993 -0.3967  0.1670  0.4742
   9123SM  H18S12257   6.663   5.155  14.024 -1.0354 -1.5103  0.3486
   9123SM  H18T12258   6.491   5.125  14.035 -1.4671  1.2606  0.5373
   9123SM  H18U12259   6.559   5.289  14.055 -1.8612  1.3853 -1.3537
   9123SM   C1F12260   6.514   5.117  12.146 -0.8332 -0.4234 -0.0852
   9123SM    OF12261   6.494   5.012  12.090 -0.0433  0.0051  0.4851
   9123SM   C2F12262   6.396   5.208  12.177  0.0933  0.1412 -0.5645
   9123SM   H2F12263   6.335   5.222  12.086 -0.5379  0.6754 -0.0737
   9123SM   H2G12264   6.432   5.309  12.206  0.5307 -0.3195  0.5696
   9123SM   C3F12265   6.314   5.135  12.286 -0.4156  0.1682  0.2567
   9123SM   H3F12266   6.287   5.035  12.247  2.2682 -0.0058 -1.3966
   9123SM   H3G12267   6.224   5.187  12.326 -1.4775 -0.6318 -1.0304
   9123SM   C4F12268   6.395   5.114  12.414 -0.1672 -0.6180  0.0829
   9123SM   H4F12269   6.422   5.219  12.439 -1.4523  0.0579 -1.2303
   9123SM   H4G12270   6.489   5.057  12.397  0.8679  1.0417 -0.0364
   9123SM   C5F12271   6.308   5.052  12.522 -1.1184  0.4266  0.1504
   9123SM   H5F12272   6.300   4.952  12.475 -0.3792  0.0945  0.7030
   9123SM   H5G12273   6.207   5.094  12.540 -0.6595  0.6215  2.6211
   9123SM   C6F12274   6.398   5.037  12.652 -0.1949  0.9729  0.3711
   9123SM   H6F12275   6.507   5.023  12.640 -0.2814 -1.1136  1.5393
   9123SM   H6G12276   6.359   4.937  12.683  0.0760  0.0585 -1.9926
   9123SM   C7F12277   6.345   5.147  12.750 -0.9416  0.1051 -0.1286
   9123SM   H7F12278   6.235   5.152  12.739 -1.1005 -0.5241  0.9956
   9123SM   H7G12279   6.394   5.245  12.730 -1.2413  0.2962  0.0770
   9123SM   C8F12280   6.382   5.117  12.896 -0.3268 -1.2256  0.7083
   9123SM   H8F12281   6.334   5.195  12.960 -2.3828 -1.8197 -0.0157
   9123SM   H8G12282   6.493   5.111  12.898 -0.2644 -0.0168  1.5057
   9123SM   C9F12283   6.317   4.992  12.958  0.6166  0.8294  0.3620
   9123SM   H9F12284   6.363   4.903  12.909 -1.4258 -0.6685  0.9875
   9123SM   H9G12285   6.206   4.995  12.956  0.5731  3.1003  2.0164
   9123SM  C10F12286   6.366   4.958  13.095  0.7300  0.2151  0.3849
   9123SM  H10F12287   6.337   5.041  13.163 -1.0228  2.0954 -2.4423
   9123SM  H10G12288   6.477   4.960  13.096  0.7279  1.4283  0.1616
   9123SM  C11F12289   6.318   4.820  13.141  0.1691 -0.0965 -0.5779
   9123SM  H11F12290   6.338   4.744  13.062  2.6149  0.0802 -0.2189
   9123SM  H11G12291   6.208   4.820  13.159  0.1673  2.3164 -0.2928
   9123SM  C12F12292   6.394   4.777  13.264 -0.1110  0.1643  0.1171
   9123SM  H12F12293   6.499   4.770  13.227 -0.3895 -2.1967 -0.3855
   9123SM  H12G12294   6.351   4.679  13.295 -0.2633 -0.6146 -2.3927
   9123SM  C13F12295   6.395   4.873  13.378 -0.4605 -0.7385  0.1735
   9123SM  H13F12296   6.441   4.970  13.349 -2.1666 -0.0916 -0.4964
   9123SM  H13G12297   6.444   4.816  13.460 -1.6000 -3.0665 -0.6653
   9123SM  C14F12298   6.250   4.926  13.423 -0.0989  0.4812 -0.6752
   9123SM  H14F12299   6.175   4.844  13.413 -0.8746  0.9940  0.6971
   9123SM  H14G12300   6.228   5.003  13.346  1.1033  0.8933 -0.6320
   9123SM  C15F12301   6.231   4.983  13.564  0.2113  0.0942  0.1161
   9123SM  H15F12302   6.125   5.013  13.580  0.3393  0.4473  0.3136
   9123SM  H15G12303   6.303   5.065  13.583  0.6827 -0.2985  0.0456
   9123SM  C16F12304   6.263   4.876  13.670  0.2324 -0.0790 -0.2942
   9123SM  H16F12305   6.374   4.874  13.667  0.2560  1.0782 -2.4913
   9123SM  H16G12306   6.219   4.775  13.654  0.0586 -0.5789  2.7066
   9123SM  C17F12307   6.218   4.921  13.807  0.1649  0.5718 -0.8150
   9123SM  H17F12308   6.107   4.929  13.808 -0.0743 -1.7723  1.3350
   9123SM  H17G12309   6.261   5.023  13.820  1.4734 -0.1015  0.5087
   9123SM  C18F12310   6.255   4.817  13.912  1.0857 -0.4170 -0.3664
   9123SM  H18F12311   6.362   4.789  13.915  1.6872  1.5664 -1.5799
   9123SM  H18G12312   6.198   4.729  13.875  0.7471 -0.0010 -0.8516
   9123SM  C19F12313   6.213   4.836  14.057  0.0209  1.3216 -0.4334
   9123SM  H19F12314   6.231   4.742  14.113 -1.9819  1.3688  0.3956
   9123SM  H19G12315   6.102   4.847  14.064  0.1338  2.3075 -0.1470
   9123SM  C20F12316   6.283   4.949  14.123 -0.3922  0.1092  0.5899
   9123SM  H20F12317   6.245   5.044  14.080 -0.3426  0.5928  1.5877
   9123SM  H20G12318   6.392   4.928  14.118 -0.7650 -2.4512  1.4589
   9123SM  C21F12319   6.240   4.967  14.265 -0.3106  0.6189 -0.2882
   9123SM  H21F12320   6.255   4.879  14.330 -0.8686  0.6823 -0.0672
   9123SM  H21G12321   6.131   4.989  14.268 -0.5378 -0.5859  0.8915
   9123SM  C22F12322   6.322   5.085  14.339  0.5194  0.7218  0.7573
   9123SM  H22F12323   6.294   5.177  14.284  0.5181 -1.3344 -3.0288
   9123SM  H22G12324   6.431   5.064  14.338 -0.0476 -2.9128 -0.7077
   9123SM  C23F12325   6.286   5.120  14.480 -0.4204 -0.3142  0.2797
   9123SM  H23F12326   6.327   5.038  14.544  0.4490 -1.2202 -1.3721
   9123SM  H23G12327   6.175   5.123  14.483 -0.5620 -3.2197  2.1785
   9123SM  H23H12328   6.329   5.218  14.509  0.5751 -0.6385 -0.0434
   9223SM     N12329   4.579   1.954  11.990  0.3081  0.3049 -0.3235
   9223SM   C1512330   4.540   1.910  11.853 -0.2499 -0.1610 -0.2447
   9223SM  H15A12331   4.636   1.904  11.804  0.3649  2.3493  0.5090
   9223SM  H15B12332   4.480   1.990  11.813 -0.6507 -0.8669 -1.0747
   9223SM  H15C12333   4.481   1.820  11.850 -2.0986  0.9147  1.4064
   9223SM   C1412334   4.611   2.103  11.984 -0.2893 -0.5539 -0.1188
   9223SM  H14A12335   4.646   2.132  12.082 -3.7946 -1.9080  1.6996
   9223SM  H14B12336   4.520   2.159  11.967  1.4769  2.6194  0.1180
   9223SM  H14C12337   4.686   2.125  11.910 -0.3659  0.1064 -0.0120
   9223SM   C1312338   4.450   1.935  12.078 -0.1505 -1.0033  0.1947
   9223SM  H13A12339   4.473   1.981  12.172  0.9112 -0.1612 -0.4462
   9223SM  H13B12340   4.420   1.832  12.089 -1.0073 -0.7197  0.5653
   9223SM  H13C12341   4.367   1.991  12.039 -0.0640 -1.6373 -0.9575
   9223SM   C1212342   4.701   1.879  12.041  0.0661 -0.0879  0.4164
   9223SM  H12A12343   4.787   1.918  11.990  0.4760 -1.4389  0.0370
   9223SM  H12B12344   4.714   1.774  12.018  0.3367 -0.0138  0.2248
   9223SM   C1112345   4.749   1.896  12.189 -0.2027  0.3050 -0.1912
   9223SM  H11A12346   4.837   1.829  12.194  0.7376  1.2710 -2.2147
   9223SM  H11B12347   4.661   1.865  12.249 -0.8655  0.1241 -1.2247
   9223SM     P12348   4.913   2.105  12.157  0.3008  0.1291 -0.0453
   9223SM   O1312349   4.947   2.033  12.036  0.3257 -0.1466  0.2563
   9223SM   O1412350   4.874   2.241  12.137 -0.2852 -0.2378  0.2050
   9223SM   O1112351   5.019   2.088  12.269  0.2222  0.1292 -0.3091
   9223SM   O1212352   4.792   2.029  12.226 -0.5233 -0.0614  0.4558
   9223SM   C1S12353   5.001   2.145  12.399 -0.4851 -0.4903 -0.0638
   9223SM   H1S12354   4.952   2.245  12.396  1.6941  0.6231 -0.7002
   9223SM   H1T12355   5.103   2.171  12.436  0.0532  0.3776 -1.9952
   9223SM    NF12356   4.921   2.139  12.628  0.2500 -0.0972 -0.4532
   9223SM   HNF12357   4.977   2.132  12.711 -1.3203  0.8817  0.7660
   9223SM   C2S12358   4.928   2.058  12.506 -0.5633 -0.7087  0.0695
   9223SM   H2S12359   4.822   2.043  12.477 -1.1735  0.7482  1.3487
   9223SM   C3S12360   4.997   1.919  12.513 -0.3456 -0.6499 -0.2827
   9223SM   H3S12361   5.105   1.944  12.521 -0.2788 -0.3112 -1.8714
   9223SM    O312362   5.001   1.844  12.390 -0.1682 -0.2788 -0.6601
   9223SM   HO312363   4.980   1.912  12.325  1.8595  0.7981 -0.2908
   9223SM   C4S12364   4.952   1.840  12.631  1.1175 -0.0600  0.2481
   9223SM   H4S12365   4.997   1.872  12.726  2.2110 -0.6603 -0.0526
   9223SM   C5S12366   4.853   1.752  12.620 -1.0688  0.1270  0.7588
   9223SM   H5S12367   4.795   1.756  12.527  2.1093  0.9511 -1.3416
   9223SM   C6S12368   4.800   1.655  12.726 -0.2400 -0.2504 -0.3113
   9223SM   H6S12369   4.847   1.556  12.705  2.1370  0.9502 -0.9852
   9223SM   H6T12370   4.693   1.629  12.717  0.5336 -3.8903 -0.7546
   9223SM   C7S12371   4.836   1.694  12.872  0.6878  0.4172  0.6330
   9223SM   H7S12372   4.811   1.798  12.901  1.7321  1.2428 -1.2905
   9223SM   H7T12373   4.946   1.688  12.888  0.5172 -0.0948  1.7066
   9223SM   C8S12374   4.766   1.593  12.974 -0.0192  0.0208 -0.4685
   9223SM   H8S12375   4.803   1.490  12.955  2.6438  1.2426 -2.4866
   9223SM   H8T12376   4.659   1.604  12.947 -0.2905  2.3856  1.2218
   9223SM   C9S12377   4.798   1.631  13.117  0.1953  0.3836  0.4035
   9223SM   H9S12378   4.771   1.738  13.129  1.0161  0.7901 -1.0654
   9223SM   H9T12379   4.908   1.617  13.127 -0.0321 -2.3287 -0.1498
   9223SM  C10S12380   4.718   1.555  13.223 -0.1135  0.2288 -1.1326
   9223SM  H10S12381   4.712   1.444  13.212  0.5339 -0.0791  1.2029
   9223SM  H10T12382   4.612   1.583  13.204 -0.8470 -1.1704  0.6343
   9223SM  C11S12383   4.772   1.588  13.358  0.5309  0.3830  0.0447
   9223SM  H11S12384   4.694   1.535  13.416 -0.6001  0.2981 -1.4952
   9223SM  H11T12385   4.770   1.696  13.384 -0.8327  0.0998  1.2130
   9223SM  C12S12386   4.911   1.533  13.394 -0.0843  0.3766 -0.4376
   9223SM  H12S12387   4.996   1.601  13.373  1.2530 -1.3773 -0.9479
   9223SM  H12T12388   4.932   1.441  13.336  0.7234  0.6882 -0.6490
   9223SM  C13S12389   4.916   1.489  13.545 -0.6429 -0.1767  0.4762
   9223SM  H13S12390   5.014   1.443  13.570 -1.5178 -0.9949  2.6499
   9223SM  H13T12391   4.831   1.419  13.564 -1.0067  0.0292 -0.3299
   9223SM  C14S12392   4.905   1.593  13.651  0.1445 -0.4574 -0.4665
   9223SM  H14S12393   4.808   1.644  13.634 -0.1563 -0.4847  0.9720
   9223SM  H14T12394   4.990   1.663  13.641  0.3608 -0.3735  1.4613
   9223SM  C15S12395   4.903   1.526  13.792 -0.0919 -0.1601  0.8678
   9223SM  H15S12396   4.977   1.443  13.780  1.1569  0.7387  1.9464
   9223SM  H15T12397   4.805   1.478  13.812 -0.2708  0.2319  0.9243
   9223SM  C16S12398   4.948   1.618  13.906  0.2174 -0.2809  0.3761
   9223SM  H16S12399   4.882   1.706  13.916 -1.1899 -1.5184  2.8935
   9223SM  H16T12400   5.045   1.658  13.870  0.5114  1.4902  2.8801
   9223SM  C17S12401   4.970   1.553  14.043 -0.1509 -0.3683 -0.2666
   9223SM  H17S12402   5.032   1.615  14.111  0.3002  0.5039 -1.4253
   9223SM  H17T12403   5.015   1.452  14.031 -0.1384 -0.7676  2.5913
   9223SM  C18S12404   4.839   1.527  14.117 -0.1322 -0.4178  0.2510
   9223SM  H18S12405   4.786   1.623  14.137  0.4776  0.0999 -0.5955
   9223SM  H18T12406   4.857   1.474  14.213 -2.6889  0.5060  1.3273
   9223SM  H18U12407   4.777   1.462  14.053  0.4274  0.0858 -0.8207
   9223SM   C1F12408   4.851   2.258  12.629 -0.0605  0.8757 -0.4469
   9223SM    OF12409   4.760   2.282  12.550 -0.0336 -0.6534 -0.3703
   9223SM   C2F12410   4.873   2.334  12.758  0.8700  0.7322  0.7152
   9223SM   H2F12411   4.903   2.271  12.844  1.1391 -0.1295 -0.0001
   9223SM   H2G12412   4.784   2.397  12.781 -0.2147 -0.9375  1.3038
   9223SM   C3F12413   4.978   2.446  12.731 -0.6809  0.2842 -0.4155
   9223SM   H3F12414   4.951   2.494  12.635  0.4979  1.0008 -0.4119
   9223SM   H3G12415   5.084   2.413  12.727  0.6445  4.1446 -1.6824
   9223SM   C4F12416   4.955   2.552  12.841  0.3847  0.8622 -0.1157
   9223SM   H4F12417   4.948   2.498  12.938 -1.6199 -0.2522 -0.8316
   9223SM   H4G12418   4.851   2.585  12.825 -0.4811 -1.3297  0.5172
   9223SM   C5F12419   5.062   2.666  12.840 -0.0913  0.2514  0.9226
   9223SM   H5F12420   5.036   2.730  12.753 -0.8614 -0.7253  0.4202
   9223SM   H5G12421   5.159   2.616  12.819 -0.1123  0.4829  0.2288
   9223SM   C6F12422   5.072   2.760  12.961 -0.6179 -0.7548 -0.2187
   9223SM   H6F12423   4.973   2.807  12.976 -0.2016  0.9791 -2.4249
   9223SM   H6G12424   5.139   2.843  12.932 -0.2435 -0.3900  1.6100
   9223SM   C7F12425   5.120   2.686  13.089 -0.0031 -0.2960  0.4930
   9223SM   H7F12426   5.219   2.637  13.077 -0.1660 -1.3261  2.8346
   9223SM   H7G12427   5.046   2.605  13.106  0.3691 -0.7715 -0.1115
   9223SM   C8F12428   5.119   2.775  13.213 -0.4746  0.0533  0.2771
   9223SM   H8F12429   5.020   2.822  13.229  0.0879  1.0099  1.0537
   9223SM   H8G12430   5.192   2.859  13.211 -1.4137  0.9244  1.2942
   9223SM   C9F12431   5.139   2.694  13.338 -0.1335  0.1089 -1.0516
   9223SM   H9F12432   5.245   2.660  13.330 -0.0928  0.2528 -1.1337
   9223SM   H9G12433   5.070   2.609  13.353  0.0407  0.1318 -0.0898
   9223SM  C10F12434   5.118   2.781  13.466  0.4104 -0.4766  0.1292
   9223SM  H10F12435   5.012   2.812  13.455  1.0717  1.8213 -0.3203
   9223SM  H10G12436   5.180   2.872  13.451  1.9455 -1.6375 -0.8913
   9223SM  C11F12437   5.159   2.724  13.607 -0.4967 -0.2436 -0.7575
   9223SM  H11F12438   5.266   2.699  13.625 -1.3378 -1.5076  3.6290
   9223SM  H11G12439   5.093   2.635  13.618  0.7778 -1.2579 -1.0623
   9223SM  C12F12440   5.126   2.817  13.720 -0.3325 -0.2081  0.1498
   9223SM  H12F12441   5.155   2.770  13.816  0.8507  0.8373  0.3322
   9223SM  H12G12442   5.019   2.846  13.732 -0.3476 -0.1474 -0.1267
   9223SM  C13F12443   5.218   2.939  13.734  0.1368  0.0887 -0.1471
   9223SM  H13F12444   5.232   2.990  13.636  0.9947  3.9070  1.7518
   9223SM  H13G12445   5.318   2.902  13.764 -0.4105  0.4856  2.3161
   9223SM  C14F12446   5.159   3.043  13.838  0.0206 -0.6193  0.6240
   9223SM  H14F12447   5.065   3.074  13.788 -1.7095 -0.5763  3.6970
   9223SM  H14G12448   5.236   3.122  13.853 -1.1281  0.1233  3.1757
   9223SM  C15F12449   5.118   2.983  13.970 -0.3338  0.7905 -0.8636
   9223SM  H15F12450   5.042   2.908  13.940  0.2614  0.4010 -1.4331
   9223SM  H15G12451   5.074   3.059  14.037 -0.3992  0.3040 -0.3485
   9223SM  C16F12452   5.228   2.911  14.049  0.1405  0.8333 -0.1148
   9223SM  H16F12453   5.326   2.964  14.042  1.4808 -1.2755  1.3346
   9223SM  H16G12454   5.254   2.816  13.996 -0.5772  0.5912 -0.0460
   9223SM  C17F12455   5.184   2.879  14.190 -0.1752 -0.1581  0.4212
   9223SM  H17F12456   5.088   2.822  14.186 -0.4806  0.3640 -3.3098
   9223SM  H17G12457   5.177   2.981  14.233  1.8898 -0.7495  2.3951
   9223SM  C18F12458   5.278   2.793  14.281 -0.2466 -0.4545  0.3813
   9223SM  H18F12459   5.380   2.836  14.288  0.4180 -2.2043  2.4760
   9223SM  H18G12460   5.288   2.703  14.217  0.5925  0.8138 -1.3604
   9223SM  C19F12461   5.221   2.753  14.427  0.3975  0.1550 -0.4909
   9223SM  H19F12462   5.130   2.692  14.415  0.0800  0.3394  0.8936
   9223SM  H19G12463   5.179   2.846  14.471 -0.0412  0.2288 -1.0596
   9223SM  C20F12464   5.323   2.696  14.517  0.2973  0.0702 -0.5514
   9223SM  H20F12465   5.419   2.750  14.499 -1.1964  2.7768 -1.0043
   9223SM  H20G12466   5.336   2.589  14.491 -1.2850 -0.4290  0.5600
   9223SM  C21F12467   5.284   2.699  14.670 -0.1208 -0.4270  0.3865
   9223SM  H21F12468   5.265   2.801  14.711 -1.6610 -0.0624 -1.1072
   9223SM  H21G12469   5.378   2.664  14.718 -1.1910 -2.6809  0.9747
   9223SM  C22F12470   5.174   2.591  14.691  0.3271 -0.1815  0.1861
   9223SM  H22F12471   5.196   2.496  14.637  0.7978 -0.3898  0.7231
   9223SM  H22G12472   5.076   2.624  14.652  0.0177  1.3614  2.1114
   9223SM  C23F12473   5.166   2.543  14.840  0.4284  0.1297  0.1288
   9223SM  H23F12474   5.144   2.624  14.913 -2.9727 -1.1847  0.7105
   9223SM  H23G12475   5.260   2.494  14.873  0.6791  0.0755 -0.6275
   9223SM  H23H12476   5.095   2.460  14.859  1.0555 -0.1453  1.3648
   9323SM     N12477   0.379   2.930  12.026 -0.2054 -0.0308 -0.4203
   9323SM   C1512478   0.486   2.842  12.081 -0.6905  0.5270 -0.2403
   9323SM  H15A12479   0.438   2.764  12.137  2.6993 -1.6366 -0.0428
   9323SM  H15B12480   0.546   2.902  12.148 -2.0602  0.8454  0.7486
   9323SM  H15C12481   0.551   2.790  12.012  0.3264 -0.8569  1.6338
   9323SM   C1412482   0.445   3.035  11.938  0.5501  0.0322 -0.1127
   9323SM  H14A12483   0.460   3.128  11.990 -2.8752  0.1497  0.9065
   9323SM  H14B12484   0.374   3.068  11.863 -2.9705 -0.6018  2.6405
   9323SM  H14C12485   0.535   2.998  11.892  1.8162  1.7008  0.9222
   9323SM   C1312486   0.288   2.854  11.948 -0.1056 -0.6290 -0.2183
   9323SM  H13A12487   0.338   2.827  11.857  0.5248  0.5620 -0.2383
   9323SM  H13B12488   0.205   2.912  11.911 -0.0853 -1.1195 -1.0566
   9323SM  H13C12489   0.234   2.787  12.015 -0.0622 -1.4261 -0.9656
   9323SM   C1212490   0.314   3.012  12.143 -0.1524  0.4623  0.2701
   9323SM  H12A12491   0.269   2.944  12.215  0.3007  0.4301  0.5260
   9323SM  H12B12492   0.226   3.060  12.104  0.1004  1.9386  1.4493
   9323SM   C1112493   0.386   3.122  12.223 -0.3467 -0.2056  0.3161
   9323SM  H11A12494   0.485   3.087  12.259 -0.8499 -1.8359  0.1904
   9323SM  H11B12495   0.314   3.149  12.303  0.0600  0.7147  0.3896
   9323SM     P12496   0.284   3.345  12.124 -0.0023  0.2405 -0.3734
   9323SM   O1312497   0.341   3.472  12.073 -0.3989 -0.1207 -0.2052
   9323SM   O1412498   0.164   3.294  12.054  0.1561  0.2396 -1.0017
   9323SM   O1112499   0.252   3.379  12.274  0.2813  0.0659  0.1900
   9323SM   O1212500   0.400   3.235  12.135 -0.2445  0.1222 -0.2168
   9323SM   C1S12501   0.352   3.450  12.351  0.5620 -0.1124  0.2833
   9323SM   H1S12502   0.370   3.550  12.306  1.1136  0.4308  1.6639
   9323SM   H1T12503   0.453   3.406  12.336  1.6176  2.3259 -0.1507
   9323SM    NF12504   0.411   3.550  12.574  0.4486 -0.6094  0.2194
   9323SM   HNF12505   0.474   3.513  12.642  0.8892 -1.0403 -0.4132
   9323SM   C2S12506   0.311   3.467  12.506  0.3455 -0.1113 -0.0571
   9323SM   H2S12507   0.214   3.516  12.487  1.3009  1.9330  0.0977
   9323SM   C3S12508   0.288   3.326  12.562 -0.3744 -0.0408 -0.0777
   9323SM   H3S12509   0.387   3.281  12.541  0.6313  1.3760  1.3451
   9323SM    O312510   0.183   3.252  12.504  0.3918  0.4596  0.8119
   9323SM   HO312511   0.173   3.290  12.416  0.9411  2.2021  1.4546
   9323SM   C4S12512   0.269   3.329  12.706  0.6874 -0.1009 -1.1074
   9323SM   H4S12513   0.356   3.307  12.770  0.5622  0.4544 -0.7401
   9323SM   C5S12514   0.155   3.351  12.778  0.0790  0.7763  0.2663
   9323SM   H5S12515   0.066   3.373  12.716 -0.0232 -1.9109 -0.6629
   9323SM   C6S12516   0.131   3.358  12.928  0.1247  0.5692 -0.2846
   9323SM   H6S12517   0.086   3.259  12.953  2.4526 -0.3478  0.5270
   9323SM   H6T12518   0.051   3.433  12.943 -0.3202  0.0719 -0.1352
   9323SM   C7S12519   0.251   3.382  13.025 -0.5670 -0.7747  0.2976
   9323SM   H7S12520   0.290   3.485  13.020 -0.9822 -0.6831 -1.9050
   9323SM   H7T12521   0.335   3.323  12.984 -1.6651 -0.6257 -2.3834
   9323SM   C8S12522   0.217   3.344  13.166 -0.1216  0.3764  0.0381
   9323SM   H8S12523   0.168   3.245  13.159  2.9618 -1.3458  0.8051
   9323SM   H8T12524   0.138   3.410  13.207 -0.3605  0.9384 -1.2508
   9323SM   C9S12525   0.342   3.350  13.253 -0.2065  0.2666 -0.1820
   9323SM   H9S12526   0.359   3.457  13.278 -1.7825 -0.0244  2.4393
   9323SM   H9T12527   0.429   3.312  13.195  0.1251 -1.5083  1.3708
   9323SM  C10S12528   0.338   3.256  13.379 -0.1443 -0.7898 -0.2734
   9323SM  H10S12529   0.436   3.239  13.429  1.1645 -0.5275 -2.6350
   9323SM  H10T12530   0.303   3.158  13.339 -2.0415  1.0576 -3.5412
   9323SM  C11S12531   0.245   3.305  13.495 -0.5211  0.7691 -0.2004
   9323SM  H11S12532   0.136   3.300  13.473 -0.5395  0.2109  0.0168
   9323SM  H11T12533   0.268   3.413  13.504  1.5278  0.6250 -2.8536
   9323SM  C12S12534   0.274   3.244  13.629 -0.5452  0.4158  0.0757
   9323SM  H12S12535   0.373   3.288  13.654  0.9004 -0.8677 -2.8707
   9323SM  H12T12536   0.275   3.134  13.616  1.4640  0.4650 -0.6710
   9323SM  C13S12537   0.180   3.275  13.745  0.0630  0.3282 -0.6047
   9323SM  H13S12538   0.083   3.228  13.717 -1.3115  2.2555  0.6799
   9323SM  H13T12539   0.160   3.384  13.750  0.9476  0.6754 -3.2275
   9323SM  C14S12540   0.221   3.223  13.885 -0.3636 -0.1285 -0.1665
   9323SM  H14S12541   0.285   3.300  13.931  0.8957 -1.0520 -0.3121
   9323SM  H14T12542   0.279   3.129  13.873 -0.8768 -0.5833  0.8261
   9323SM  C15S12543   0.096   3.196  13.973  0.1486  0.2921  0.7196
   9323SM  H15S12544   0.022   3.279  13.975  0.0882  0.2889 -0.6529
   9323SM  H15T12545   0.044   3.113  13.920 -0.1722  1.3400 -0.6730
   9323SM  C16S12546   0.122   3.157  14.115 -0.4447 -0.3029  0.1490
   9323SM  H16S12547   0.185   3.236  14.162 -2.0385  2.3051 -1.8355
   9323SM  H16T12548   0.189   3.069  14.121 -0.7099 -0.5785 -0.7581
   9323SM  C17S12549  -0.009   3.144  14.198  0.1226  0.0778  0.5846
   9323SM  H17S12550  -0.079   3.080  14.140  0.5852  0.3620 -0.3136
   9323SM  H17T12551  -0.063   3.241  14.208 -1.2785 -0.3310 -2.0433
   9323SM  C18S12552   0.014   3.070  14.323  0.7287 -0.9250  1.3643
   9323SM  H18S12553   0.088   2.992  14.298  0.4617 -0.4305 -1.2626
   9323SM  H18T12554  -0.077   3.015  14.356 -1.4213  1.1150 -0.7453
   9323SM  H18U12555   0.053   3.133  14.406  1.1255  1.2608 -0.3808
   9323SM   C1F12556   0.409   3.686  12.563  0.2730 -0.7058 -0.6624
   9323SM    OF12557   0.335   3.744  12.482 -0.6766  0.1610 -0.1132
   9323SM   C2F12558   0.506   3.754  12.647  0.0419 -0.0765  0.5042
   9323SM   H2F12559   0.554   3.823  12.575 -0.0764 -0.9536 -0.4345
   9323SM   H2G12560   0.583   3.676  12.665 -0.1728 -0.2144  0.8463
   9323SM   C3F12561   0.450   3.841  12.765 -0.5061  0.2467  0.6984
   9323SM   H3F12562   0.363   3.901  12.734  0.9935  1.2276 -1.9065
   9323SM   H3G12563   0.534   3.906  12.797  0.5033 -0.6208 -0.0915
   9323SM   C4F12564   0.413   3.760  12.886 -0.3964 -0.0240 -0.7873
   9323SM   H4F12565   0.490   3.688  12.922 -1.8195 -0.7437  0.9835
   9323SM   H4G12566   0.319   3.712  12.851 -1.3844  2.6022 -1.9667
   9323SM   C5F12567   0.379   3.849  13.003  0.4745 -0.2347  0.0666
   9323SM   H5F12568   0.285   3.905  12.984  0.5490  0.3076  1.2296
   9323SM   H5G12569   0.467   3.909  13.034 -0.0184  0.4791  0.1154
   9323SM   C6F12570   0.345   3.757  13.126  0.3602  0.0692  0.5041
   9323SM   H6F12571   0.435   3.692  13.137  1.3290  0.5366 -3.2618
   9323SM   H6G12572   0.261   3.691  13.097  2.3392 -1.6497 -1.8083
   9323SM   C7F12573   0.319   3.832  13.260 -0.0193  0.2012 -0.0969
   9323SM   H7F12574   0.248   3.916  13.246  2.0915  1.8145 -1.9520
   9323SM   H7G12575   0.403   3.894  13.298  0.2079  0.3719 -0.8717
   9323SM   C8F12576   0.264   3.740  13.366 -0.4807  0.2799  0.6754
   9323SM   H8F12577   0.333   3.653  13.372  0.7043  1.1178 -0.2854
   9323SM   H8G12578   0.162   3.707  13.337 -0.0386 -0.9566  0.4657
   9323SM   C9F12579   0.253   3.801  13.502 -0.4935 -0.2647 -0.0841
   9323SM   H9F12580   0.184   3.886  13.482 -0.1787 -0.3873 -1.8904
   9323SM   H9G12581   0.353   3.835  13.536 -0.7846  0.6273 -0.0977
   9323SM  C10F12582   0.193   3.700  13.601  0.8354  0.0375 -0.3625
   9323SM  H10F12583   0.270   3.622  13.622  1.3717  0.8480  0.7900
   9323SM  H10G12584   0.096   3.662  13.563 -0.7128  2.4875  0.8665
   9323SM  C11F12585   0.161   3.777  13.732 -0.3597 -0.4755  0.3148
   9323SM  H11F12586   0.088   3.858  13.711  0.4752 -0.0554 -1.0479
   9323SM  H11G12587   0.254   3.817  13.778 -0.0626 -0.9657  0.1482
   9323SM  C12F12588   0.102   3.693  13.842 -0.2575  0.6389  0.4544
   9323SM  H12F12589   0.170   3.606  13.856 -0.4412  0.7348  2.1174
   9323SM  H12G12590   0.006   3.645  13.816  0.2167 -1.5030  2.2945
   9323SM  C13F12591   0.096   3.763  13.977 -0.2354  0.7018  0.3144
   9323SM  H13F12592   0.027   3.850  13.970 -0.5284  0.3444 -1.6932
   9323SM  H13G12593   0.193   3.816  13.989  0.4324 -0.3407 -0.3473
   9323SM  C14F12594   0.067   3.665  14.091 -0.7668 -0.0046  0.8638
   9323SM  H14F12595   0.008   3.583  14.045 -0.7919  0.9008 -0.7873
   9323SM  H14G12596  -0.001   3.702  14.171 -0.6231 -1.2408  1.5933
   9323SM  C15F12597   0.197   3.607  14.150  0.2794 -0.7827  0.2419
   9323SM  H15F12598   0.269   3.619  14.067 -1.8400  0.1892 -1.5641
   9323SM  H15G12599   0.176   3.499  14.162  1.8059 -1.9292 -4.8878
   9323SM  C16F12600   0.242   3.691  14.268  0.2184  0.3061 -0.2437
   9323SM  H16F12601   0.160   3.678  14.343 -0.9719 -1.0015 -1.6915
   9323SM  H16G12602   0.250   3.798  14.240  0.1058  0.1744 -0.7880
   9323SM  C17F12603   0.383   3.642  14.301 -0.5289 -0.7811  0.1192
   9323SM  H17F12604   0.421   3.692  14.393 -0.2120 -1.4218  0.3432
   9323SM  H17G12605   0.451   3.685  14.225 -1.5500  2.8828  1.0698
   9323SM  C18F12606   0.393   3.490  14.325 -0.4688 -0.7063 -0.1133
   9323SM  H18F12607   0.500   3.464  14.341 -0.5815 -1.1424 -0.0506
   9323SM  H18G12608   0.364   3.430  14.236  0.9680 -0.6657 -0.6333
   9323SM  C19F12609   0.311   3.445  14.443 -0.4969  0.0434 -0.5969
   9323SM  H19F12610   0.315   3.336  14.464  0.0116  0.0716 -0.5382
   9323SM  H19G12611   0.205   3.444  14.409  0.1358 -1.0874 -2.7503
   9323SM  C20F12612   0.339   3.517  14.583 -0.1720  1.3757 -0.3291
   9323SM  H20F12613   0.310   3.623  14.593 -0.7227  1.0868  1.4122
   9323SM  H20G12614   0.449   3.512  14.602  0.1246 -4.2970 -1.6956
   9323SM  C21F12615   0.267   3.439  14.702 -0.4655 -0.1762  0.1239
   9323SM  H21F12616   0.300   3.486  14.797  3.7772 -0.9554 -0.7896
   9323SM  H21G12617   0.303   3.334  14.696  1.8739  0.6403 -2.0518
   9323SM  C22F12618   0.117   3.442  14.678  0.8827  0.1299  0.5102
   9323SM  H22F12619   0.086   3.364  14.606  0.3152 -0.6176  1.5318
   9323SM  H22G12620   0.102   3.540  14.627 -2.8760  1.0463  2.9562
   9323SM  C23F12621   0.043   3.426  14.806  0.0741  0.8501 -0.1806
   9323SM  H23F12622   0.066   3.329  14.854 -0.8838  0.7586  0.1188
   9323SM  H23G12623  -0.067   3.432  14.791 -0.4424  1.4355  3.1119
   9323SM  H23H12624   0.065   3.508  14.877  0.3833  0.6894 -0.0872
   9423SM     N12625   6.287   6.216  11.948 -1.0103  0.2088  0.1300
   9423SM   C1512626   6.237   6.168  12.083  0.1856  0.7186 -0.1695
   9423SM  H15A12627   6.317   6.168  12.155 -2.6800  2.2445  3.3061
   9423SM  H15B12628   6.209   6.063  12.088  1.2470  0.4892  2.0201
   9423SM  H15C12629   6.152   6.225  12.116 -0.6312 -0.8409  0.5741
   9423SM   C1412630   6.362   6.113  11.878 -0.5487  0.5017  0.5006
   9423SM  H14A12631   6.386   6.148  11.778 -0.4851  1.5447  0.8722
   9423SM  H14B12632   6.304   6.022  11.871 -0.3066  0.4491 -1.5307
   9423SM  H14C12633   6.459   6.110  11.925 -0.0212  2.3658 -0.3591
   9423SM   C1312634   6.157   6.233  11.869  0.3510  0.4112  0.0545
   9423SM  H13A12635   6.087   6.299  11.919  0.6985  0.5978  0.2910
   9423SM  H13B12636   6.106   6.142  11.841 -1.5724  1.1555  0.8989
   9423SM  H13C12637   6.178   6.285  11.776 -1.9971 -1.8244 -1.8901
   9423SM   C1212638   6.350   6.358  11.960 -0.2861 -0.4373 -0.1031
   9423SM  H12A12639   6.436   6.350  12.024 -0.3668 -1.5736 -0.1184
   9423SM  H12B12640   6.278   6.426  12.003  1.2142  1.0527  0.1284
   9423SM   C1112641   6.402   6.424  11.827 -0.3683  0.2103  0.6064
   9423SM  H11A12642   6.469   6.358  11.769 -0.9920 -1.3315  1.5585
   9423SM  H11B12643   6.461   6.510  11.864  2.8340 -0.8855 -1.6016
   9423SM     P12644   6.223   6.598  11.737  0.1342 -0.0722 -0.2964
   9423SM   O1312645   6.302   6.679  11.641  0.0256  0.5056 -0.0740
   9423SM   O1412646   6.078   6.581  11.713  0.0305 -0.0776  0.8567
   9423SM   O1112647   6.251   6.666  11.880  0.5424 -0.2400  0.0605
   9423SM   O1212648   6.291   6.448  11.741  0.4123 -0.0117 -0.3288
   9423SM   C1S12649   6.142   6.648  11.973  1.0256 -0.1033 -1.0330
   9423SM   H1S12650   6.089   6.551  11.963 -0.3442  0.3379  1.3016
   9423SM   H1T12651   6.067   6.729  11.959  0.3689 -0.9618 -2.7606
   9423SM    NF12652   6.091   6.616  12.233  0.4558 -0.9064 -0.9768
   9423SM   HNF12653   6.079   6.693  12.295  0.1367  1.6107 -3.9335
   9423SM   C2S12654   6.192   6.656  12.129  0.2572  0.0171  1.1458
   9423SM   H2S12655   6.278   6.586  12.134  0.6458  0.1496 -1.7574
   9423SM   C3S12656   6.252   6.792  12.156 -0.3691  0.2726  0.0562
   9423SM   H3S12657   6.177   6.873  12.149  0.3737  0.8706 -1.3747
   9423SM    O312658   6.345   6.828  12.051  1.2132 -0.6055  0.1376
   9423SM   HO312659   6.329   6.757  11.988  0.5405 -2.1442  1.9234
   9423SM   C4S12660   6.340   6.802  12.279 -0.1400  1.2194  0.1670
   9423SM   H4S12661   6.435   6.748  12.268 -0.1471  1.2376  0.0120
   9423SM   C5S12662   6.299   6.863  12.395  0.0155  0.2078 -0.0596
   9423SM   H5S12663   6.201   6.913  12.398 -1.1649 -2.0128  0.3086
   9423SM   C6S12664   6.363   6.846  12.529  0.1121 -0.2704  0.1118
   9423SM   H6S12665   6.399   6.941  12.572 -0.8696 -1.4629  3.9286
   9423SM   H6T12666   6.459   6.790  12.522 -0.4872 -1.2294 -0.8697
   9423SM   C7S12667   6.267   6.786  12.636  0.2204 -0.5782 -0.3663
   9423SM   H7S12668   6.219   6.695  12.596 -1.8750  0.9475 -1.5303
   9423SM   H7T12669   6.179   6.853  12.640  0.3194 -0.3791 -1.2463
   9423SM   C8S12670   6.326   6.765  12.777  0.6656  0.0742  0.0138
   9423SM   H8S12671   6.377   6.862  12.793  0.3925  0.1436  0.4811
   9423SM   H8T12672   6.410   6.693  12.782  0.8402  0.3419  1.0581
   9423SM   C9S12673   6.216   6.737  12.888 -0.4266 -0.7301 -0.4459
   9423SM   H9S12674   6.166   6.649  12.843  0.1291 -0.7556 -1.0320
   9423SM   H9T12675   6.151   6.825  12.906  0.0092 -0.7361  1.3247
   9423SM  C10S12676   6.289   6.699  13.018  0.5875  0.4074  0.1025
   9423SM  H10S12677   6.341   6.780  13.074 -0.7792  0.7181  0.9482
   9423SM  H10T12678   6.375   6.631  12.996 -0.1469 -0.2757 -0.7668
   9423SM  C11S12679   6.195   6.626  13.111 -0.5231 -0.2773  0.2621
   9423SM  H11S12680   6.177   6.525  13.069  0.6259  0.4775 -2.2399
   9423SM  H11T12681   6.099   6.679  13.124  0.2793  1.4592 -0.4884
   9423SM  C12S12682   6.265   6.607  13.246 -0.8872  0.3529 -0.1898
   9423SM  H12S12683   6.286   6.708  13.289  0.5409  0.5544 -1.2965
   9423SM  H12T12684   6.353   6.540  13.246  0.0042  1.3859  2.1711
   9423SM  C13S12685   6.175   6.529  13.345  0.4656 -0.2786 -0.0878
   9423SM  H13S12686   6.169   6.423  13.314  2.3898 -0.4501  0.0049
   9423SM  H13T12687   6.074   6.576  13.341  0.7912  0.6232  1.3128
   9423SM  C14S12688   6.214   6.546  13.490  0.4333  0.2442  0.3964
   9423SM  H14S12689   6.180   6.650  13.512 -0.7829  0.2270 -1.2083
   9423SM  H14T12690   6.325   6.550  13.488  0.4530  3.0683  1.6704
   9423SM  C15S12691   6.159   6.458  13.599  0.2565 -0.5331 -0.6172
   9423SM  H15S12692   6.170   6.351  13.569  0.4813 -0.7023  0.0679
   9423SM  H15T12693   6.048   6.468  13.606  0.0482 -1.7057 -1.7072
   9423SM  C16S12694   6.232   6.483  13.738 -0.7333 -0.0470 -0.3910
   9423SM  H16S12695   6.225   6.593  13.752  2.5726  0.3489 -1.0893
   9423SM  H16T12696   6.342   6.470  13.731 -0.3762  0.8768  2.4058
   9423SM  C17S12697   6.181   6.395  13.856 -0.0206 -0.5601  0.5812
   9423SM  H17S12698   6.193   6.290  13.821  0.9954 -0.3634  0.2975
   9423SM  H17T12699   6.073   6.408  13.875 -0.5691 -0.9926 -1.8722
   9423SM  C18S12700   6.261   6.414  13.980  0.2324 -1.3778 -0.2563
   9423SM  H18S12701   6.214   6.373  14.073  1.7078  4.0004  3.3304
   9423SM  H18T12702   6.267   6.520  14.011 -1.4114 -1.9959  2.6162
   9423SM  H18U12703   6.365   6.380  13.961  0.4783 -1.2855  0.8621
   9423SM   C1F12704   6.043   6.494  12.238  0.2716 -0.2044  0.5484
   9423SM    OF12705   6.099   6.407  12.176  0.0285  0.3165  0.0769
   9423SM   C2F12706   5.930   6.481  12.333  0.1948 -0.0254  0.5900
   9423SM   H2F12707   5.896   6.376  12.318 -1.1290  0.4999 -0.2442
   9423SM   H2G12708   5.853   6.556  12.305  0.6968  0.6513  1.0033
   9423SM   C3F12709   5.966   6.499  12.485 -0.4463 -0.3729  0.0728
   9423SM   H3F12710   5.966   6.606  12.514 -2.0539  0.2884 -2.0811
   9423SM   H3G12711   6.059   6.444  12.509 -1.4632 -1.7830  0.9276
   9423SM   C4F12712   5.867   6.428  12.590  0.0208  0.2526 -0.1420
   9423SM   H4F12713   5.864   6.320  12.563 -1.9240  1.1509 -4.2267
   9423SM   H4G12714   5.762   6.464  12.591 -0.4415 -1.0281  0.5987
   9423SM   C5F12715   5.933   6.429  12.731 -0.8206  0.2904  0.2585
   9423SM   H5F12716   5.952   6.537  12.749 -1.1210  0.1992  1.1850
   9423SM   H5G12717   6.026   6.369  12.720 -0.8248 -0.2346  2.4727
   9423SM   C6F12718   5.836   6.373  12.835  0.6179 -0.9251 -0.4370
   9423SM   H6F12719   5.819   6.265  12.815  1.1029 -1.3151  1.0972
   9423SM   H6G12720   5.736   6.420  12.829  1.4317  1.4078  2.1843
   9423SM   C7F12721   5.883   6.384  12.981 -0.4823 -0.6477  0.1968
   9423SM   H7F12722   5.904   6.492  12.999  0.6117 -0.5962 -1.2307
   9423SM   H7G12723   5.987   6.345  12.985  0.7003  2.2343 -0.2402
   9423SM   C8F12724   5.798   6.336  13.095 -0.3433  0.0885  0.2200
   9423SM   H8F12725   5.787   6.226  13.091 -0.9562  0.1641 -0.4137
   9423SM   H8G12726   5.697   6.384  13.097 -0.6792 -0.5838 -0.1653
   9423SM   C9F12727   5.860   6.373  13.226  0.0707  0.3462 -0.5838
   9423SM   H9F12728   5.841   6.479  13.255  1.8343  0.3592  0.6741
   9423SM   H9G12729   5.969   6.356  13.219 -0.0016 -0.2468 -0.2818
   9423SM  C10F12730   5.784   6.300  13.342  0.1434 -0.0349  0.9743
   9423SM  H10F12731   5.798   6.191  13.326 -0.1563  0.2866 -2.0832
   9423SM  H10G12732   5.675   6.309  13.322  0.7484 -0.6145 -3.3412
   9423SM  C11F12733   5.826   6.330  13.487 -0.1411  0.0198  0.5551
   9423SM  H11F12734   5.864   6.435  13.486  3.0697 -1.0350 -0.5341
   9423SM  H11G12735   5.918   6.273  13.513  0.2323  1.1251  1.7738
   9423SM  C12F12736   5.707   6.315  13.580 -0.1231  0.2731  0.5160
   9423SM  H12F12737   5.738   6.227  13.642  0.9435  1.6218  1.9703
   9423SM  H12G12738   5.612   6.291  13.528  1.3288  0.0401 -2.1781
   9423SM  C13F12739   5.693   6.437  13.669 -0.4927 -0.3308 -0.1173
   9423SM  H13F12740   5.653   6.519  13.605 -0.0455 -0.4556 -0.5697
   9423SM  H13G12741   5.791   6.470  13.709  0.2366 -1.9695 -0.4526
   9423SM  C14F12742   5.585   6.426  13.777  0.7828 -0.2306  0.1890
   9423SM  H14F12743   5.605   6.327  13.823  0.7374 -0.6818 -0.7396
   9423SM  H14G12744   5.485   6.425  13.729  1.6820  0.1467 -1.7938
   9423SM  C15F12745   5.595   6.558  13.861  0.2046  0.1136 -0.0486
   9423SM  H15F12746   5.615   6.649  13.800  0.2328 -0.0302 -0.2574
   9423SM  H15G12747   5.684   6.552  13.927  0.0607 -0.1806  0.1154
   9423SM  C16F12748   5.475   6.590  13.948 -0.2227  0.0813 -0.3608
   9423SM  H16F12749   5.404   6.604  13.864 -0.1042  0.6398 -0.3760
   9423SM  H16G12750   5.479   6.683  14.009 -2.0583 -0.2448  0.3124
   9423SM  C17F12751   5.437   6.481  14.045 -0.2435 -0.8023  1.0171
   9423SM  H17F12752   5.525   6.464  14.112  0.0815 -0.3742  0.7035
   9423SM  H17G12753   5.420   6.396  13.976  1.2243  0.2323 -0.7083
   9423SM  C18F12754   5.318   6.512  14.121  0.2489  0.0478  0.5786
   9423SM  H18F12755   5.294   6.419  14.177 -0.2515  0.5113  1.1489
   9423SM  H18G12756   5.238   6.532  14.046  2.1299  1.0043 -1.2557
   9423SM  C19F12757   5.328   6.625  14.233 -0.7306  0.8652 -0.0962
   9423SM  H19F12758   5.351   6.720  14.179 -0.6866  1.0565  0.2589
   9423SM  H19G12759   5.418   6.605  14.294 -0.2533  2.1244 -0.3468
   9423SM  C20F12760   5.206   6.637  14.323  0.4772  0.2585 -0.0516
   9423SM  H20F12761   5.232   6.696  14.414 -1.4783 -1.4440  1.7125
   9423SM  H20G12762   5.187   6.531  14.352  3.3096  0.1257  1.6277
   9423SM  C21F12763   5.083   6.695  14.255  0.5936 -0.2349  0.6224
   9423SM  H21F12764   5.056   6.627  14.171  2.1299 -0.4010  0.2219
   9423SM  H21G12765   5.105   6.791  14.204  0.6037 -0.0644  0.9498
   9423SM  C22F12766   4.950   6.707  14.333 -0.4535  0.2472 -0.0113
   9423SM  H22F12767   4.941   6.611  14.388 -0.7586 -1.0710 -2.2663
   9423SM  H22G12768   4.867   6.706  14.260 -0.5049 -2.8393 -0.0434
   9423SM  C23F12769   4.930   6.823  14.430 -0.3678 -0.2831  0.0811
   9423SM  H23F12770   4.823   6.832  14.461 -0.5121 -0.8708 -0.2286
   9423SM  H23G12771   4.958   6.922  14.389  2.6417 -0.9550  0.3080
   9423SM  H23H12772   4.980   6.803  14.527 -4.7941  0.4829  2.8374
   9523SM     N12773   2.000   3.912  12.411  0.3397  0.2039 -0.0729
   9523SM   C1512774   1.919   3.968  12.295 -0.3425  0.1223  0.8481
   9523SM  H15A12775   1.987   4.016  12.225 -1.3962 -1.9483 -1.7781
   9523SM  H15B12776   1.851   4.041  12.335  0.7960  1.4823  0.3815
   9523SM  H15C12777   1.874   3.886  12.241  0.4676 -0.7642  1.4909
   9523SM   C1412778   2.062   4.028  12.483 -0.4534 -0.0904 -0.1178
   9523SM  H14A12779   2.122   4.093  12.420  1.3717  1.3808  2.9260
   9523SM  H14B12780   2.134   3.989  12.554  0.2647 -0.3053 -0.9411
   9523SM  H14C12781   1.988   4.089  12.532  1.4121  0.1484  2.6596
   9523SM   C1312782   1.896   3.847  12.506 -0.5981  0.5749  0.0926
   9523SM  H13A12783   1.944   3.777  12.571  2.1170  1.9930 -0.2540
   9523SM  H13B12784   1.813   3.802  12.453 -0.9378 -0.8952  1.7954
   9523SM  H13C12785   1.850   3.925  12.565  0.5174  1.9188 -0.7553
   9523SM   C1212786   2.099   3.811  12.354  0.2638 -0.1759  0.1684
   9523SM  H12A12787   2.167   3.863  12.288 -0.3980  1.6916  0.8831
   9523SM  H12B12788   2.048   3.742  12.289  0.0875 -0.9084  1.0694
   9523SM   C1112789   2.173   3.720  12.448 -0.1918  0.1720  0.5951
   9523SM  H11A12790   2.239   3.783  12.512  0.8607 -1.7312  1.4868
   9523SM  H11B12791   2.248   3.665  12.387  0.0496  2.6790 -1.5302
   9523SM     P12792   2.021   3.501  12.473  0.0052  0.6827 -0.2945
   9523SM   O1312793   1.874   3.540  12.452  0.2489  0.7548  0.4758
   9523SM   O1412794   2.103   3.460  12.363  0.6255 -0.0423 -0.5897
   9523SM   O1112795   2.029   3.395  12.588 -0.2773  0.5222  0.5501
   9523SM   O1212796   2.099   3.626  12.532  0.4825 -0.1219  0.0869
   9523SM   C1S12797   2.138   3.372  12.672  0.4607 -0.5246 -0.1329
   9523SM   H1S12798   2.202   3.461  12.690 -0.4860  0.2343 -0.4230
   9523SM   H1T12799   2.202   3.292  12.630 -0.8696 -1.0710 -1.2193
   9523SM    NF12800   2.198   3.352  12.915 -0.1253 -0.3365 -0.1204
   9523SM   HNF12801   2.234   3.270  12.958 -1.3500  0.4123  2.5530
   9523SM   C2S12802   2.091   3.332  12.815  0.5637  0.6024 -0.3082
   9523SM   H2S12803   2.003   3.395  12.841 -0.4539 -0.5782 -0.8016
   9523SM   C3S12804   2.043   3.183  12.805  0.2358  0.7517 -0.2404
   9523SM   H3S12805   2.133   3.126  12.773 -0.3436 -0.2108 -0.1933
   9523SM    O312806   1.946   3.162  12.701  0.4450 -0.4664  0.2570
   9523SM   HO312807   1.964   3.241  12.648 -2.0332 -1.4082 -2.2300
   9523SM   C4S12808   1.996   3.134  12.935  0.0603  0.7952  0.6118
   9523SM   H4S12809   2.070   3.065  12.980 -1.7371 -1.8812 -0.3239
   9523SM   C5S12810   1.879   3.157  12.996 -0.3032 -0.5117  0.1752
   9523SM   H5S12811   1.802   3.214  12.942 -1.1873 -0.7434  1.1488
   9523SM   C6S12812   1.839   3.099  13.126  0.8051  0.3302 -0.8592
   9523SM   H6S12813   1.782   3.005  13.107 -0.8592  1.2696 -0.7469
   9523SM   H6T12814   1.756   3.156  13.173 -0.5517 -1.2509 -1.2122
   9523SM   C7S12815   1.950   3.086  13.223  0.5376 -0.3429  0.0625
   9523SM   H7S12816   2.020   3.173  13.217 -0.4611  0.5570  1.0376
   9523SM   H7T12817   2.024   3.005  13.207 -0.3367 -1.7649  2.6283
   9523SM   C8S12818   1.913   3.062  13.371 -0.2155 -0.1426  0.5816
   9523SM   H8S12819   1.861   2.965  13.387 -0.1329 -0.3511 -0.3489
   9523SM   H8T12820   1.842   3.138  13.409 -1.0243 -0.4709 -0.2408
   9523SM   C9S12821   2.038   3.068  13.468  0.4695  0.0667  0.1257
   9523SM   H9S12822   2.089   3.165  13.446  2.8335 -1.5179 -1.8558
   9523SM   H9T12823   2.099   2.980  13.441 -1.6332 -1.8080  1.0828
   9523SM  C10S12824   2.003   3.072  13.621  0.3890 -0.1998  1.0017
   9523SM  H10S12825   1.955   2.975  13.648  0.3889 -0.0770  1.4410
   9523SM  H10T12826   1.919   3.144  13.631 -0.0854  0.1277 -3.4089
   9523SM  C11S12827   2.121   3.091  13.720 -0.2517  0.3889  0.4385
   9523SM  H11S12828   2.148   3.197  13.704 -2.4167  1.1136  1.1400
   9523SM  H11T12829   2.207   3.028  13.687 -0.0409  1.8228 -1.9837
   9523SM  C12S12830   2.088   3.075  13.869  0.0399 -0.4261  0.4658
   9523SM  H12S12831   2.023   2.987  13.889 -0.1029 -0.1133  1.4150
   9523SM  H12T12832   2.018   3.157  13.897 -0.9518 -1.5956  1.5358
   9523SM  C13S12833   2.209   3.081  13.964 -0.2967 -0.2838 -0.5268
   9523SM  H13S12834   2.258   3.180  13.956 -0.7906  0.2641  2.3073
   9523SM  H13T12835   2.285   3.008  13.928 -0.8781 -0.2512 -1.8698
   9523SM  C14S12836   2.175   3.063  14.113  0.3249  0.3337 -0.1018
   9523SM  H14S12837   2.134   2.960  14.122  1.8423 -0.2074  1.2360
   9523SM  H14T12838   2.092   3.133  14.136 -0.5805 -0.8791  0.3971
   9523SM  C15S12839   2.299   3.083  14.203  0.1483  0.9631 -0.4678
   9523SM  H15S12840   2.329   3.189  14.187  0.1426  1.2548  1.2047
   9523SM  H15T12841   2.385   3.029  14.158  0.1077  1.5923 -1.3300
   9523SM  C16S12842   2.281   3.030  14.348 -0.4909 -0.4466 -0.1892
   9523SM  H16S12843   2.381   3.029  14.397 -0.5441  2.3996  0.1472
   9523SM  H16T12844   2.240   2.927  14.338 -0.9100 -0.2996 -0.0095
   9523SM  C17S12845   2.188   3.113  14.436 -0.2733  0.2649 -0.0803
   9523SM  H17S12846   2.169   3.048  14.524  0.6853 -1.8152 -1.3278
   9523SM  H17T12847   2.093   3.125  14.381  0.3691 -1.8346 -1.7668
   9523SM  C18S12848   2.244   3.250  14.479 -0.1110 -0.5844  0.0985
   9523SM  H18S12849   2.351   3.238  14.507  0.4861  1.2637 -1.2078
   9523SM  H18T12850   2.180   3.298  14.557 -1.0428  0.9238 -1.5243
   9523SM  H18U12851   2.251   3.324  14.397  2.3114 -1.2152 -0.3263
   9523SM   C1F12852   2.232   3.474  12.955 -0.0598  0.6623  0.1095
   9523SM    OF12853   2.177   3.572  12.910  0.4628  0.8882  0.2501
   9523SM   C2F12854   2.344   3.489  13.052  0.2565 -1.0512 -0.4184
   9523SM   H2F12855   2.379   3.594  13.043  2.1134 -1.6063  0.0026
   9523SM   H2G12856   2.433   3.424  13.039 -0.0946 -1.2345 -2.1460
   9523SM   C3F12857   2.279   3.490  13.199 -0.4911 -0.2896 -0.1506
   9523SM   H3F12858   2.211   3.402  13.206 -0.7958  0.0766  2.3898
   9523SM   H3G12859   2.212   3.579  13.196 -0.3686 -0.2226 -1.4987
   9523SM   C4F12860   2.378   3.498  13.322  0.2386 -0.1570 -0.3506
   9523SM   H4F12861   2.431   3.595  13.325  0.9180 -0.5238  0.0180
   9523SM   H4G12862   2.455   3.421  13.299  0.2257 -0.2318 -0.1499
   9523SM   C5F12863   2.304   3.477  13.452  0.3676 -0.6267 -0.2862
   9523SM   H5F12864   2.260   3.375  13.457 -0.9622 -0.1873 -2.0209
   9523SM   H5G12865   2.218   3.548  13.449  0.7154 -0.2403 -2.5671
   9523SM   C6F12866   2.402   3.522  13.554 -0.1289 -0.6156 -0.4532
   9523SM   H6F12867   2.432   3.628  13.541  1.2255 -0.5455  2.2738
   9523SM   H6G12868   2.502   3.474  13.542 -0.0706 -0.2703 -1.3640
   9523SM   C7F12869   2.354   3.506  13.692 -0.3503 -0.3465  0.1344
   9523SM   H7F12870   2.317   3.403  13.709  0.6892 -0.7832 -0.1536
   9523SM   H7G12871   2.264   3.570  13.703 -0.5207 -0.7733  1.4141
   9523SM   C8F12872   2.462   3.530  13.796  0.0603  0.5203  0.2207
   9523SM   H8F12873   2.514   3.627  13.787 -0.6423  1.0132  1.3058
   9523SM   H8G12874   2.538   3.453  13.771  1.6712  2.1716 -0.1698
   9523SM   C9F12875   2.409   3.524  13.943 -0.1435 -0.4379  0.0944
   9523SM   H9F12876   2.402   3.413  13.956  0.9532 -0.7636 -1.7313
   9523SM   H9G12877   2.310   3.575  13.938 -0.0649 -0.2579  0.3427
   9523SM  C10F12878   2.506   3.584  14.036 -0.2078 -0.1532 -0.1965
   9523SM  H10F12879   2.524   3.690  14.007 -2.5439  0.2957 -0.1719
   9523SM  H10G12880   2.593   3.515  14.031 -0.2658 -0.2128 -0.3876
   9523SM  C11F12881   2.445   3.583  14.175  0.5008 -0.0476  0.3600
   9523SM  H11F12882   2.430   3.476  14.202 -4.1107 -0.6901 -3.3502
   9523SM  H11G12883   2.346   3.633  14.177  1.3075  1.6334  2.0770
   9523SM  C12F12884   2.520   3.664  14.283 -0.4975 -0.2234 -0.0632
   9523SM  H12F12885   2.506   3.771  14.258 -0.3677 -0.1925 -0.0030
   9523SM  H12G12886   2.627   3.632  14.283 -0.5328 -0.4378 -2.2263
   9523SM  C13F12887   2.455   3.654  14.419  0.5395 -0.8452  0.0399
   9523SM  H13F12888   2.452   3.550  14.460  0.7590 -0.2799  1.5489
   9523SM  H13G12889   2.351   3.688  14.402  0.8842 -0.3087 -1.0605
   9523SM  C14F12890   2.516   3.759  14.514  0.2264 -0.5600 -0.0171
   9523SM  H14F12891   2.476   3.859  14.489  0.4279  0.2218  2.5087
   9523SM  H14G12892   2.626   3.748  14.501 -0.0488 -0.2001 -4.2126
   9523SM  C15F12893   2.480   3.710  14.655 -0.1252  0.1428  0.4136
   9523SM  H15F12894   2.520   3.608  14.675 -1.5600 -0.6089 -0.4008
   9523SM  H15G12895   2.371   3.714  14.676 -0.5836 -1.5363 -1.3315
   9523SM  C16F12896   2.545   3.803  14.758  0.1056 -0.1488  0.5575
   9523SM  H16F12897   2.652   3.798  14.730 -0.1755  1.8404 -1.1108
   9523SM  H16G12898   2.537   3.772  14.865  2.0516 -0.4560  0.6434
   9523SM  C17F12899   2.500   3.954  14.752  0.1074  0.0266 -0.0347
   9523SM  H17F12900   2.468   3.987  14.854  1.1029  1.5450 -0.1841
   9523SM  H17G12901   2.416   3.973  14.682 -0.8206  1.8059  1.4718
   9523SM  C18F12902   2.609   4.049  14.714  0.0451  0.1436 -0.2610
   9523SM  H18F12903   2.646   4.004  14.619  2.3177 -3.1334  1.9362
   9523SM  H18G12904   2.693   4.030  14.785  0.2708  2.5774  0.2079
   9523SM  C19F12905   2.564   4.199  14.711 -0.0236 -0.0835  0.3793
   9523SM  H19F12906   2.652   4.263  14.730  0.5808 -1.2689  1.7738
   9523SM  H19G12907   2.495   4.216  14.797 -0.0870 -1.5262  0.6378
   9523SM  C20F12908   2.507   4.230  14.573  0.2010  0.3301  0.1441
   9523SM  H20F12909   2.416   4.169  14.556  0.5774 -0.5156  1.0681
   9523SM  H20G12910   2.578   4.186  14.501 -0.7940 -0.3865 -0.4163
   9523SM  C21F12911   2.487   4.381  14.545  0.2453 -0.4692 -0.4310
   9523SM  H21F12912   2.587   4.423  14.521  1.2953 -2.1579  0.7618
   9523SM  H21G12913   2.454   4.436  14.637  1.2759  2.4179 -1.6524
   9523SM  C22F12914   2.385   4.409  14.431  0.6625 -0.0975  0.1016
   9523SM  H22F12915   2.353   4.516  14.429  0.2616 -0.1931  0.8478
   9523SM  H22G12916   2.290   4.355  14.453 -0.9576  1.3444 -2.7274
   9523SM  C23F12917   2.435   4.362  14.294 -0.3170  0.3052 -0.2807
   9523SM  H23F12918   2.466   4.255  14.297 -1.1400 -0.0919 -3.2019
   9523SM  H23G12919   2.513   4.434  14.260 -0.8870  2.1936  2.1116
   9523SM  H23H12920   2.358   4.365  14.214  0.1748  1.0452 -0.7384
   9623SM     N12921   2.916   2.134  11.839 -0.3449 -0.1229 -0.3625
   9623SM   C1512922   2.912   2.109  11.987 -0.2694  0.2428 -0.3551
   9623SM  H15A12923   2.963   2.185  12.044  0.6456 -0.5599 -0.0571
   9623SM  H15B12924   2.956   2.012  12.007 -0.7953  0.3673  1.6147
   9623SM  H15C12925   2.809   2.096  12.018 -0.4983 -1.5120 -1.7013
   9623SM   C1412926   3.057   2.109  11.780  0.1969  0.3077 -0.3120
   9623SM  H14A12927   3.089   2.008  11.800 -0.6016  0.2690  0.8592
   9623SM  H14B12928   3.121   2.174  11.837 -0.9167  0.2119  1.0767
   9623SM  H14C12929   3.050   2.140  11.676  1.3025  1.2119 -0.1366
   9623SM   C1312930   2.821   2.042  11.779 -0.6463 -0.1836 -0.7853
   9623SM  H13A12931   2.823   1.941  11.817 -1.7456  0.3045  0.6532
   9623SM  H13B12932   2.817   2.048  11.671  0.9614  0.3903 -0.8415
   9623SM  H13C12933   2.720   2.063  11.812 -0.2107 -1.7502  1.8290
   9623SM   C1212934   2.872   2.278  11.817 -0.1610  0.4114 -0.3214
   9623SM  H12A12935   2.855   2.281  11.710  0.6071 -1.6559 -0.5542
   9623SM  H12B12936   2.944   2.351  11.849  0.3653  1.1358 -2.8839
   9623SM   C1112937   2.736   2.321  11.881 -0.3098  0.0451 -0.4847
   9623SM  H11A12938   2.708   2.425  11.852  0.2187  0.9192  1.8651
   9623SM  H11B12939   2.745   2.323  11.992 -0.7132  0.2760 -0.4521
   9623SM     P12940   2.486   2.245  11.875 -0.0583  0.9203 -0.3774
   9623SM   O1312941   2.422   2.314  11.760 -0.2085  0.1639  0.4200
   9623SM   O1412942   2.432   2.108  11.916  0.5761 -0.4207  0.1503
   9623SM   O1112943   2.483   2.345  11.996  0.5185  0.4996  0.0730
   9623SM   O1212944   2.634   2.229  11.847 -0.6325 -0.1308  0.0771
   9623SM   C1S12945   2.445   2.303  12.126 -0.0909  0.5197 -0.7190
   9623SM   H1S12946   2.476   2.197  12.136 -0.3856  0.3807 -1.2534
   9623SM   H1T12947   2.334   2.306  12.134 -0.0421 -0.1595  0.4884
   9623SM    NF12948   2.502   2.299  12.369 -0.1289 -0.4304  0.5892
   9623SM   HNF12949   2.437   2.340  12.432 -0.0542  1.2544 -0.3695
   9623SM   C2S12950   2.515   2.374  12.243  0.3123 -0.5014  0.4816
   9623SM   H2S12951   2.623   2.374  12.216  0.4748 -1.3499  1.0742
   9623SM   C3S12952   2.481   2.527  12.255 -0.2048 -0.0021 -0.3953
   9623SM   H3S12953   2.372   2.540  12.275 -0.1147 -1.8808  1.5994
   9623SM    O312954   2.504   2.593  12.130  0.1362  0.2172 -0.1253
   9623SM   HO312955   2.517   2.524  12.064  3.0135  1.2521 -0.7648
   9623SM   C4S12956   2.568   2.584  12.356 -0.0176 -0.2387  0.0040
   9623SM   H4S12957   2.675   2.576  12.332 -0.4223  0.8767 -2.4031
   9623SM   C5S12958   2.531   2.629  12.476  0.6136  0.9611  0.5973
   9623SM   H5S12959   2.431   2.611  12.518  1.1174 -2.5996  0.6218
   9623SM   C6S12960   2.629   2.675  12.584 -0.6987 -0.0683  0.0455
   9623SM   H6S12961   2.639   2.786  12.594 -1.2803 -0.1966  2.9180
   9623SM   H6T12962   2.732   2.640  12.561 -0.8700 -1.2181  0.9538
   9623SM   C7S12963   2.606   2.625  12.723  0.5361 -0.2566  0.1544
   9623SM   H7S12964   2.615   2.514  12.723  1.0677 -0.2154 -0.0374
   9623SM   H7T12965   2.502   2.659  12.742  0.8901  0.5587  0.6976
   9623SM   C8S12966   2.709   2.690  12.823  0.0962  0.5472  0.2677
   9623SM   H8S12967   2.691   2.799  12.812  0.2251  0.7716  1.9924
   9623SM   H8T12968   2.810   2.662  12.787 -0.5430 -0.9090 -0.4897
   9623SM   C9S12969   2.690   2.651  12.967  0.1543  0.1419 -0.5610
   9623SM   H9S12970   2.703   2.542  12.982 -0.8366  0.1418  0.4104
   9623SM   H9T12971   2.594   2.689  13.008  0.7672  0.3355  0.7637
   9623SM  C10S12972   2.798   2.703  13.070  0.0840 -0.7393  0.2214
   9623SM  H10S12973   2.784   2.811  13.089  0.4271 -0.6690  0.0677
   9623SM  H10T12974   2.903   2.688  13.037 -0.2810 -1.5281 -0.6443
   9623SM  C11S12975   2.784   2.642  13.210 -0.5511  0.7216  0.4868
   9623SM  H11S12976   2.844   2.549  13.200  0.7434  1.2599  2.5429
   9623SM  H11T12977   2.680   2.611  13.231  0.4375 -1.7630  2.1706
   9623SM  C12S12978   2.848   2.728  13.324  0.6373 -0.7220  0.0904
   9623SM  H12S12979   2.791   2.822  13.337 -2.1404 -2.1853 -0.5474
   9623SM  H12T12980   2.948   2.751  13.283 -0.6906  1.1910 -2.3501
   9623SM  C13S12981   2.850   2.640  13.458 -0.7093 -0.1906 -0.1134
   9623SM  H13S12982   2.929   2.562  13.459  1.4538  1.8983 -0.4465
   9623SM  H13T12983   2.756   2.580  13.459 -1.1460  0.4526  1.6795
   9623SM  C14S12984   2.876   2.723  13.579 -0.1691 -0.2284 -0.4681
   9623SM  H14S12985   2.784   2.783  13.598  0.2261  0.2407  0.0184
   9623SM  H14T12986   2.956   2.793  13.546 -0.0460 -1.4400 -2.9495
   9623SM  C15S12987   2.909   2.653  13.711 -0.1704  0.3814  0.4046
   9623SM  H15S12988   3.011   2.609  13.711 -0.5428 -0.5160 -0.0234
   9623SM  H15T12989   2.829   2.576  13.721 -1.6390  1.8578  0.3524
   9623SM  C16S12990   2.900   2.745  13.828  0.1073  0.0328  0.0490
   9623SM  H16S12991   2.801   2.795  13.817  0.2979  0.3667 -0.1861
   9623SM  H16T12992   2.977   2.825  13.825 -0.1496  0.2902  0.2992
   9623SM  C17S12993   2.909   2.674  13.964  0.1418  0.5399  0.2356
   9623SM  H17S12994   2.997   2.606  13.961 -0.9743 -1.0054 -3.1101
   9623SM  H17T12995   2.821   2.606  13.962 -1.6867  2.7477 -1.5005
   9623SM  C18S12996   2.898   2.764  14.084 -0.6357  0.3590 -0.6005
   9623SM  H18S12997   2.946   2.717  14.173 -0.1216  2.0869  0.0771
   9623SM  H18T12998   2.797   2.807  14.099 -0.1867  0.9328  1.0383
   9623SM  H18U12999   2.963   2.851  14.061  2.2369 -1.0092  1.5861
   9623SM   C1F13000   2.558   2.177  12.394  0.7357 -0.4066  0.2804
   9623SM    OF13001   2.625   2.120  12.310  0.3113  0.0362  0.1054
   9623SM   C2F13002   2.517   2.116  12.526 -0.9110 -0.7948  0.0063
   9623SM   H2F13003   2.525   2.006  12.515 -3.4309 -1.0818  0.4546
   9623SM   H2G13004   2.415   2.147  12.556 -0.1238 -0.2447  2.3707
   9623SM   C3F13005   2.598   2.143  12.654  0.7323  0.5434 -0.4769
   9623SM   H3F13006   2.593   2.252  12.677 -3.0996 -0.0524  2.6987
   9623SM   H3G13007   2.706   2.119  12.644  0.7330  0.1563  0.3411
   9623SM   C4F13008   2.535   2.068  12.773  0.1027  0.5529 -0.1154
   9623SM   H4F13009   2.570   1.963  12.763 -0.3035  0.3103  0.9177
   9623SM   H4G13010   2.424   2.076  12.776  0.0836  0.9732 -1.3091
   9623SM   C5F13011   2.593   2.123  12.903 -0.5945  0.1739  0.5188
   9623SM   H5F13012   2.529   2.214  12.910  0.4223  1.1736 -1.8846
   9623SM   H5G13013   2.702   2.137  12.886 -0.7963 -1.0533 -2.4571
   9623SM   C6F13014   2.568   2.039  13.026 -0.2607 -0.5218  0.3417
   9623SM   H6F13015   2.584   1.934  12.993 -1.0077 -0.8114  0.8850
   9623SM   H6G13016   2.460   2.047  13.052 -0.4738  0.4558 -0.7489
   9623SM   C7F13017   2.655   2.081  13.147  0.2556  0.3912 -0.1558
   9623SM   H7F13018   2.762   2.054  13.143  0.9212  2.7040  0.3790
   9623SM   H7G13019   2.612   2.012  13.222 -0.2002 -0.4971 -1.2043
   9623SM   C8F13020   2.638   2.228  13.196  0.1407 -0.4998  0.6515
   9623SM   H8F13021   2.533   2.262  13.203  0.8426  1.9842  0.1995
   9623SM   H8G13022   2.683   2.298  13.122 -2.3122 -1.4232 -1.8996
   9623SM   C9F13023   2.715   2.261  13.327  0.2723  0.0837 -0.0125
   9623SM   H9F13024   2.707   2.370  13.345  1.9100  0.3986 -0.9248
   9623SM   H9G13025   2.826   2.250  13.320  0.5747  2.5259  0.1471
   9623SM  C10F13026   2.665   2.188  13.452 -0.2314  0.6421 -0.5682
   9623SM  H10F13027   2.679   2.084  13.415 -0.3020  1.0249 -1.6962
   9623SM  H10G13028   2.557   2.213  13.454 -0.4953 -0.4820 -0.0461
   9623SM  C11F13029   2.733   2.230  13.582  0.7514  1.1287  0.4410
   9623SM  H11F13030   2.731   2.341  13.588  0.2006  1.1623 -0.2450
   9623SM  H11G13031   2.836   2.189  13.575  0.0869 -0.7840  1.3159
   9623SM  C12F13032   2.679   2.168  13.706  0.2908 -0.2426  0.3300
   9623SM  H12F13033   2.677   2.057  13.701  2.9348 -0.3184 -0.9412
   9623SM  H12G13034   2.575   2.202  13.726 -0.3240 -0.6887 -1.8473
   9623SM  C13F13035   2.777   2.200  13.820  0.2194  0.4958 -0.7064
   9623SM  H13F13036   2.788   2.310  13.828  2.2743  0.2985 -0.1792
   9623SM  H13G13037   2.880   2.161  13.809  0.3371  0.2641  0.9000
   9623SM  C14F13038   2.705   2.146  13.949  0.3375 -0.4096 -0.5366
   9623SM  H14F13039   2.677   2.039  13.936  1.1285 -0.7910  0.7347
   9623SM  H14G13040   2.609   2.201  13.956 -1.0816 -2.3151 -3.1139
   9623SM  C15F13041   2.789   2.150  14.070 -0.4035  0.1747 -0.6677
   9623SM  H15F13042   2.884   2.092  14.059  0.7598  1.8907 -0.0899
   9623SM  H15G13043   2.733   2.090  14.145 -1.3352 -0.4981 -1.8616
   9623SM  C16F13044   2.803   2.289  14.144 -0.5962  0.5444 -0.1992
   9623SM  H16F13045   2.697   2.318  14.158 -0.4656  1.9930 -1.9073
   9623SM  H16G13046   2.840   2.364  14.071 -0.6134 -1.3830 -2.2768
   9623SM  C17F13047   2.892   2.277  14.270  0.7770 -0.7615  0.0802
   9623SM  H17F13048   2.889   2.369  14.333  1.0356  0.7221 -1.9670
   9623SM  H17G13049   3.000   2.263  14.247  0.9953  0.9159 -0.0800
   9623SM  C18F13050   2.860   2.159  14.365  1.3892 -0.5273 -0.6795
   9623SM  H18F13051   2.946   2.153  14.435  1.0503  2.0864  0.0606
   9623SM  H18G13052   2.876   2.069  14.302  0.0291 -0.8275 -0.6139
   9623SM  C19F13053   2.718   2.171  14.432 -0.4665 -0.3570  0.1927
   9623SM  H19F13054   2.642   2.210  14.360 -2.8617  0.1524  2.8159
   9623SM  H19G13055   2.727   2.265  14.490  2.3188 -0.2739 -0.2308
   9623SM  C20F13056   2.662   2.046  14.500 -0.2304 -0.2587 -0.0231
   9623SM  H20F13057   2.567   2.064  14.554  0.3580  1.3433  0.5515
   9623SM  H20G13058   2.729   2.001  14.576  0.0615  1.3279  0.7050
   9623SM  C21F13059   2.643   1.937  14.389  0.7238 -1.1220 -0.2259
   9623SM  H21F13060   2.737   1.902  14.341  1.3283 -3.3963  2.3322
   9623SM  H21G13061   2.571   1.988  14.322  1.8044  0.0470 -0.5235
   9623SM  C22F13062   2.596   1.799  14.432 -0.1242  0.1788 -1.2650
   9623SM  H22F13063   2.503   1.824  14.487 -1.5715 -1.5534 -2.8179
   9623SM  H22G13064   2.670   1.750  14.499 -1.4572 -1.9104 -1.2296
   9623SM  C23F13065   2.563   1.709  14.317  0.5319  0.2270 -0.2753
   9623SM  H23F13066   2.454   1.706  14.293 -0.1112 -0.3135  2.3624
   9623SM  H23G13067   2.581   1.603  14.344 -3.9668 -0.1585  2.2119
   9623SM  H23H13068   2.630   1.716  14.230  0.7556 -0.3715 -0.1540
   9723SM     N13069   4.553   0.288  11.461  0.2599 -0.3103  0.6535
   9723SM   C1513070   4.557   0.398  11.357  0.0212  0.0993 -0.3146
   9723SM  H15A13071   4.611   0.371  11.267 -1.5641 -1.4408 -0.8605
   9723SM  H15B13072   4.578   0.494  11.402 -1.6602  0.6195 -0.5720
   9723SM  H15C13073   4.454   0.413  11.330  0.1634  0.9903 -0.3857
   9723SM   C1413074   4.490   0.340  11.591 -0.0351  0.8018 -0.5837
   9723SM  H14A13075   4.478   0.263  11.666  0.6799  1.3927  0.1611
   9723SM  H14B13076   4.397   0.389  11.564 -0.8605 -0.0250  0.6762
   9723SM  H14C13077   4.554   0.414  11.638 -2.6825  2.0700  1.3383
   9723SM   C1313078   4.484   0.171  11.394 -0.0825  0.5160  0.4029
   9723SM  H13A13079   4.381   0.186  11.367 -0.4021 -0.3820  1.0855
   9723SM  H13B13080   4.498   0.087  11.461 -1.7191 -2.4271 -2.6308
   9723SM  H13C13081   4.540   0.154  11.303  0.1014  0.5056  0.5168
   9723SM   C1213082   4.698   0.244  11.503 -0.2662 -0.0442 -0.0321
   9723SM  H12A13083   4.738   0.199  11.414 -1.3670  1.4093 -1.3140
   9723SM  H12B13084   4.697   0.173  11.585  0.5710  1.2129  1.1181
   9723SM   C1113085   4.805   0.346  11.532  0.0731 -0.3151  0.0119
   9723SM  H11A13086   4.799   0.436  11.468  1.2250 -0.1092  0.1713
   9723SM  H11B13087   4.893   0.283  11.505 -0.1959 -0.6070 -0.1907
   9723SM     P13088   4.897   0.365  11.779 -0.3921  0.0759 -0.3127
   9723SM   O1313089   4.907   0.228  11.829  0.1448  0.7047 -0.0216
   9723SM   O1413090   5.020   0.430  11.743 -0.3170 -0.4001 -0.0717
   9723SM   O1113091   4.828   0.442  11.902  0.1004  0.3729 -0.3549
   9723SM   O1213092   4.794   0.383  11.670  0.4285  0.5303  0.0233
   9723SM   C1S13093   4.684   0.418  11.936 -0.2563 -0.2056  0.4744
   9723SM   H1S13094   4.667   0.309  11.946 -3.1984  0.0696 -0.6177
   9723SM   H1T13095   4.620   0.466  11.859 -0.8028  0.4559  1.3189
   9723SM    NF13096   4.493   0.451  12.098  0.5627 -0.1199  0.4236
   9723SM   HNF13097   4.435   0.530  12.077  1.2851  0.3640  0.2106
   9723SM   C2S13098   4.636   0.475  12.074 -0.0991  0.5463 -0.5570
   9723SM   H2S13099   4.682   0.414  12.155  0.9494  2.4055  0.3157
   9723SM   C3S13100   4.692   0.619  12.097  1.1103 -0.3009  0.4406
   9723SM   H3S13101   4.642   0.669  12.011 -0.0762 -0.4292  1.0345
   9723SM    O313102   4.834   0.640  12.075  0.1801 -0.6743 -0.4686
   9723SM   HO313103   4.854   0.560  12.026 -0.3449  0.1859 -2.1629
   9723SM   C4S13104   4.633   0.679  12.222  0.4135 -0.1549  0.7257
   9723SM   H4S13105   4.528   0.711  12.213  0.2614 -1.1467 -2.0200
   9723SM   C5S13106   4.679   0.680  12.346 -0.2230  0.2485  0.6881
   9723SM   H5S13107   4.784   0.651  12.363  0.1702  1.2438  0.0232
   9723SM   C6S13108   4.608   0.724  12.470  0.5262  0.0169 -0.6216
   9723SM   H6S13109   4.667   0.804  12.520  0.5280  0.5384 -1.4504
   9723SM   H6T13110   4.600   0.637  12.539  0.7493  0.6659  0.2565
   9723SM   C7S13111   4.455   0.766  12.460 -0.0440 -0.6020  0.2307
   9723SM   H7S13112   4.400   0.670  12.453  3.2092 -2.5296 -1.6368
   9723SM   H7T13113   4.447   0.830  12.370 -1.5825  0.6593  1.2096
   9723SM   C8S13114   4.406   0.856  12.582 -0.3461  0.5460  0.3808
   9723SM   H8S13115   4.305   0.899  12.565 -0.5558 -0.0723 -0.0125
   9723SM   H8T13116   4.484   0.930  12.608  0.2376 -0.1740  0.7150
   9723SM   C9S13117   4.399   0.767  12.708  0.6662  0.6460 -0.0472
   9723SM   H9S13118   4.490   0.706  12.724 -0.3287 -0.5502  1.3595
   9723SM   H9T13119   4.316   0.697  12.683  1.5200  0.7017 -3.5820
   9723SM  C10S13120   4.377   0.850  12.837  0.5015 -0.0064  0.2820
   9723SM  H10S13121   4.285   0.912  12.832  0.1590 -0.5177  0.1990
   9723SM  H10T13122   4.467   0.915  12.846 -0.7913  1.6662  2.0371
   9723SM  C11S13123   4.364   0.762  12.954 -0.0506 -0.4028  0.0205
   9723SM  H11S13124   4.450   0.692  12.952  0.0558 -0.2977  0.8722
   9723SM  H11T13125   4.267   0.709  12.937 -0.2232 -0.3852  0.8981
   9723SM  C12S13126   4.338   0.822  13.097 -0.3677  0.0208  0.7508
   9723SM  H12S13127   4.258   0.900  13.100 -0.1158  0.3256 -0.0614
   9723SM  H12T13128   4.434   0.873  13.118 -0.1790  0.1381 -0.3491
   9723SM  C13S13129   4.319   0.706  13.203  0.7726 -0.2033  0.1430
   9723SM  H13S13130   4.377   0.616  13.176  2.7285  1.7817 -2.8289
   9723SM  H13T13131   4.209   0.688  13.208  0.5504  1.2860  1.4969
   9723SM  C14S13132   4.364   0.749  13.345  0.7156 -0.1567 -0.2161
   9723SM  H14S13133   4.313   0.847  13.359  0.3390 -0.4520  0.5410
   9723SM  H14T13134   4.472   0.772  13.352  0.4086  0.9929  1.4609
   9723SM  C15S13135   4.335   0.659  13.461 -0.3568 -0.0599  0.1056
   9723SM  H15S13136   4.394   0.565  13.464 -1.3439 -0.6658  2.0931
   9723SM  H15T13137   4.229   0.626  13.462 -0.3430 -0.1195 -0.2699
   9723SM  C16S13138   4.368   0.723  13.601  0.1868  0.6954 -0.8401
   9723SM  H16S13139   4.298   0.806  13.623  0.8409  0.9176  0.4827
   9723SM  H16T13140   4.468   0.771  13.609  0.6281 -0.4494  0.7269
   9723SM  C17S13141   4.359   0.635  13.729  0.0533 -0.0843 -0.4426
   9723SM  H17S13142   4.400   0.690  13.817  0.6491 -0.4254 -0.4981
   9723SM  H17T13143   4.429   0.551  13.708  0.6244  1.0794 -3.9194
   9723SM  C18S13144   4.222   0.591  13.757 -0.0409 -0.2700  0.3310
   9723SM  H18S13145   4.166   0.686  13.775  2.1107  1.5969 -2.0948
   9723SM  H18T13146   4.214   0.529  13.848 -1.8563  0.5151  0.7628
   9723SM  H18U13147   4.174   0.541  13.670  0.5550  1.1778 -0.8802
   9723SM   C1F13148   4.447   0.327  12.110 -0.7914 -0.1359  0.6053
   9723SM    OF13149   4.523   0.226  12.111  0.1560 -0.0280 -0.0982
   9723SM   C2F13150   4.305   0.307  12.134 -0.1835  0.4913 -0.7232
   9723SM   H2F13151   4.267   0.253  12.045 -0.9249  0.7168 -0.5487
   9723SM   H2G13152   4.241   0.398  12.145 -2.4465 -1.1810  1.0112
   9723SM   C3F13153   4.281   0.206  12.245 -0.5033 -0.0037 -0.3488
   9723SM   H3F13154   4.351   0.119  12.239  1.1331  1.3415 -3.9735
   9723SM   H3G13155   4.180   0.165  12.226 -0.4355 -1.2244  1.6861
   9723SM   C4F13156   4.280   0.259  12.391  0.0358 -0.5035  0.4260
   9723SM   H4F13157   4.374   0.317  12.393  1.4887 -2.5469 -2.1545
   9723SM   H4G13158   4.294   0.169  12.455  1.6432 -0.5542  0.0296
   9723SM   C5F13159   4.162   0.346  12.434 -0.2691  0.4722  0.6867
   9723SM   H5F13160   4.077   0.277  12.451 -0.2225  0.7800  2.3016
   9723SM   H5G13161   4.136   0.417  12.352 -2.0204 -0.5247  0.3298
   9723SM   C6F13162   4.195   0.408  12.572  0.3520  0.0575  0.5741
   9723SM   H6F13163   4.100   0.451  12.611 -0.7357 -0.8192 -0.9787
   9723SM   H6G13164   4.271   0.486  12.550 -0.6380  0.2620 -2.7097
   9723SM   C7F13165   4.236   0.312  12.682  0.1711 -0.3235 -0.7600
   9723SM   H7F13166   4.333   0.263  12.655  1.5372  2.4068 -1.1350
   9723SM   H7G13167   4.154   0.242  12.706 -0.1200  1.0796  2.9480
   9723SM   C8F13168   4.276   0.383  12.814 -0.1453 -0.3853  0.4593
   9723SM   H8F13169   4.186   0.444  12.838 -0.5050 -1.4656  2.0095
   9723SM   H8G13170   4.365   0.450  12.813  1.3722 -2.2210  2.8528
   9723SM   C9F13171   4.298   0.291  12.921  0.4887 -0.3021  0.3076
   9723SM   H9F13172   4.364   0.205  12.894 -0.3511 -1.2145  1.1143
   9723SM   H9G13173   4.208   0.232  12.948  1.1639 -2.4478 -1.7603
   9723SM  C10F13174   4.349   0.356  13.046 -0.4479  0.0378 -1.1069
   9723SM  H10F13175   4.277   0.433  13.083  0.3006 -1.2665  3.6476
   9723SM  H10G13176   4.453   0.391  13.028 -0.2410 -0.2731 -0.5414
   9723SM  C11F13177   4.365   0.265  13.162 -0.3841 -0.3708  0.0533
   9723SM  H11F13178   4.423   0.175  13.134 -1.3930 -1.1164  0.2960
   9723SM  H11G13179   4.264   0.230  13.193 -0.8825 -0.2434 -1.3289
   9723SM  C12F13180   4.429   0.336  13.277 -0.5254  0.1231 -0.1830
   9723SM  H12F13181   4.371   0.422  13.315 -0.9763  1.1037 -2.8918
   9723SM  H12G13182   4.523   0.385  13.242 -0.8603  2.6567  2.1375
   9723SM  C13F13183   4.470   0.235  13.381  0.3086  0.2459  0.2208
   9723SM  H13F13184   4.542   0.158  13.345 -0.3510  0.3608 -1.4617
   9723SM  H13G13185   4.381   0.175  13.411  0.5099  0.1337  0.5998
   9723SM  C14F13186   4.517   0.298  13.513 -0.5585  0.4846 -0.1437
   9723SM  H14F13187   4.428   0.343  13.560 -0.5773  0.6833 -0.3663
   9723SM  H14G13188   4.588   0.380  13.488 -0.1894  0.0895 -0.4171
   9723SM  C15F13189   4.571   0.190  13.605 -0.1103 -0.5663  0.1165
   9723SM  H15F13190   4.658   0.139  13.558 -0.3532 -0.5403 -0.3696
   9723SM  H15G13191   4.492   0.117  13.633 -0.8264  0.6868  1.5272
   9723SM  C16F13192   4.608   0.244  13.742 -0.0983 -0.7111 -0.1123
   9723SM  H16F13193   4.516   0.302  13.761 -0.2440 -0.7779 -0.6172
   9723SM  H16G13194   4.693   0.316  13.747 -1.1830  0.5288  2.6643
   9723SM  C17F13195   4.647   0.138  13.846  0.1753  0.0465  0.4075
   9723SM  H17F13196   4.727   0.086  13.790 -0.2491  0.5602 -0.7047
   9723SM  H17G13197   4.563   0.066  13.855  0.2368  0.0411  0.9961
   9723SM  C18F13198   4.682   0.189  13.986  0.3218 -0.0112 -0.3352
   9723SM  H18F13199   4.786   0.224  13.973  0.1673  0.3177 -0.7249
   9723SM  H18G13200   4.672   0.100  14.052 -3.3921 -0.7613 -1.6356
   9723SM  C19F13201   4.578   0.295  14.037  0.1546 -0.1370  0.2127
   9723SM  H19F13202   4.480   0.244  14.051  0.6402 -0.8364  1.1951
   9723SM  H19G13203   4.564   0.382  13.970  0.2892  0.8260  1.4030
   9723SM  C20F13204   4.630   0.359  14.168  0.2022  0.3748 -0.3967
   9723SM  H20F13205   4.626   0.470  14.157  2.7206  0.6495  0.5761
   9723SM  H20G13206   4.738   0.336  14.185 -0.4072 -2.4674 -0.0420
   9723SM  C21F13207   4.562   0.313  14.301 -0.3846  0.6216  0.0327
   9723SM  H21F13208   4.561   0.202  14.305 -0.3859  0.6096 -0.2773
   9723SM  H21G13209   4.456   0.347  14.297 -0.9589 -1.1679 -1.6207
   9723SM  C22F13210   4.643   0.372  14.426 -0.1534  0.5527 -0.2698
   9723SM  H22F13211   4.637   0.483  14.428 -0.3421  0.5343  0.2197
   9723SM  H22G13212   4.747   0.333  14.423 -0.8798 -1.5520  0.3255
   9723SM  C23F13213   4.577   0.331  14.558 -0.3120 -0.2280 -0.3872
   9723SM  H23F13214   4.602   0.227  14.587  0.5403 -0.0704 -0.5193
   9723SM  H23G13215   4.468   0.327  14.539 -0.7150 -1.1845  1.7868
   9723SM  H23H13216   4.598   0.399  14.643 -0.9526  1.2225 -1.3572
   9823SM     N13217   6.681   5.469  11.707 -0.2067 -0.1480  0.0504
   9823SM   C1513218   6.741   5.349  11.644 -0.3563 -0.4824  0.3409
   9823SM  H15A13219   6.677   5.262  11.649  0.4316 -1.0967 -0.0657
   9823SM  H15B13220   6.830   5.320  11.698 -0.2495 -1.8256 -0.4909
   9823SM  H15C13221   6.772   5.371  11.543 -0.7003 -0.1195  0.3124
   9823SM   C1413222   6.774   5.586  11.697 -0.7257 -0.2638  0.1103
   9823SM  H14A13223   6.802   5.601  11.594 -0.5932  0.9930  0.3144
   9823SM  H14B13224   6.863   5.574  11.758 -0.6238 -1.4239 -0.2359
   9823SM  H14C13225   6.730   5.677  11.735  0.5794 -0.6898  2.8758
   9823SM   C1313226   6.549   5.490  11.637  0.1380  0.1365 -0.0196
   9823SM  H13A13227   6.503   5.581  11.671  1.9277  1.2127 -0.3493
   9823SM  H13B13228   6.484   5.405  11.654  1.3158 -0.7061  0.4773
   9823SM  H13C13229   6.570   5.500  11.531  0.6698  1.1035  0.1669
   9823SM   C1213230   6.651   5.438  11.857  0.4747  0.3821  0.4393
   9823SM  H12A13231   6.744   5.412  11.905  0.5369  0.5711  0.4243
   9823SM  H12B13232   6.581   5.357  11.851 -1.2824  1.9292 -2.0645
   9823SM   C1113233   6.598   5.557  11.940 -0.0550  0.0069 -0.5522
   9823SM  H11A13234   6.684   5.627  11.937 -0.7238  0.8929  0.3308
   9823SM  H11B13235   6.580   5.525  12.045 -0.1572  0.9253 -0.2856
   9823SM     P13236   6.439   5.760  11.879 -0.1102  0.3704 -0.1141
   9823SM   O1313237   6.501   5.814  11.759  0.6607 -0.3772 -0.4506
   9823SM   O1413238   6.294   5.766  11.896  0.0073 -0.6459  0.7955
   9823SM   O1113239   6.508   5.824  12.001  0.6271  0.4653 -0.1722
   9823SM   O1213240   6.476   5.613  11.876  0.2363  0.4190 -0.6029
   9823SM   C1S13241   6.454   5.803  12.132 -0.0121  0.0420  0.6346
   9823SM   H1S13242   6.413   5.705  12.163 -1.1355  0.8977  1.9652
   9823SM   H1T13243   6.365   5.869  12.145 -0.1430 -0.3631  1.9701
   9823SM    NF13244   6.495   5.819  12.377  0.4011  0.1920  0.2787
   9823SM   HNF13245   6.478   5.905  12.425 -0.7453 -0.9814  2.0924
   9823SM   C2S13246   6.557   5.847  12.250 -0.6735  0.3845  0.3616
   9823SM   H2S13247   6.647   5.782  12.241 -1.8822 -1.7197  2.2908
   9823SM   C3S13248   6.622   5.989  12.229 -0.1435  0.2102  0.0414
   9823SM   H3S13249   6.542   6.063  12.250 -2.2971 -1.9088 -0.3148
   9823SM    O313250   6.663   6.016  12.100 -0.6807  0.3538  0.1622
   9823SM   HO313251   6.615   5.948  12.053 -0.5463 -1.2136  2.2020
   9823SM   C4S13252   6.726   6.015  12.338  0.4683  0.0265  0.6876
   9823SM   H4S13253   6.685   6.024  12.440  1.7331  0.0395  1.2066
   9823SM   C5S13254   6.862   6.029  12.328  0.8316 -0.1550  0.4230
   9823SM   H5S13255   6.913   6.032  12.231 -0.6650  3.4987 -0.4107
   9823SM   C6S13256   6.958   6.054  12.434 -0.2781 -0.1118 -0.1693
   9823SM   H6S13257   7.022   6.144  12.429  0.5864 -0.7332 -0.5114
   9823SM   H6T13258   7.025   5.966  12.428  0.6858  0.3591  2.4493
   9823SM   C7S13259   6.900   6.041  12.575 -0.1817 -0.8484  0.4499
   9823SM   H7S13260   6.864   5.937  12.588 -2.2887 -0.2905 -0.4487
   9823SM   H7T13261   6.804   6.097  12.583 -0.9733 -1.6553 -2.2698
   9823SM   C8S13262   7.001   6.090  12.679  0.7515  0.2811  0.4090
   9823SM   H8S13263   7.012   6.199  12.659 -1.4673  0.0111 -3.1598
   9823SM   H8T13264   7.096   6.035  12.663  0.9058  0.0737  1.8743
   9823SM   C9S13265   6.959   6.059  12.824 -0.4448  0.9318  0.6288
   9823SM   H9S13266   7.001   5.960  12.851  0.4800  1.1489  0.0189
   9823SM   H9T13267   6.848   6.053  12.826 -0.4649  0.9530 -0.0995
   9823SM  C10S13268   7.009   6.163  12.924  0.1176  0.3913  0.8413
   9823SM  H10S13269   6.941   6.251  12.917  0.8541  1.1054  2.1955
   9823SM  H10T13270   7.114   6.194  12.901  0.4039 -2.5251 -2.7394
   9823SM  C11S13271   7.023   6.125  13.070 -0.2655  0.0534 -0.3791
   9823SM  H11S13272   7.092   6.040  13.084 -0.4283 -0.0712 -0.3281
   9823SM  H11T13273   6.924   6.096  13.110  0.5237 -0.1411  1.5127
   9823SM  C12S13274   7.055   6.246  13.163 -0.3843  0.0642  0.4447
   9823SM  H12S13275   6.965   6.312  13.167 -1.5915 -1.4108 -1.1348
   9823SM  H12T13276   7.151   6.292  13.130  0.4549 -0.6502  1.7819
   9823SM  C13S13277   7.093   6.186  13.304 -0.5493  0.1185 -0.1468
   9823SM  H13S13278   7.149   6.259  13.367  2.7669 -2.1766 -0.1843
   9823SM  H13T13279   7.168   6.105  13.292  0.3350  0.9080 -0.0762
   9823SM  C14S13280   6.974   6.138  13.386 -0.0343 -0.2978  0.5566
   9823SM  H14S13281   6.929   6.056  13.326  3.0303 -1.0289 -0.9772
   9823SM  H14T13282   6.908   6.227  13.383  0.1888 -0.1508 -2.1294
   9823SM  C15S13283   7.002   6.080  13.523 -0.0898  0.1930  0.1672
   9823SM  H15S13284   7.026   6.159  13.598 -1.0878  1.5889 -0.9376
   9823SM  H15T13285   7.091   6.014  13.518  0.7794  1.4047 -1.0892
   9823SM  C16S13286   6.882   5.985  13.572 -0.1729 -0.1288 -0.0207
   9823SM  H16S13287   6.862   5.912  13.490 -1.9349  1.5966 -1.2228
   9823SM  H16T13288   6.802   6.061  13.587  0.7792  1.0942 -0.9599
   9823SM  C17S13289   6.914   5.917  13.703 -0.6341 -0.1987  0.6832
   9823SM  H17S13290   7.017   5.873  13.703  0.1000  1.4259 -0.4102
   9823SM  H17T13291   6.847   5.828  13.708  0.4267 -1.1650 -1.1194
   9823SM  C18S13292   6.896   6.007  13.821  0.6078 -0.1985  1.0492
   9823SM  H18S13293   6.791   6.042  13.828  0.9505  0.5795  2.5634
   9823SM  H18T13294   6.957   6.098  13.808 -1.4912  1.2513  0.8805
   9823SM  H18U13295   6.917   5.966  13.922  0.9959 -0.8971  0.6922
   9823SM   C1F13296   6.474   5.689  12.421  0.1284 -0.2398  0.4082
   9823SM    OF13297   6.516   5.597  12.350  0.1524 -0.2388 -0.0472
   9823SM   C2F13298   6.385   5.666  12.546  0.0410  0.3503 -0.9648
   9823SM   H2F13299   6.287   5.716  12.531 -0.5414 -0.1718  0.8713
   9823SM   H2G13300   6.438   5.710  12.633 -0.5120 -0.5434 -0.1538
   9823SM   C3F13301   6.346   5.518  12.584 -0.0815 -0.2283 -0.2146
   9823SM   H3F13302   6.445   5.468  12.591 -0.0515 -0.2947 -0.9888
   9823SM   H3G13303   6.291   5.480  12.496 -0.8066  1.7025 -0.6360
   9823SM   C4F13304   6.264   5.519  12.709  0.1204 -0.2494  0.2842
   9823SM   H4F13305   6.212   5.421  12.718 -1.0725  0.2057 -1.3647
   9823SM   H4G13306   6.186   5.595  12.687  0.5053  0.8969  2.5662
   9823SM   C5F13307   6.335   5.548  12.838 -0.0394 -0.5509 -0.3014
   9823SM   H5F13308   6.377   5.651  12.833 -1.8771  0.2568  0.1313
   9823SM   H5G13309   6.422   5.479  12.841  1.7737  1.4320 -3.0688
   9823SM   C6F13310   6.242   5.535  12.964 -0.0248  0.3799  0.3196
   9823SM   H6F13311   6.177   5.445  12.958  0.1336  0.1887  1.3713
   9823SM   H6G13312   6.169   5.619  12.954 -0.8582 -0.3445  0.2039
   9823SM   C7F13313   6.318   5.539  13.101  0.2421 -0.0791  0.4404
   9823SM   H7F13314   6.359   5.638  13.127  1.8292 -0.9440  1.3650
   9823SM   H7G13315   6.401   5.467  13.116  1.3207  0.8606 -0.7290
   9823SM   C8F13316   6.207   5.512  13.210  0.2816  0.3725  0.1324
   9823SM   H8F13317   6.112   5.564  13.186 -0.0032 -0.0448  0.3415
   9823SM   H8G13318   6.249   5.567  13.296  1.7358  1.1705 -1.0304
   9823SM   C9F13319   6.180   5.362  13.227  0.0664  0.5985 -0.4996
   9823SM   H9F13320   6.283   5.329  13.251 -0.3882  1.1490  2.7012
   9823SM   H9G13321   6.148   5.301  13.141 -0.6324  1.0689 -0.5841
   9823SM  C10F13322   6.105   5.320  13.361  0.1408  0.7811 -0.4287
   9823SM  H10F13323   6.103   5.209  13.367  0.0441  0.7215 -1.3930
   9823SM  H10G13324   6.004   5.364  13.345 -0.3905 -0.5779 -1.0598
   9823SM  C11F13325   6.179   5.363  13.488  0.1158 -0.1836 -0.0286
   9823SM  H11F13326   6.214   5.468  13.486  2.3631 -0.8743  0.6240
   9823SM  H11G13327   6.274   5.306  13.478  0.2303  0.0305 -0.1834
   9823SM  C12F13328   6.102   5.324  13.609  0.0451 -0.0778  0.6498
   9823SM  H12F13329   6.084   5.214  13.609  1.7546 -0.4236 -1.7877
   9823SM  H12G13330   6.004   5.374  13.591  0.4530  1.1967  1.8043
   9823SM  C13F13331   6.160   5.370  13.737  0.0338  0.6610 -0.1913
   9823SM  H13F13332   6.206   5.471  13.740 -0.4030  0.9134 -1.3497
   9823SM  H13G13333   6.247   5.304  13.759  0.7167  1.5129 -0.2956
   9823SM  C14F13334   6.049   5.363  13.844 -0.5908  0.0449 -0.3118
   9823SM  H14F13335   5.979   5.277  13.837  0.3422 -0.8021  0.5470
   9823SM  H14G13336   5.985   5.454  13.842 -1.2888 -0.3910  1.0021
   9823SM  C15F13337   6.103   5.370  13.993  0.1677 -0.0410  0.6379
   9823SM  H15F13338   6.130   5.474  14.023 -0.4286 -0.3244  2.2254
   9823SM  H15G13339   6.202   5.320  13.990  0.4334  0.1612  3.3360
   9823SM  C16F13340   6.009   5.308  14.091 -0.0408 -0.0991  0.4535
   9823SM  H16F13341   6.056   5.321  14.191 -0.1491  0.3310  0.4532
   9823SM  H16G13342   6.011   5.199  14.072 -0.6856  0.4250 -3.4868
   9823SM  C17F13343   5.862   5.367  14.084  0.0572  0.0516 -0.1802
   9823SM  H17F13344   5.817   5.363  13.983  2.1201  3.0877 -1.3601
   9823SM  H17G13345   5.852   5.469  14.125  1.3564 -0.2862  1.0735
   9823SM  C18F13346   5.764   5.295  14.177  0.7755  0.9010  0.0594
   9823SM  H18F13347   5.665   5.343  14.196 -0.4479 -0.6959 -1.9226
   9823SM  H18G13348   5.812   5.275  14.275  0.5078  0.5456  0.1197
   9823SM  C19F13349   5.705   5.169  14.111 -0.0091 -0.1254  0.0046
   9823SM  H19F13350   5.787   5.103  14.076 -1.6849 -1.9828 -0.6349
   9823SM  H19G13351   5.639   5.193  14.025  0.5753  0.7913 -0.1935
   9823SM  C20F13352   5.617   5.079  14.203  0.7922  0.3175  0.0976
   9823SM  H20F13353   5.529   5.139  14.234 -1.1883 -2.5893  0.5493
   9823SM  H20G13354   5.673   5.054  14.295 -1.4055 -3.0689  0.7057
   9823SM  C21F13355   5.575   4.950  14.137 -0.2164  0.1080 -0.3835
   9823SM  H21F13356   5.655   4.899  14.080 -1.6696  0.3245 -2.7557
   9823SM  H21G13357   5.503   4.983  14.059 -0.7861  2.5157  1.0383
   9823SM  C22F13358   5.512   4.849  14.244  0.4798 -0.2567  1.0098
   9823SM  H22F13359   5.413   4.891  14.270 -2.1668 -3.1567 -3.2383
   9823SM  H22G13360   5.584   4.851  14.329  0.9385 -1.3806  0.6739
   9823SM  C23F13361   5.482   4.709  14.183 -0.5972  0.3956  0.2575
   9823SM  H23F13362   5.440   4.707  14.081  1.8302  2.2370 -0.8974
   9823SM  H23G13363   5.400   4.666  14.243  0.0916 -2.1380 -0.4939
   9823SM  H23H13364   5.569   4.640  14.178 -0.6749  0.4108 -2.0933
   9923SM     N13365   1.327   0.649  12.034  0.1297  0.0034 -0.0927
   9923SM   C1513366   1.358   0.790  11.988 -0.7218 -0.0772  0.8895
   9923SM  H15A13367   1.261   0.836  11.978 -1.8230 -2.3090  0.6581
   9923SM  H15B13368   1.396   0.799  11.887 -4.2779 -2.5136 -0.8840
   9923SM  H15C13369   1.425   0.848  12.051  0.2606 -0.4576  0.2153
   9923SM   C1413370   1.247   0.573  11.938  0.7190 -0.0303  0.8783
   9923SM  H14A13371   1.170   0.631  11.889  0.8315  0.1550  0.9186
   9923SM  H14B13372   1.183   0.496  11.977  0.9820 -0.6659  0.0751
   9923SM  H14C13373   1.310   0.531  11.861 -0.5333  2.7389 -1.8603
   9923SM   C1313374   1.457   0.573  12.061  0.7627  0.3136 -0.5747
   9923SM  H13A13375   1.504   0.543  11.968  0.1777  0.2091 -0.8458
   9923SM  H13B13376   1.428   0.475  12.097 -3.7407  2.5762  2.9850
   9923SM  H13C13377   1.524   0.624  12.128  0.8236  0.3201 -0.6400
   9923SM   C1213378   1.251   0.662  12.166 -0.5500 -0.4945 -0.0843
   9923SM  H12A13379   1.153   0.707  12.154  0.6902  2.6084  0.4064
   9923SM  H12B13380   1.293   0.744  12.223 -1.6597 -0.6330  0.9784
   9923SM   C1113381   1.231   0.538  12.256  0.1976  0.5582  0.1591
   9923SM  H11A13382   1.167   0.573  12.340 -2.4102 -0.8232 -1.1112
   9923SM  H11B13383   1.331   0.513  12.296 -0.8934 -2.5639  1.2575
   9923SM     P13384   1.170   0.283  12.253 -0.0275 -0.1948 -0.4703
   9923SM   O1313385   1.117   0.195  12.149 -0.1069  0.2903 -0.1098
   9923SM   O1413386   1.309   0.262  12.298  0.1096  0.0491  0.5755
   9923SM   O1113387   1.065   0.286  12.374  0.3650  0.1090 -0.9442
   9923SM   O1213388   1.156   0.430  12.189 -0.0485 -0.1316  0.0691
   9923SM   C1S13389   0.946   0.367  12.367  0.5564 -0.0292 -0.7221
   9923SM   H1S13390   0.880   0.338  12.282  1.8988 -2.4781 -1.0076
   9923SM   H1T13391   0.974   0.475  12.365 -1.0878  0.4365  0.0347
   9923SM    NF13392   0.730   0.412  12.485  0.2559  0.7682 -0.1377
   9923SM   HNF13393   0.725   0.504  12.524 -1.2839  0.1177  1.3108
   9923SM   C2S13394   0.855   0.350  12.498  0.4378 -0.7773 -0.4011
   9923SM   H2S13395   0.845   0.243  12.523 -0.7310 -0.8788 -1.2616
   9923SM   C3S13396   0.941   0.404  12.619 -0.3140  0.1822 -0.1201
   9923SM   H3S13397   0.948   0.512  12.598  1.1908  0.1215 -0.0305
   9923SM    O313398   1.079   0.357  12.621  0.2972 -0.1783 -0.3932
   9923SM   HO313399   1.089   0.292  12.552  0.5909 -1.2511  0.6317
   9923SM   C4S13400   0.854   0.392  12.746 -0.7486 -0.0627 -0.8152
   9923SM   H4S13401   0.790   0.481  12.760 -2.2871 -1.0355 -1.3763
   9923SM   C5S13402   0.879   0.302  12.845  0.2290 -0.1592 -0.8646
   9923SM   H5S13403   0.959   0.226  12.845  1.0231  0.5774  1.3874
   9923SM   C6S13404   0.783   0.306  12.959 -0.0467  0.1944  0.0545
   9923SM   H6S13405   0.705   0.228  12.945  3.0880 -3.0496 -0.7083
   9923SM   H6T13406   0.737   0.407  12.966  0.7063  0.5333  0.1953
   9923SM   C7S13407   0.857   0.276  13.092  0.0963  0.1282  0.8000
   9923SM   H7S13408   0.920   0.360  13.128 -0.5513  1.1516 -0.3727
   9923SM   H7T13409   0.916   0.182  13.083 -1.3757 -0.9283  1.6887
   9923SM   C8S13410   0.760   0.250  13.204  0.3171  0.6261 -0.6459
   9923SM   H8S13411   0.720   0.146  13.197  0.0353  0.7198 -0.4408
   9923SM   H8T13412   0.671   0.316  13.203 -1.2074 -1.3108  0.4549
   9923SM   C9S13413   0.832   0.269  13.337  0.1871 -0.3273  0.4787
   9923SM   H9S13414   0.854   0.378  13.345  1.7296 -0.3118 -2.3920
   9923SM   H9T13415   0.929   0.214  13.335 -1.1559 -2.8542 -1.9221
   9923SM  C10S13416   0.738   0.226  13.450 -0.0859  0.3032 -0.0927
   9923SM  H10S13417   0.689   0.132  13.416 -0.3980  1.0657 -1.8892
   9923SM  H10T13418   0.661   0.304  13.465 -2.2748 -1.9689  1.3977
   9923SM  C11S13419   0.817   0.214  13.581 -0.1268  0.1990 -0.4994
   9923SM  H11S13420   0.852   0.314  13.615 -2.2810  1.4370 -1.7065
   9923SM  H11T13421   0.913   0.164  13.556  0.4666 -0.3978  2.5852
   9923SM  C12S13422   0.740   0.153  13.699  0.1005 -0.0076 -0.4558
   9923SM  H12S13423   0.717   0.045  13.684 -0.0455 -0.2380  1.2857
   9923SM  H12T13424   0.648   0.214  13.714 -0.1022 -0.8296  2.2229
   9923SM  C13S13425   0.817   0.154  13.828 -0.1592  0.3614 -0.8445
   9923SM  H13S13426   0.882   0.244  13.824  1.4347 -0.7729 -1.8712
   9923SM  H13T13427   0.898   0.078  13.822  0.3394  0.8432 -0.3213
   9923SM  C14S13428   0.735   0.132  13.955  0.0971  0.4605 -0.4088
   9923SM  H14S13429   0.670   0.220  13.969 -0.3310  0.2076 -0.8054
   9923SM  H14T13430   0.802   0.114  14.042  0.1266  1.9131 -0.1049
   9923SM  C15S13431   0.639   0.010  13.942 -0.2788  0.4305 -1.1021
   9923SM  H15S13432   0.694  -0.078  13.903  1.6521  0.7887  0.6498
   9923SM  H15T13433   0.555   0.027  13.871 -1.0562 -0.7563 -0.5104
   9923SM  C16S13434   0.577  -0.016  14.081 -0.4959  0.4338 -0.3347
   9923SM  H16S13435   0.471  -0.047  14.073 -0.4747 -0.2445  1.4916
   9923SM  H16T13436   0.579   0.080  14.136  1.6187  0.8229 -0.9709
   9923SM  C17S13437   0.647  -0.115  14.168  0.5067  0.3574  0.3092
   9923SM  H17S13438   0.754  -0.096  14.191  1.3806 -0.8644 -2.3885
   9923SM  H17T13439   0.652  -0.216  14.122  1.5901 -0.9704  3.0830
   9923SM  C18S13440   0.559  -0.133  14.297  0.5630  0.2597  0.4069
   9923SM  H18S13441   0.459  -0.085  14.285  1.6228  1.8230 -4.1122
   9923SM  H18T13442   0.587  -0.081  14.391 -0.5747 -0.6190  1.2607
   9923SM  H18U13443   0.552  -0.239  14.330  1.1679 -0.1252 -0.6460
   9923SM   C1F13444   0.625   0.368  12.416  0.1660  0.5764  0.4389
   9923SM    OF13445   0.638   0.278  12.336 -0.1998  0.6714  0.1434
   9923SM   C2F13446   0.486   0.439  12.426 -0.4241 -0.2974  0.2802
   9923SM   H2F13447   0.450   0.427  12.321 -0.5965 -0.7288  0.3887
   9923SM   H2G13448   0.509   0.545  12.451  0.3451 -0.6265  1.0131
   9923SM   C3F13449   0.390   0.403  12.538 -0.2299 -1.0289 -0.4603
   9923SM   H3F13450   0.359   0.296  12.531  1.8671 -1.8156  1.1787
   9923SM   H3G13451   0.309   0.470  12.503  1.2722  0.2503 -1.6174
   9923SM   C4F13452   0.440   0.428  12.678 -0.6438 -0.4670 -0.0003
   9923SM   H4F13453   0.468   0.534  12.693 -0.1916 -0.7393  1.2040
   9923SM   H4G13454   0.528   0.362  12.685  0.7737  1.1987 -1.3159
   9923SM   C5F13455   0.331   0.396  12.785  0.2464 -0.2496  0.6564
   9923SM   H5F13456   0.294   0.293  12.762 -0.2314  0.0497  0.0656
   9923SM   H5G13457   0.242   0.461  12.776  0.5558  0.0816 -0.0977
   9923SM   C6F13458   0.380   0.419  12.931 -0.3370  0.3992  0.1619
   9923SM   H6F13459   0.396   0.528  12.939  0.0015  0.3842 -0.2650
   9923SM   H6G13460   0.475   0.362  12.939 -1.7728 -2.4431 -1.3497
   9923SM   C7F13461   0.280   0.370  13.037  0.4193  0.1804 -0.1813
   9923SM   H7F13462   0.241   0.273  13.001  0.6688 -0.1676  0.4575
   9923SM   H7G13463   0.193   0.438  13.034  1.1823  1.1336 -1.6499
   9923SM   C8F13464   0.338   0.372  13.181  0.3218  0.1427 -0.0803
   9923SM   H8F13465   0.381   0.469  13.212 -0.0069 -0.1242  1.2933
   9923SM   H8G13466   0.409   0.287  13.186 -1.8164 -1.6799  1.8019
   9923SM   C9F13467   0.243   0.333  13.291 -0.4598 -0.0030 -0.4094
   9923SM   H9F13468   0.199   0.239  13.254  0.6756 -0.2033 -1.3111
   9923SM   H9G13469   0.162   0.407  13.302  0.2869  0.8580 -0.5674
   9923SM  C10F13470   0.307   0.334  13.429 -0.1409  0.0684 -0.6867
   9923SM  H10F13471   0.369   0.425  13.448 -0.5034  0.2310 -0.2713
   9923SM  H10G13472   0.376   0.250  13.453 -0.2459  0.8998  3.3226
   9923SM  C11F13473   0.197   0.335  13.543  0.3038 -0.4049  0.1943
   9923SM  H11F13474   0.114   0.272  13.504 -0.4218 -0.3813  1.6384
   9923SM  H11G13475   0.157   0.437  13.562 -2.3955 -0.9494 -1.9363
   9923SM  C12F13476   0.242   0.289  13.685 -0.6213 -0.3728  0.4019
   9923SM  H12F13477   0.329   0.344  13.724 -1.4789 -0.3200  2.3614
   9923SM  H12G13478   0.262   0.180  13.674 -2.2140 -0.6896  0.3536
   9923SM  C13F13479   0.135   0.314  13.791  0.4983  0.2954  1.0037
   9923SM  H13F13480   0.037   0.267  13.767 -0.1317  0.5954  2.8374
   9923SM  H13G13481   0.122   0.424  13.787  2.3374  0.5038 -0.3119
   9923SM  C14F13482   0.191   0.271  13.930 -0.0728  0.0822  0.8009
   9923SM  H14F13483   0.290   0.321  13.939 -0.7294  1.7632 -0.8310
   9923SM  H14G13484   0.206   0.161  13.919 -1.2429  0.0704 -0.9233
   9923SM  C15F13485   0.106   0.300  14.051  0.5290 -0.0395 -0.3685
   9923SM  H15F13486   0.007   0.254  14.036 -0.6715  2.0954  0.5431
   9923SM  H15G13487   0.095   0.410  14.064 -1.0412  0.0287 -1.9742
   9923SM  C16F13488   0.164   0.239  14.182 -0.0984 -0.2457 -1.1072
   9923SM  H16F13489   0.270   0.273  14.181 -0.2923  0.4003 -2.7358
   9923SM  H16G13490   0.162   0.128  14.174 -0.1941 -0.3198 -0.1784
   9923SM  C17F13491   0.096   0.296  14.308  0.7502 -1.0898  0.4511
   9923SM  H17F13492  -0.010   0.265  14.298  0.3186  0.6452 -0.8002
   9923SM  H17G13493   0.098   0.407  14.305 -2.0436 -0.9861 -2.1742
   9923SM  C18F13494   0.151   0.256  14.447  0.1739 -0.3589  0.4125
   9923SM  H18F13495   0.262   0.269  14.448  0.2688 -1.1158  1.3938
   9923SM  H18G13496   0.124   0.149  14.450 -0.7125 -0.2041 -1.0877
   9923SM  C19F13497   0.090   0.333  14.567 -0.0210 -0.2389 -0.5005
   9923SM  H19F13498   0.108   0.280  14.663 -1.2594 -1.6202 -0.9889
   9923SM  H19G13499  -0.020   0.339  14.552 -0.1271  0.0581  0.3034
   9923SM  C20F13500   0.146   0.476  14.580  0.0113 -0.0788  0.0577
   9923SM  H20F13501   0.191   0.492  14.479 -0.7517 -2.3128 -0.7074
   9923SM  H20G13502   0.227   0.482  14.655  0.8217  0.3039 -0.8209
   9923SM  C21F13503   0.045   0.589  14.610 -0.0213  0.5756 -0.5205
   9923SM  H21F13504  -0.050   0.571  14.556 -1.1207  1.0558  1.1526
   9923SM  H21G13505   0.090   0.681  14.569 -0.2734  0.9887  0.1207
   9923SM  C22F13506   0.015   0.609  14.758 -0.3954  0.2937 -0.4239
   9923SM  H22F13507  -0.017   0.505  14.782 -1.8837  1.1386  1.5412
   9923SM  H22G13508  -0.068   0.678  14.785 -0.0826  0.7938 -0.7238
   9923SM  C23F13509   0.138   0.644  14.841 -0.3985  0.0814  0.1406
   9923SM  H23F13510   0.193   0.551  14.869 -1.0593 -0.2213  0.4438
   9923SM  H23G13511   0.099   0.685  14.937  0.3918 -0.7567  0.8517
   9923SM  H23H13512   0.205   0.721  14.798 -0.0014 -0.9519 -1.1848
  10023SM     N13513   0.513   0.788  11.919  0.3094 -0.0573  0.1200
  10023SM   C1513514   0.609   0.883  11.859 -0.2676 -0.6134 -0.6142
  10023SM  H15A13515   0.572   0.964  11.798 -1.2465  0.8279  1.7698
  10023SM  H15B13516   0.682   0.832  11.797  0.0554 -0.2077 -0.5654
  10023SM  H15C13517   0.672   0.929  11.933 -3.3961  0.6196  1.4613
  10023SM   C1413518   0.418   0.874  11.997 -0.2567 -0.1620 -0.4586
  10023SM  H14A13519   0.479   0.951  12.041  0.6544 -1.1003 -0.0403
  10023SM  H14B13520   0.356   0.824  12.070 -1.8014  2.8133  0.4408
  10023SM  H14C13521   0.350   0.922  11.927 -2.0138 -0.6289  0.8581
  10023SM   C1313522   0.422   0.724  11.815  0.0660 -0.5695  0.9437
  10023SM  H13A13523   0.333   0.680  11.856  1.3746 -2.7942  1.5668
  10023SM  H13B13524   0.473   0.654  11.750  0.3614  0.6897 -0.2405
  10023SM  H13C13525   0.383   0.799  11.748  3.7380 -0.2273 -1.0850
  10023SM   C1213526   0.564   0.681  12.012 -0.4557  0.3185  0.3861
  10023SM  H12A13527   0.650   0.639  11.962 -0.7769 -2.2241  1.7653
  10023SM  H12B13528   0.499   0.594  12.020 -2.1745  1.3795 -1.0952
  10023SM   C1113529   0.627   0.726  12.147 -0.3093  0.3618 -0.4905
  10023SM  H11A13530   0.665   0.631  12.191 -0.8729  0.6150  0.5689
  10023SM  H11B13531   0.543   0.772  12.204 -1.2496  1.1308 -2.4021
  10023SM     P13532   0.884   0.793  12.103 -0.2809 -0.4315 -0.1917
  10023SM   O1313533   0.899   0.674  12.018  0.6813  0.5695  0.4520
  10023SM   O1413534   0.954   0.918  12.060  0.3903 -0.5267  0.2600
  10023SM   O1113535   0.922   0.761  12.250 -0.3206 -0.1752  0.1211
  10023SM   O1213536   0.728   0.831  12.126  0.2665 -0.1068  0.2441
  10023SM   C1S13537   0.845   0.800  12.366 -0.3643  0.2781  0.6414
  10023SM   H1S13538   0.757   0.734  12.378 -0.3066  0.3948  1.8648
  10023SM   H1T13539   0.811   0.905  12.356 -1.9933 -0.0844  1.9595
  10023SM    NF13540   0.871   0.825  12.611 -0.3546 -0.5720  0.3286
  10023SM   HNF13541   0.900   0.913  12.649 -0.1422 -0.3890 -0.2405
  10023SM   C2S13542   0.943   0.794  12.488  0.5400 -0.2452  0.1323
  10023SM   H2S13543   0.986   0.692  12.483  2.3587  0.5555 -1.8903
  10023SM   C3S13544   1.068   0.884  12.467 -0.2595 -0.0895  0.4700
  10023SM   H3S13545   1.026   0.987  12.474 -0.8294 -0.1862 -1.0976
  10023SM    O313546   1.134   0.882  12.341 -0.6706  1.1799  0.1074
  10023SM   HO313547   1.064   0.861  12.279  0.4005 -0.1175 -0.7265
  10023SM   C4S13548   1.169   0.860  12.576 -0.5499 -0.3068  0.2637
  10023SM   H4S13549   1.199   0.946  12.637  0.5317 -1.0157  0.7750
  10023SM   C5S13550   1.239   0.752  12.613 -0.1889 -0.2662  0.4044
  10023SM   H5S13551   1.206   0.658  12.566  0.3783 -0.0772 -0.4072
  10023SM   C6S13552   1.333   0.747  12.732 -0.2349  0.7156 -0.4276
  10023SM   H6S13553   1.353   0.848  12.774  3.4433  0.3561 -0.9821
  10023SM   H6T13554   1.432   0.703  12.708 -0.6474 -2.2327  2.6205
  10023SM   C7S13555   1.271   0.654  12.844  0.6608 -0.3918 -0.3600
  10023SM   H7S13556   1.351   0.631  12.918 -0.4601  0.7447  1.2755
  10023SM   H7T13557   1.228   0.567  12.790 -1.7168  0.4522  0.0751
  10023SM   C8S13558   1.155   0.723  12.931 -0.6994 -0.0910 -0.4270
  10023SM   H8S13559   1.082   0.754  12.854  0.8002  2.4694 -0.9479
  10023SM   H8T13560   1.196   0.815  12.979 -2.7783  0.0810  1.1323
  10023SM   C9S13561   1.097   0.627  13.030  0.5185 -0.3534 -0.2440
  10023SM   H9S13562   1.102   0.519  13.004  1.8019 -0.6915  1.2295
  10023SM   H9T13563   0.988   0.649  13.030  0.4650 -0.6108 -0.0842
  10023SM  C10S13564   1.157   0.642  13.174  0.7667  0.1961  0.7953
  10023SM  H10S13565   1.138   0.750  13.191 -0.5722  0.6257 -2.5413
  10023SM  H10T13566   1.266   0.624  13.163  0.6480  0.1791 -0.6185
  10023SM  C11S13567   1.090   0.550  13.275  0.2144 -0.8229  0.5164
  10023SM  H11S13568   1.117   0.445  13.254  0.3594 -0.7870  0.5222
  10023SM  H11T13569   0.980   0.561  13.269  0.1280 -2.0111 -0.5054
  10023SM  C12S13570   1.145   0.575  13.420 -0.2193  0.0613  0.3993
  10023SM  H12S13571   1.133   0.678  13.458  0.8382 -0.0075  0.9521
  10023SM  H12T13572   1.252   0.546  13.412 -0.4604 -1.2227  1.3952
  10023SM  C13S13573   1.072   0.476  13.514  0.0480 -0.8819 -0.6775
  10023SM  H13S13574   1.081   0.377  13.466 -0.2528 -0.9223 -0.6509
  10023SM  H13T13575   0.965   0.500  13.495  0.1373 -0.7006 -0.9605
  10023SM  C14S13576   1.116   0.481  13.662  0.1785  0.4081  0.2963
  10023SM  H14S13577   1.224   0.452  13.667 -0.1573 -1.0943 -0.6765
  10023SM  H14T13578   1.056   0.406  13.717 -1.0375  0.4083 -0.9716
  10023SM  C15S13579   1.105   0.615  13.722  0.4375 -0.3061  0.4851
  10023SM  H15S13580   1.007   0.666  13.711  0.6870  0.1353  0.2478
  10023SM  H15T13581   1.186   0.676  13.675 -0.2563 -1.4641 -2.4503
  10023SM  C16S13582   1.135   0.597  13.876  0.5683  0.4224  0.1356
  10023SM  H16S13583   1.160   0.695  13.921 -0.6764  0.0838  1.6485
  10023SM  H16T13584   1.221   0.531  13.902  0.4596  1.3750  3.3393
  10023SM  C17S13585   1.010   0.542  13.952 -1.2979 -0.7222  0.2333
  10023SM  H17S13586   0.980   0.446  13.904  2.8550 -1.6551 -0.8435
  10023SM  H17T13587   0.924   0.613  13.957 -0.4752  0.2271  1.1917
  10023SM  C18S13588   1.047   0.521  14.100 -0.3244  0.0128  0.5266
  10023SM  H18S13589   1.144   0.469  14.110 -0.1716  0.2738  0.3835
  10023SM  H18T13590   0.973   0.457  14.153  0.4341 -0.2962  1.2374
  10023SM  H18U13591   1.045   0.621  14.149  0.5030  0.6803 -0.7547
  10023SM   C1F13592   0.770   0.761  12.673  0.2879 -0.1047  0.3701
  10023SM    OF13593   0.730   0.655  12.625  0.5877  0.0335 -0.0559
  10023SM   C2F13594   0.728   0.812  12.815  0.3082 -0.8620  0.9938
  10023SM   H2F13595   0.637   0.875  12.825  1.0489  0.1273  1.7749
  10023SM   H2G13596   0.809   0.885  12.837  1.5502 -1.1774 -2.0212
  10023SM   C3F13597   0.737   0.694  12.918 -0.4843  0.0232 -0.3136
  10023SM   H3F13598   0.821   0.623  12.900 -0.5143  0.0876 -0.7103
  10023SM   H3G13599   0.645   0.636  12.898 -1.5804  1.2984  0.8152
  10023SM   C4F13600   0.740   0.744  13.063 -0.3092 -0.4747 -0.7123
  10023SM   H4F13601   0.680   0.837  13.076 -0.0333 -0.5813  1.8320
  10023SM   H4G13602   0.845   0.760  13.096 -0.3631 -0.3388 -0.6050
  10023SM   C5F13603   0.676   0.642  13.158  0.6123  0.2011  0.4311
  10023SM   H5F13604   0.735   0.549  13.148  0.0931  0.0483 -1.8950
  10023SM   H5G13605   0.577   0.627  13.108  1.2163  2.2364 -1.5498
  10023SM   C6F13606   0.684   0.690  13.300  0.8042 -0.3154 -0.1468
  10023SM   H6F13607   0.638   0.791  13.293  2.0755  0.3436  0.5969
  10023SM   H6G13608   0.786   0.707  13.341  0.8332 -0.5042 -0.1400
  10023SM   C7F13609   0.609   0.592  13.399  0.0490 -0.0826  0.3187
  10023SM   H7F13610   0.606   0.491  13.353 -2.2766  0.1140 -0.0472
  10023SM   H7G13611   0.506   0.632  13.408 -0.5731 -1.3924 -0.5683
  10023SM   C8F13612   0.671   0.585  13.534  0.7175 -0.0617 -0.5899
  10023SM   H8F13613   0.716   0.683  13.559  1.2542 -0.3182 -0.5334
  10023SM   H8G13614   0.750   0.507  13.543 -0.5100 -1.6427 -2.7440
  10023SM   C9F13615   0.583   0.555  13.654  0.5000  0.3416 -0.3767
  10023SM   H9F13616   0.533   0.458  13.634 -0.5017  0.8078 -0.1735
  10023SM   H9G13617   0.502   0.629  13.667  0.3764  0.2220 -0.4592
  10023SM  C10F13618   0.652   0.546  13.793  0.0196  1.0202 -0.1430
  10023SM  H10F13619   0.729   0.626  13.805  1.2690 -0.2381  0.4221
  10023SM  H10G13620   0.711   0.452  13.793 -0.7403  0.4731 -2.3079
  10023SM  C11F13621   0.546   0.532  13.908 -0.0262 -0.3230  0.4958
  10023SM  H11F13622   0.489   0.439  13.888 -3.3454  1.5443  0.5332
  10023SM  H11G13623   0.474   0.615  13.895  2.4154  1.6766 -1.1765
  10023SM  C12F13624   0.604   0.533  14.045  0.2322  0.8889 -0.3706
  10023SM  H12F13625   0.649   0.630  14.075 -0.9249  0.4878  3.1167
  10023SM  H12G13626   0.682   0.455  14.033 -1.7891 -1.6175  1.5633
  10023SM  C13F13627   0.513   0.478  14.162  0.3380 -0.2863 -0.2307
  10023SM  H13F13628   0.471   0.382  14.124  1.0168 -1.1400  1.0759
  10023SM  H13G13629   0.428   0.546  14.183 -0.2688 -0.8971 -0.6564
  10023SM  C14F13630   0.584   0.446  14.295  0.7743 -0.9880  0.3955
  10023SM  H14F13631   0.611   0.533  14.358  1.9788 -1.2330  0.2519
  10023SM  H14G13632   0.683   0.405  14.265  0.8398 -0.3621 -0.2737
  10023SM  C15F13633   0.517   0.337  14.372  0.5532  0.3835  0.4197
  10023SM  H15F13634   0.464   0.259  14.313 -0.6720  0.9602  0.7301
  10023SM  H15G13635   0.437   0.378  14.437 -0.2220 -1.8273  0.9534
  10023SM  C16F13636   0.621   0.260  14.451 -0.1525  1.0166  0.0464
  10023SM  H16F13637   0.708   0.227  14.391  1.0315  1.7793  1.2986
  10023SM  H16G13638   0.566   0.169  14.486  1.3249 -0.6680 -1.7854
  10023SM  C17F13639   0.667   0.343  14.578  0.1483 -0.2007  0.1028
  10023SM  H17F13640   0.727   0.424  14.531  0.5262 -0.7318 -0.3428
  10023SM  H17G13641   0.735   0.280  14.638  1.5507 -0.5322 -1.7461
  10023SM  C18F13642   0.566   0.395  14.677 -0.5221 -0.2480  0.1263
  10023SM  H18F13643   0.503   0.471  14.626  1.1778 -0.2732 -2.2071
  10023SM  H18G13644   0.616   0.447  14.761  0.0207  0.6985 -0.7601
  10023SM  C19F13645   0.476   0.289  14.737  0.0966  0.0399  0.2588
  10023SM  H19F13646   0.541   0.201  14.754  1.0156  0.1409 -2.2681
  10023SM  H19G13647   0.402   0.258  14.660  0.1098 -1.5995  0.8682
  10023SM  C20F13648   0.415   0.337  14.869  0.1227  0.3163  0.3528
  10023SM  H20F13649   0.364   0.433  14.847  0.7194  0.1014 -2.3247
  10023SM  H20G13650   0.495   0.371  14.938 -0.1629  0.9051  0.3957
  10023SM  C21F13651   0.334   0.238  14.959 -0.1217 -0.9759  0.0852
  10023SM  H21F13652   0.314   0.296  15.052 -1.3780 -1.0389 -0.1326
  10023SM  H21G13653   0.407   0.159  14.987  2.4030  0.6792 -1.4343
  10023SM  C22F13654   0.210   0.176  14.897  0.1639 -0.6992  0.3208
  10023SM  H22F13655   0.229   0.143  14.793  0.4438 -1.8319  0.7144
  10023SM  H22G13656   0.132   0.254  14.893  0.3591 -0.5508 -0.9181
  10023SM  C23F13657   0.158   0.065  14.978  0.5234 -0.3104 -0.4742
  10023SM  H23F13658   0.225  -0.022  14.964  0.7892 -0.1861  0.0136
  10023SM  H23G13659   0.050   0.044  14.964  0.0327 -0.1454  2.4191
  10023SM  H23H13660   0.163   0.096  15.084 -1.5178  0.2449 -0.4938
  101CHL1    C313661   3.192   4.365  16.645  0.3586  0.1262 -0.4963
  101CHL1    H313662   3.211   4.255  16.638 -0.5264  0.0302 -1.6375
  101CHL1    O313663   3.183   4.394  16.786 -0.3239  0.6403 -0.5846
  101CHL1   H3'13664   3.144   4.480  16.801  1.1666  1.4658 -1.2038
  101CHL1    C413665   3.312   4.444  16.591 -0.2324 -0.0970 -0.0474
  101CHL1   H4A13666   3.293   4.553  16.605  1.7596  0.1293  1.2111
  101CHL1   H4B13667   3.397   4.423  16.658 -1.3298 -1.7597  0.8880
  101CHL1    C513668   3.347   4.427  16.445 -0.4038  0.6440  0.0284
  101CHL1    C613669   3.463   4.388  16.394 -0.1742  0.4646  0.6267
  101CHL1    H613670   3.544   4.367  16.465 -0.7380 -0.3147  1.0595
  101CHL1    C713671   3.493   4.366  16.244 -0.6851 -0.4880  0.4530
  101CHL1   H7A13672   3.586   4.418  16.214 -1.0500 -0.7462 -1.2223
  101CHL1   H7B13673   3.508   4.257  16.229 -1.9468 -0.5977 -0.1368
  101CHL1    C813674   3.379   4.416  16.148  1.1061 -0.2333  0.3743
  101CHL1    H813675   3.394   4.523  16.121  1.4658 -0.3888 -0.0773
  101CHL1   C1413676   3.389   4.340  16.016 -1.2967  0.1082  0.7153
  101CHL1   H1413677   3.354   4.237  16.039  1.5264 -1.0868  0.0804
  101CHL1   C1513678   3.524   4.338  15.944 -1.1437 -0.2575  0.0957
  101CHL1  H15A13679   3.576   4.436  15.945 -1.3972 -0.1219  1.4270
  101CHL1  H15B13680   3.579   4.262  16.005 -0.3251  0.3476  0.1286
  101CHL1   C1613681   3.501   4.295  15.796 -0.7362  0.3291 -0.6754
  101CHL1  H16A13682   3.541   4.377  15.733  1.3686  1.1469  1.5706
  101CHL1  H16B13683   3.541   4.194  15.773 -0.3686  0.5669 -1.0945
  101CHL1   C1713684   3.342   4.300  15.787 -0.6324 -0.1763 -0.1546
  101CHL1   H1713685   3.319   4.197  15.825  0.3792 -0.8944 -1.4388
  101CHL1   C1313686   3.287   4.386  15.905 -0.1027 -0.3983 -0.2070
  101CHL1   C1813687   3.298   4.529  15.861 -0.0369 -0.0981  0.2179
  101CHL1  H18A13688   3.287   4.599  15.946 -0.8102  1.9355 -1.4509
  101CHL1  H18B13689   3.400   4.539  15.817 -0.1962  2.0594  0.2548
  101CHL1  H18C13690   3.226   4.554  15.780  1.1762  0.8976 -0.5930
  101CHL1   C1213691   3.151   4.360  15.967 -0.0034  0.2684 -0.3132
  101CHL1  H12A13692   3.077   4.405  15.897  0.9382 -0.8998 -2.1386
  101CHL1  H12B13693   3.132   4.251  15.978  0.7523  0.1177 -0.4850
  101CHL1   C1113694   3.130   4.422  16.103 -0.8980 -0.4430 -0.5906
  101CHL1  H11A13695   3.123   4.531  16.084 -1.9042  0.2904  3.1776
  101CHL1  H11B13696   3.036   4.388  16.152  0.8347 -3.5542  0.8930
  101CHL1    C913697   3.243   4.382  16.207 -0.4607 -0.6771  0.3160
  101CHL1    H913698   3.240   4.272  16.219 -0.5127 -0.9286 -1.6346
  101CHL1   C1013699   3.218   4.442  16.350 -0.7120  0.3887 -0.1806
  101CHL1   C1913700   3.175   4.590  16.340 -0.7641 -0.0333  0.1639
  101CHL1  H19A13701   3.192   4.642  16.436 -1.2233  0.7548 -0.1694
  101CHL1  H19B13702   3.237   4.643  16.265  0.3138 -1.6064 -0.0831
  101CHL1  H19C13703   3.065   4.596  16.323 -0.5357  0.2881 -1.4062
  101CHL1    C113704   3.101   4.356  16.417 -0.2678 -0.4994  0.2030
  101CHL1   H1A13705   3.011   4.366  16.352 -0.8572 -1.1091  0.9189
  101CHL1   H1B13706   3.137   4.252  16.409 -1.4462 -0.9893  1.0752
  101CHL1    C213707   3.070   4.391  16.564 -0.0763 -0.4115  0.1833
  101CHL1   H2A13708   2.984   4.329  16.597 -1.0063  1.5360  1.6403
  101CHL1   H2B13709   3.033   4.494  16.584 -3.1254 -1.0174 -1.6981
  101CHL1   C2013710   3.285   4.316  15.646  0.1758 -0.8817 -0.4561
  101CHL1   H2013711   3.292   4.425  15.623  0.3498  0.3079  4.1263
  101CHL1   C2113712   3.134   4.286  15.644 -0.2547  0.2106 -0.1057
  101CHL1  H21A13713   3.120   4.198  15.710  0.4427 -0.4913 -0.8648
  101CHL1  H21B13714   3.100   4.263  15.540  0.1746  1.8063 -0.6213
  101CHL1  H21C13715   3.077   4.373  15.682  0.1534 -0.1089  1.2643
  101CHL1   C2213716   3.358   4.247  15.528 -1.0117 -0.2448  0.1501
  101CHL1  H22A13717   3.468   4.261  15.538 -0.8084 -0.0904 -1.9309
  101CHL1  H22B13718   3.335   4.139  15.531 -2.6351  0.0323 -1.1375
  101CHL1   C2313719   3.321   4.304  15.392  0.9385 -0.2514  0.0715
  101CHL1  H23A13720   3.225   4.360  15.397  0.1488 -1.5171 -0.3895
  101CHL1  H23B13721   3.404   4.367  15.354 -1.1190  1.7910 -1.2975
  101CHL1   C2413722   3.305   4.193  15.291  0.4729 -0.0081  0.6171
  101CHL1  H24A13723   3.396   4.128  15.289 -0.7712 -1.8208 -1.0999
  101CHL1  H24B13724   3.223   4.130  15.332  0.7423  1.0201  2.9165
  101CHL1   C2513725   3.288   4.233  15.146  0.5108  0.4645  0.0010
  101CHL1   H2513726   3.364   4.309  15.121  0.3718  0.8365  0.7087
  101CHL1   C2613727   3.308   4.114  15.052  0.0215  0.8393  0.1296
  101CHL1  H26A13728   3.389   4.042  15.078 -1.2801 -1.2208 -1.2634
  101CHL1  H26B13729   3.216   4.056  15.070  0.9308 -0.9035 -0.6392
  101CHL1  H26C13730   3.316   4.141  14.944 -0.1683  0.2778 -0.0274
  101CHL1   C2713731   3.149   4.295  15.118  0.2937  0.3631 -0.3867
  101CHL1  H27A13732   3.136   4.327  15.012  2.1201  1.7270 -0.2473
  101CHL1  H27B13733   3.079   4.227  15.171  2.1218 -0.5658  0.9816
  101CHL1  H27C13734   3.133   4.395  15.163  0.6512  0.1178  0.3055
  102CHL1    C313735   2.241   5.029  16.336 -0.5022 -0.3230 -0.5088
  102CHL1    H313736   2.164   5.087  16.280 -0.7791 -1.1722 -1.0151
  102CHL1    O313737   2.232   5.057  16.474  0.3609 -0.7267 -0.3748
  102CHL1   H3'13738   2.300   4.999  16.511  1.1159 -0.2507 -0.9805
  102CHL1    C413739   2.207   4.879  16.323  0.1708  1.4528  0.3723
  102CHL1   H4A13740   2.289   4.821  16.371 -1.0267 -0.1993  0.5119
  102CHL1   H4B13741   2.111   4.853  16.373 -0.3794  1.5004 -0.6378
  102CHL1    C513742   2.206   4.834  16.175  0.4937 -0.7507  0.0419
  102CHL1    C613743   2.110   4.764  16.108  0.5004 -0.0670 -0.5538
  102CHL1    H613744   2.017   4.746  16.163  0.4366 -1.0664 -0.9764
  102CHL1    C713745   2.116   4.738  15.957  0.0986 -0.4493 -0.3463
  102CHL1   H7A13746   2.082   4.633  15.940  0.1572 -0.7377  1.1853
  102CHL1   H7B13747   2.043   4.808  15.912  1.2032  0.0617 -1.3917
  102CHL1    C813748   2.260   4.746  15.900 -0.1989  0.6585  0.4657
  102CHL1    H813749   2.320   4.657  15.928 -1.2554  0.1914  1.3151
  102CHL1   C1413750   2.248   4.746  15.743  0.3517  0.6377 -1.0883
  102CHL1   H1413751   2.185   4.837  15.732 -2.7734 -1.0675  0.9619
  102CHL1   C1513752   2.173   4.633  15.680  0.0926  0.0252  0.0961
  102CHL1  H15A13753   2.210   4.536  15.719  1.0158 -0.0637 -0.9555
  102CHL1  H15B13754   2.066   4.633  15.711 -0.0980  0.9742 -0.5080
  102CHL1   C1613755   2.196   4.644  15.531 -0.2342 -0.7500 -0.3974
  102CHL1  H16A13756   2.242   4.546  15.507  0.8563 -0.6231  1.0403
  102CHL1  H16B13757   2.111   4.671  15.465  1.1002 -0.0017 -1.8784
  102CHL1   C1713758   2.318   4.756  15.519  0.3716 -0.3574 -0.4533
  102CHL1   H1713759   2.271   4.857  15.513  0.3324 -0.4063 -0.9884
  102CHL1   C1313760   2.378   4.767  15.665  0.7418  0.4483  0.0712
  102CHL1   C1813761   2.490   4.655  15.683 -0.6147  0.0016 -0.3696
  102CHL1  H18A13762   2.446   4.562  15.642 -2.5309  1.3018 -1.4458
  102CHL1  H18B13763   2.584   4.683  15.631 -0.5565 -0.7751 -0.6979
  102CHL1  H18C13764   2.517   4.637  15.789  0.9303 -0.9662 -0.8991
  102CHL1   C1213765   2.428   4.905  15.712 -0.6687  0.1206  0.4643
  102CHL1  H12A13766   2.514   4.942  15.652 -1.3381  1.7688  0.4584
  102CHL1  H12B13767   2.355   4.983  15.680 -1.7939 -1.1607 -0.1821
  102CHL1   C1113768   2.455   4.907  15.863  0.2270  0.6624  0.0951
  102CHL1  H11A13769   2.530   4.828  15.885  0.5068  0.1280 -2.4459
  102CHL1  H11B13770   2.511   4.998  15.893  0.6287 -0.3742  2.8301
  102CHL1    C913771   2.322   4.879  15.945 -0.0550 -0.2423  0.4771
  102CHL1    H913772   2.246   4.954  15.915  0.8460  0.6868  0.4253
  102CHL1   C1013773   2.335   4.887  16.103 -0.3255  0.4733  0.0208
  102CHL1   C1913774   2.454   4.794  16.150 -0.8033  0.9893 -0.2545
  102CHL1  H19A13775   2.556   4.828  16.121 -0.4448 -0.5533 -0.9289
  102CHL1  H19B13776   2.455   4.782  16.261  1.0829  0.6604 -0.2745
  102CHL1  H19C13777   2.444   4.692  16.107 -1.1567 -0.5043  3.0235
  102CHL1    C113778   2.384   5.035  16.131 -0.0091  0.9086  0.3946
  102CHL1   H1A13779   2.480   5.047  16.076 -0.5673 -1.1210 -1.1874
  102CHL1   H1B13780   2.307   5.092  16.075 -0.0692  0.1566 -0.3159
  102CHL1    C213781   2.374   5.069  16.279 -0.5491 -0.4462  0.3299
  102CHL1   H2A13782   2.407   5.171  16.310  0.5532 -0.8898  0.6653
  102CHL1   H2B13783   2.439   4.995  16.329 -1.0840 -0.9087  0.3471
  102CHL1   C2013784   2.412   4.748  15.398  0.4852  0.2966 -0.3053
  102CHL1   H2013785   2.467   4.651  15.404 -1.6545 -0.8899  1.6728
  102CHL1   C2113786   2.508   4.858  15.381 -0.0092  0.1903  0.0246
  102CHL1  H21A13787   2.595   4.825  15.443 -0.0954 -1.2838 -0.5897
  102CHL1  H21B13788   2.471   4.956  15.418  1.5945  0.9169 -0.2067
  102CHL1  H21C13789   2.547   4.870  15.278  1.5015  1.5185  0.7123
  102CHL1   C2213790   2.335   4.726  15.260 -0.1904 -0.8207 -0.4694
  102CHL1  H22A13791   2.235   4.680  15.276 -0.0668 -0.8450  0.2905
  102CHL1  H22B13792   2.306   4.826  15.222  1.3751 -0.2361 -0.2288
  102CHL1   C2313793   2.406   4.640  15.152 -0.2724  0.2580 -0.7140
  102CHL1  H23A13794   2.503   4.689  15.132  1.2190 -2.2582 -0.1832
  102CHL1  H23B13795   2.439   4.543  15.196 -1.9013 -0.1332 -0.2478
  102CHL1   C2413796   2.326   4.631  15.015 -0.4417  0.4990  0.0541
  102CHL1  H24A13797   2.243   4.705  15.019 -1.1088 -0.2114 -0.2916
  102CHL1  H24B13798   2.393   4.649  14.928  0.9570 -0.0294  0.9818
  102CHL1   C2513799   2.247   4.494  14.999  0.4901 -0.5565 -0.0177
  102CHL1   H2513800   2.168   4.511  14.923  0.0896 -0.7339  0.3594
  102CHL1   C2613801   2.335   4.390  14.931 -1.0985  0.1818 -0.3250
  102CHL1  H26A13802   2.352   4.438  14.832  0.7373  2.9773  1.2058
  102CHL1  H26B13803   2.430   4.384  14.988 -0.3338  0.2566 -1.5699
  102CHL1  H26C13804   2.289   4.289  14.925  3.8849 -2.3660 -0.3375
  102CHL1   C2713805   2.175   4.439  15.123  0.3258  0.2776  0.0827
  102CHL1  H27A13806   2.132   4.340  15.099  1.8579 -0.6686  1.0615
  102CHL1  H27B13807   2.255   4.416  15.197  1.6386 -3.3049 -2.1793
  102CHL1  H27C13808   2.097   4.503  15.169  0.0708 -0.4560  0.6872
  103CHL1    C313809   2.028   3.146  16.447 -0.0361  0.6805  0.2160
  103CHL1    H313810   2.122   3.093  16.422 -1.3572 -2.2600  0.9367
  103CHL1    O313811   2.002   3.141  16.587 -0.5218  0.0033 -0.3635
  103CHL1   H3'13812   1.909   3.166  16.593 -1.0830 -2.2629  1.6287
  103CHL1    C413813   2.049   3.288  16.399 -0.7014  0.1821 -0.2315
  103CHL1   H4A13814   1.953   3.337  16.423 -0.5180  0.8183 -0.7758
  103CHL1   H4B13815   2.127   3.322  16.470  1.1585 -3.1066 -0.4704
  103CHL1    C513816   2.072   3.307  16.252 -0.3007  0.3246  0.0037
  103CHL1    C613817   2.180   3.372  16.205 -0.1924  0.1035 -0.7229
  103CHL1    H613818   2.253   3.415  16.274  1.3356 -3.1249 -0.1221
  103CHL1    C713819   2.214   3.390  16.055 -0.2387  0.0178 -0.9799
  103CHL1   H7A13820   2.252   3.493  16.036  1.1719 -0.5278 -1.2306
  103CHL1   H7B13821   2.287   3.319  16.011 -2.2525 -1.1989 -2.5621
  103CHL1    C813822   2.095   3.353  15.970 -0.2592 -0.3640  0.3095
  103CHL1    H813823   2.020   3.435  15.967 -1.0190 -1.0643 -0.9893
  103CHL1   C1413824   2.149   3.342  15.825  0.1065 -0.6143 -0.3046
  103CHL1   H1413825   2.219   3.256  15.830  0.1459 -0.4884  2.7692
  103CHL1   C1513826   2.229   3.453  15.757  0.2140 -0.0540 -0.2324
  103CHL1  H15A13827   2.175   3.548  15.776  1.7887  1.1299 -1.3533
  103CHL1  H15B13828   2.330   3.476  15.796  0.3582  0.9549 -1.1494
  103CHL1   C1613829   2.230   3.423  15.608 -0.8236  0.2815  0.3432
  103CHL1  H16A13830   2.214   3.507  15.536  1.7934 -0.4271 -1.2210
  103CHL1  H16B13831   2.333   3.388  15.584  0.1472  2.1265  1.4937
  103CHL1   C1713832   2.123   3.305  15.588 -0.0720  0.2851 -0.0727
  103CHL1   H1713833   2.190   3.216  15.592  2.2897  2.0083  1.8838
  103CHL1   C1313834   2.042   3.302  15.719 -0.2025 -0.0965  0.1065
  103CHL1   C1813835   1.943   3.416  15.717  0.0349  0.0300  0.3444
  103CHL1  H18A13836   1.897   3.424  15.818  2.1113  1.4824  1.2532
  103CHL1  H18B13837   1.986   3.514  15.689  0.6642 -0.1526  0.6526
  103CHL1  H18C13838   1.860   3.399  15.646  1.2452 -2.6163 -0.5560
  103CHL1   C1213839   1.974   3.167  15.757  0.1500  0.2336 -0.6811
  103CHL1  H12A13840   1.886   3.141  15.695 -0.6242  2.1240 -0.4290
  103CHL1  H12B13841   2.052   3.088  15.745  1.0686  0.9548  0.3599
  103CHL1   C1113842   1.927   3.165  15.901 -0.7319 -0.3951 -0.3174
  103CHL1  H11A13843   1.829   3.218  15.896 -0.2793  0.4135 -1.0230
  103CHL1  H11B13844   1.892   3.061  15.918  0.7095 -0.9448 -0.5628
  103CHL1    C913845   2.017   3.225  16.015 -0.3757  0.8004  1.1888
  103CHL1    H913846   2.094   3.145  16.027 -0.8144 -0.1258 -1.4357
  103CHL1   C1013847   1.973   3.229  16.160 -0.1399  0.4328 -0.2031
  103CHL1   C1913848   1.844   3.312  16.150  0.2359  1.2134  0.1470
  103CHL1  H19A13849   1.816   3.347  16.251  3.7622  0.8697  1.3840
  103CHL1  H19B13850   1.845   3.399  16.080  2.1705  0.6548 -0.5872
  103CHL1  H19C13851   1.765   3.243  16.113 -0.7979  1.9329  0.9545
  103CHL1    C113852   1.946   3.083  16.208 -0.1947 -0.0706 -0.2012
  103CHL1   H1A13853   1.860   3.035  16.157 -1.1939  1.4029  0.0146
  103CHL1   H1B13854   2.036   3.019  16.198  1.3155  1.6644  1.5286
  103CHL1    C213855   1.915   3.078  16.359  0.3037  0.0537  0.2029
  103CHL1   H2A13856   1.908   2.971  16.386 -1.3131 -0.0925 -0.6926
  103CHL1   H2B13857   1.817   3.125  16.380  0.3959 -0.6123  2.2880
  103CHL1   C2013858   2.047   3.326  15.457  0.2891 -0.2241 -0.1061
  103CHL1   H2013859   2.005   3.429  15.458 -1.0323 -0.6978  2.8498
  103CHL1   C2113860   1.941   3.216  15.445 -0.5072 -0.0436  0.4154
  103CHL1  H21A13861   1.847   3.238  15.499  0.7309  0.8137  2.3368
  103CHL1  H21B13862   1.971   3.112  15.470 -0.2327  0.0642  0.5422
  103CHL1  H21C13863   1.923   3.207  15.336  0.6334  1.0219  0.1144
  103CHL1   C2213864   2.145   3.318  15.339 -0.0255  0.3320 -0.6322
  103CHL1  H22A13865   2.247   3.356  15.364 -0.4518  0.1701  1.6021
  103CHL1  H22B13866   2.153   3.208  15.324  2.8907  0.5950 -1.6902
  103CHL1   C2313867   2.098   3.386  15.208 -0.4268  0.1319  0.7281
  103CHL1  H23A13868   1.999   3.343  15.183  0.7919 -1.1620 -2.2836
  103CHL1  H23B13869   2.081   3.494  15.230  1.7779  1.2946 -2.5340
  103CHL1   C2413870   2.182   3.359  15.079  0.0063  0.1635 -0.5341
  103CHL1  H24A13871   2.288   3.370  15.110 -0.6382 -2.0741  3.0750
  103CHL1  H24B13872   2.165   3.257  15.038  0.6524 -0.1513 -0.0463
  103CHL1   C2513873   2.149   3.453  14.966 -0.0031  0.1919  0.3910
  103CHL1   H2513874   2.175   3.559  14.988  0.0175  0.2511  0.0759
  103CHL1   C2613875   2.237   3.400  14.846 -0.5743 -0.1590 -0.1338
  103CHL1  H26A13876   2.341   3.383  14.883  0.3631 -0.1874 -2.5467
  103CHL1  H26B13877   2.194   3.306  14.806  1.0145 -0.1009 -2.1472
  103CHL1  H26C13878   2.238   3.476  14.765  0.5942 -0.1866 -0.1706
  103CHL1   C2713879   2.002   3.441  14.944  0.5584 -0.0626  0.8794
  103CHL1  H27A13880   1.979   3.486  14.845  1.4851  0.5274  0.9124
  103CHL1  H27B13881   1.972   3.335  14.931  0.5063 -0.0304  0.7314
  103CHL1  H27C13882   1.930   3.485  15.016 -0.8169 -0.7704 -0.0383
  104CHL1    C313883   6.182   6.682  15.870 -0.4048  0.1710 -0.2882
  104CHL1    H313884   6.071   6.677  15.875 -0.3944 -4.1419 -0.9782
  104CHL1    O313885   6.236   6.670  16.000  0.2068 -0.6859  0.0371
  104CHL1   H3'13886   6.197   6.588  16.030 -0.7750 -0.2407  0.0425
  104CHL1    C413887   6.237   6.571  15.781 -0.0176 -0.0884  0.0268
  104CHL1   H4A13888   6.348   6.581  15.788  0.1551 -1.5571 -0.3388
  104CHL1   H4B13889   6.200   6.477  15.828 -0.1674  0.6515  1.4228
  104CHL1    C513890   6.201   6.576  15.641  1.0815 -0.0279  0.4619
  104CHL1    C613891   6.167   6.467  15.570 -0.5256  0.6359  0.1815
  104CHL1    H613892   6.153   6.369  15.618 -1.4493  0.8695  0.4123
  104CHL1    C713893   6.135   6.474  15.423 -1.0877 -0.0959 -0.4402
  104CHL1   H7A13894   6.172   6.385  15.368 -2.8785 -1.3126  0.1967
  104CHL1   H7B13895   6.027   6.461  15.398 -1.1061 -0.0048 -0.4076
  104CHL1    C813896   6.178   6.602  15.345 -0.1479  0.5034 -0.3749
  104CHL1    H813897   6.287   6.595  15.329 -0.0167 -1.1451  0.9496
  104CHL1   C1413898   6.109   6.614  15.209 -0.0256  0.3120 -0.2662
  104CHL1   H1413899   6.002   6.621  15.237 -0.2631 -1.3775 -0.6510
  104CHL1   C1513900   6.098   6.495  15.104 -0.1975 -0.6444 -0.2304
  104CHL1  H15A13901   6.195   6.441  15.112  0.9307  1.5366  5.5106
  104CHL1  H15B13902   6.012   6.429  15.128 -0.3163 -0.1154  0.8641
  104CHL1   C1613903   6.075   6.569  14.971 -0.1373  0.1325  0.5670
  104CHL1  H16A13904   6.168   6.563  14.911  0.1884  1.7084  0.8926
  104CHL1  H16B13905   5.989   6.525  14.915 -0.1932 -0.6777  1.2710
  104CHL1   C1713906   6.044   6.720  15.007  0.4907 -0.2825 -0.5038
  104CHL1   H1713907   5.944   6.722  15.055  0.6389 -2.5862  0.0239
  104CHL1   C1313908   6.140   6.744  15.126 -0.4918  0.3846  0.5019
  104CHL1   C1813909   6.286   6.751  15.070  0.1039  0.1473  0.1204
  104CHL1  H18A13910   6.308   6.671  14.996 -1.2963 -0.5169  0.3925
  104CHL1  H18B13911   6.312   6.844  15.016  0.4712  0.2498  0.4661
  104CHL1  H18C13912   6.352   6.748  15.160  1.2394  0.0533 -0.6875
  104CHL1   C1213913   6.100   6.863  15.220  0.3733  0.1281  0.0379
  104CHL1  H12A13914   6.127   6.963  15.182 -0.1898  2.2942  4.6010
  104CHL1  H12B13915   5.989   6.866  15.230  0.5321  0.8031  2.1383
  104CHL1   C1113916   6.166   6.857  15.355 -0.5685  0.5869  0.0952
  104CHL1  H11A13917   6.274   6.884  15.345 -0.9911  1.7381 -1.9802
  104CHL1  H11B13918   6.121   6.936  15.418  0.5274 -0.2965  2.0510
  104CHL1    C913919   6.150   6.723  15.430  0.3416  0.0108  0.6564
  104CHL1    H913920   6.039   6.725  15.439  0.2193  3.9855  0.2655
  104CHL1   C1013921   6.220   6.717  15.574 -0.2187  0.7116  0.1202
  104CHL1   C1913922   6.372   6.751  15.558 -0.1293 -0.3943  0.4165
  104CHL1  H19A13923   6.408   6.698  15.468  0.7810  0.6056  0.1672
  104CHL1  H19B13924   6.369   6.860  15.538 -1.1271 -0.1685  1.6313
  104CHL1  H19C13925   6.428   6.723  15.650 -2.2342 -0.0299  1.8944
  104CHL1    C113926   6.158   6.824  15.665  0.0457 -0.3235 -0.3588
  104CHL1   H1A13927   6.203   6.919  15.630  3.1046 -1.0123  1.3606
  104CHL1   H1B13928   6.047   6.826  15.662  0.0763  0.7298 -1.3122
  104CHL1    C213929   6.210   6.820  15.814  0.0448  0.1758  0.5107
  104CHL1   H2A13930   6.146   6.894  15.867  0.0723  3.5044 -3.5771
  104CHL1   H2B13931   6.320   6.841  15.818  0.1462 -0.4890  2.2225
  104CHL1   C2013932   6.055   6.822  14.874  0.2858  0.8807 -0.2347
  104CHL1   H2013933   6.154   6.813  14.822 -0.6503 -1.0995 -1.8602
  104CHL1   C2113934   6.026   6.963  14.909  0.2268  0.3901  0.3506
  104CHL1  H21A13935   5.923   6.977  14.949  0.4558  1.2900  0.6583
  104CHL1  H21B13936   6.021   7.032  14.822  1.3727  1.2639  0.9537
  104CHL1  H21C13937   6.088   7.014  14.986  1.0137  2.6126 -1.6314
  104CHL1   C2213938   5.958   6.768  14.765 -0.0637  0.1061  0.4615
  104CHL1  H22A13939   5.985   6.661  14.751  3.9398  0.9559  0.4334
  104CHL1  H22B13940   5.849   6.764  14.787  0.1106 -2.5654  1.2006
  104CHL1   C2313941   5.976   6.823  14.624  0.1793  1.0113  0.4661
  104CHL1  H23A13942   5.939   6.928  14.636 -1.5367  0.3331  1.6810
  104CHL1  H23B13943   6.085   6.824  14.603  0.2539  1.5439  0.8544
  104CHL1   C2413944   5.896   6.757  14.513  0.4437 -0.1360 -0.4076
  104CHL1  H24A13945   5.790   6.775  14.538  0.4948 -0.9550  0.4245
  104CHL1  H24B13946   5.921   6.796  14.412  0.8558 -1.6043 -0.9022
  104CHL1   C2513947   5.918   6.599  14.492  0.4303 -0.5477  0.6029
  104CHL1   H2513948   5.878   6.541  14.578  0.9915 -1.2905  0.3695
  104CHL1   C2613949   5.826   6.555  14.373  0.1960 -0.7056  0.3662
  104CHL1  H26A13950   5.720   6.554  14.405 -0.3283  0.5072 -1.1770
  104CHL1  H26B13951   5.822   6.635  14.295 -1.2099 -0.5796  0.5543
  104CHL1  H26C13952   5.856   6.454  14.337  0.7722 -0.8701  1.2887
  104CHL1   C2713953   6.069   6.574  14.455  1.2433 -0.1176 -0.1029
  104CHL1  H27A13954   6.087   6.470  14.420  2.5175  0.4911 -1.3553
  104CHL1  H27B13955   6.098   6.644  14.375 -2.8635  0.9531 -0.8882
  104CHL1  H27C13956   6.127   6.591  14.549  0.0171 -1.6987  1.0029
  105CHL1    C313957   5.116   3.665  16.733 -0.8312 -0.4050 -0.2823
  105CHL1    H313958   5.126   3.555  16.745 -0.2164 -0.2163  1.1456
  105CHL1    O313959   5.073   3.715  16.854  0.0397 -0.0932  0.2179
  105CHL1   H3'13960   4.986   3.675  16.866  0.9666 -2.1372  0.5152
  105CHL1    C413961   5.256   3.734  16.697 -0.3227  0.0392  0.2254
  105CHL1   H4A13962   5.244   3.842  16.716  3.9977  0.5834  0.8842
  105CHL1   H4B13963   5.345   3.705  16.757 -1.9464 -5.1478  0.6556
  105CHL1    C513964   5.293   3.709  16.550  0.2763 -0.2976 -0.5088
  105CHL1    C613965   5.417   3.670  16.518 -0.2379 -0.0316  0.3354
  105CHL1    H613966   5.498   3.664  16.592  0.2548 -2.2316 -0.3084
  105CHL1    C713967   5.470   3.661  16.375 -0.0555 -0.3235 -0.1212
  105CHL1   H7A13968   5.571   3.708  16.372 -0.5348  0.6572 -1.2300
  105CHL1   H7B13969   5.488   3.554  16.350 -0.8721 -1.3171  3.0018
  105CHL1    C813970   5.379   3.723  16.270 -0.0690  0.1059 -0.0989
  105CHL1    H813971   5.394   3.833  16.281 -0.5201  0.2117 -0.5057
  105CHL1   C1413972   5.407   3.677  16.129 -0.0426 -0.5563  0.0989
  105CHL1   H1413973   5.380   3.569  16.125  4.4127 -1.9335  1.5051
  105CHL1   C1513974   5.551   3.674  16.076 -0.5172 -0.1157 -0.1102
  105CHL1  H15A13975   5.602   3.768  16.104 -0.9043  0.5657 -1.6079
  105CHL1  H15B13976   5.607   3.581  16.099  1.1592  1.0347  0.6699
  105CHL1   C1613977   5.546   3.671  15.918 -0.2298 -0.0633 -0.2559
  105CHL1  H16A13978   5.605   3.747  15.862 -2.7947  0.9002 -1.8136
  105CHL1  H16B13979   5.580   3.572  15.882 -0.5641  0.5001 -2.2347
  105CHL1   C1713980   5.389   3.680  15.887 -0.6024 -0.3683 -0.8899
  105CHL1   H1713981   5.368   3.571  15.876  0.1058 -0.5502 -0.5304
  105CHL1   C1313982   5.322   3.740  16.018 -0.2937 -0.3519 -0.0628
  105CHL1   C1813983   5.346   3.890  16.031 -0.3997  0.2689  0.2343
  105CHL1  H18A13984   5.299   3.933  16.122  2.1497  0.0409  1.7548
  105CHL1  H18B13985   5.447   3.934  16.017 -0.3158  0.3043  0.9345
  105CHL1  H18C13986   5.275   3.930  15.955 -0.6523 -0.2281  0.2099
  105CHL1   C1213987   5.173   3.702  16.050 -0.1105 -0.1258 -0.4143
  105CHL1  H12A13988   5.095   3.738  15.980  0.3834  1.7197 -0.0802
  105CHL1  H12B13989   5.167   3.591  16.045  3.0091 -0.3519 -1.2391
  105CHL1   C1113990   5.135   3.752  16.194 -0.2343 -0.0420  0.1947
  105CHL1  H11A13991   5.104   3.858  16.180 -0.6108 -0.0873  0.6492
  105CHL1  H11B13992   5.039   3.707  16.226 -0.0053  0.8020  2.2043
  105CHL1    C913993   5.227   3.698  16.308  0.2921 -0.4090  0.1590
  105CHL1    H913994   5.221   3.588  16.294 -0.4523 -0.3176 -0.2332
  105CHL1   C1013995   5.183   3.734  16.450 -0.6062 -0.2291  0.0455
  105CHL1   C1913996   5.158   3.896  16.453 -0.2515 -0.4270  0.1565
  105CHL1  H19A13997   5.252   3.947  16.422 -0.1800  0.6464  2.0141
  105CHL1  H19B13998   5.077   3.924  16.382 -0.6289  1.7090  1.3509
  105CHL1  H19C13999   5.127   3.934  16.552  1.1427  1.3267 -0.0150
  105CHL1    C114000   5.054   3.659  16.491 -0.3778 -0.3995 -0.2002
  105CHL1   H1A14001   4.978   3.675  16.412 -0.8923  2.3226  0.7554
  105CHL1   H1B14002   5.090   3.554  16.496 -0.7197 -0.5090 -0.0020
  105CHL1    C214003   5.006   3.692  16.629  0.5335 -0.4468 -0.0657
  105CHL1   H2A14004   4.915   3.630  16.642  0.4873 -0.4916 -0.6012
  105CHL1   H2B14005   4.983   3.800  16.629  1.0409 -0.3364  0.0889
  105CHL1   C2014006   5.358   3.743  15.757  0.4229  0.0089 -0.1279
  105CHL1   H2014007   5.396   3.847  15.748 -0.2016  0.3192  0.7146
  105CHL1   C2114008   5.199   3.753  15.736  0.3018  0.1185 -0.3632
  105CHL1  H21A14009   5.152   3.657  15.766 -2.4961  1.5987  0.3640
  105CHL1  H21B14010   5.177   3.764  15.628  0.5785 -2.5305 -0.7548
  105CHL1  H21C14011   5.149   3.828  15.802 -0.8679 -0.9019 -0.0461
  105CHL1   C2214012   5.432   3.668  15.637 -0.1497  0.3254 -0.2750
  105CHL1  H22A14013   5.535   3.641  15.669 -1.3879 -3.4247  0.9651
  105CHL1  H22B14014   5.381   3.571  15.618  0.1165 -0.1715  1.4393
  105CHL1   C2314015   5.425   3.749  15.505 -0.7718 -0.0000 -0.1129
  105CHL1  H23A14016   5.327   3.753  15.453 -1.2699 -1.5326  0.6374
  105CHL1  H23B14017   5.451   3.854  15.529  1.4829 -0.4669 -0.2776
  105CHL1   C2414018   5.529   3.683  15.407  0.6103 -0.4979 -0.3062
  105CHL1  H24A14019   5.631   3.716  15.435 -0.0034  0.4159  0.9273
  105CHL1  H24B14020   5.537   3.572  15.412 -1.1482 -0.6113  0.8217
  105CHL1   C2514021   5.496   3.723  15.260 -0.5330  0.3068 -0.4744
  105CHL1   H2514022   5.388   3.696  15.251 -0.3960 -0.8923  1.0552
  105CHL1   C2614023   5.523   3.870  15.218  0.0560 -0.5377 -0.0307
  105CHL1  H26A14024   5.628   3.887  15.186 -0.6781 -0.4025 -2.6133
  105CHL1  H26B14025   5.463   3.894  15.128  1.0508 -0.4657 -0.6861
  105CHL1  H26C14026   5.495   3.942  15.298 -1.5979 -1.9052  0.7039
  105CHL1   C2714027   5.560   3.628  15.162 -0.3352 -0.5239  0.3295
  105CHL1  H27A14028   5.520   3.659  15.063 -0.4585 -0.1538  0.4942
  105CHL1  H27B14029   5.670   3.638  15.169 -0.1336 -1.2990 -1.4240
  105CHL1  H27C14030   5.520   3.525  15.175 -0.4849 -0.4351  0.5801
  106CHL1    C314031   0.764   3.754  16.500 -0.6552 -0.0706 -0.1487
  106CHL1    H314032   0.776   3.644  16.495  0.9065  0.0343  0.5547
  106CHL1    O314033   0.723   3.800  16.628 -0.2917 -0.5041  0.4629
  106CHL1   H3'14034   0.738   3.895  16.626  1.4342 -0.7399 -0.0217
  106CHL1    C414035   0.900   3.816  16.481  0.1640  0.4427  0.1561
  106CHL1   H4A14036   0.907   3.925  16.506  0.4655  0.7052 -1.0184
  106CHL1   H4B14037   0.972   3.759  16.544  1.1900 -1.5840 -2.6540
  106CHL1    C514038   0.955   3.783  16.342 -0.2664 -0.2087 -0.1133
  106CHL1    C614039   1.077   3.723  16.327 -0.5866 -0.4398 -0.1079
  106CHL1    H614040   1.139   3.706  16.417 -0.6798  0.1017  0.0661
  106CHL1    C714041   1.135   3.683  16.194 -0.0817 -0.5448 -0.3673
  106CHL1   H7A14042   1.242   3.715  16.188 -0.1314  0.8871  3.3455
  106CHL1   H7B14043   1.123   3.573  16.185  3.0965 -1.2784  2.2449
  106CHL1    C814044   1.055   3.763  16.080 -1.2874 -0.4346  0.3975
  106CHL1    H814045   1.084   3.871  16.083 -0.1957 -0.7247  0.7059
  106CHL1   C1414046   1.081   3.703  15.942  0.4349 -0.8478 -0.0928
  106CHL1   H1414047   1.040   3.600  15.935  0.4729 -0.9442  0.9565
  106CHL1   C1514048   1.229   3.681  15.912  0.2075 -0.6588  0.3693
  106CHL1  H15A14049   1.301   3.762  15.938  0.0838 -0.2027 -0.6406
  106CHL1  H15B14050   1.264   3.602  15.981 -0.0377  0.0789  1.3604
  106CHL1   C1614051   1.237   3.645  15.761  0.4282 -0.2564  0.2453
  106CHL1  H16A14052   1.303   3.715  15.706 -1.0384  1.3924  0.4705
  106CHL1  H16B14053   1.248   3.537  15.736  1.2623 -0.4462  1.3719
  106CHL1   C1714054   1.095   3.692  15.705 -0.0197  0.2348 -0.1797
  106CHL1   H1714055   1.033   3.603  15.681 -0.2133 -0.0585  1.3238
  106CHL1   C1314056   1.026   3.777  15.820 -0.1581 -0.0387 -0.3784
  106CHL1   C1814057   1.082   3.924  15.820 -0.2950 -0.1284 -0.5411
  106CHL1  H18A14058   1.045   3.978  15.910  0.3081  2.0989 -1.5569
  106CHL1  H18B14059   1.193   3.930  15.825 -0.3967  1.2322  1.1879
  106CHL1  H18C14060   1.048   3.991  15.737 -1.6464  0.3950  0.4050
  106CHL1   C1214061   0.874   3.758  15.832 -0.0710 -0.0657 -0.2115
  106CHL1  H12A14062   0.839   3.812  15.741 -0.1910 -1.0576 -0.7657
  106CHL1  H12B14063   0.834   3.656  15.815 -0.7156  0.1511 -0.0348
  106CHL1   C1114064   0.826   3.820  15.964 -0.1082 -0.6809 -0.0084
  106CHL1  H11A14065   0.826   3.931  15.961 -1.8018 -0.6681 -0.4510
  106CHL1  H11B14066   0.721   3.793  15.985 -0.8248  3.4310  3.0039
  106CHL1    C914067   0.906   3.762  16.094 -0.0028 -0.1446  0.7122
  106CHL1    H914068   0.882   3.654  16.080  3.4824 -0.8772 -0.6658
  106CHL1   C1014069   0.855   3.814  16.226 -0.0323 -0.3458 -0.2521
  106CHL1   C1914070   0.845   3.971  16.227 -0.3628  0.5027 -0.0325
  106CHL1  H19A14071   0.943   4.022  16.213 -1.0620  2.5132  1.8483
  106CHL1  H19B14072   0.775   4.005  16.147  0.5085  0.4881 -0.8222
  106CHL1  H19C14073   0.813   4.020  16.321  1.3654  2.1770 -0.2604
  106CHL1    C114074   0.719   3.749  16.261 -0.3383  0.4417  0.9213
  106CHL1   H1A14075   0.643   3.759  16.180 -0.4977  0.2958  1.0506
  106CHL1   H1B14076   0.737   3.639  16.259  1.0406  0.6060 -2.3058
  106CHL1    C214077   0.660   3.795  16.393  0.3734  0.0687  0.3813
  106CHL1   H2A14078   0.567   3.740  16.419  0.7066 -0.3634  0.6800
  106CHL1   H2B14079   0.634   3.903  16.397 -2.2226 -0.5317  2.3975
  106CHL1   C2014080   1.115   3.763  15.568 -0.2504  0.3001 -0.1557
  106CHL1   H2014081   1.164   3.862  15.582  0.0596  0.2810 -1.0406
  106CHL1   C2114082   0.980   3.786  15.498 -0.3368 -0.1370 -0.1631
  106CHL1  H21A14083   0.916   3.695  15.495 -0.6258  0.0678 -2.5171
  106CHL1  H21B14084   0.992   3.816  15.392 -3.2184 -1.1612 -0.8929
  106CHL1  H21C14085   0.924   3.874  15.538 -0.1404 -0.5527  1.0651
  106CHL1   C2214086   1.200   3.685  15.462  0.5781 -0.0215 -0.0032
  106CHL1  H22A14087   1.217   3.744  15.370  0.0343 -0.3381 -0.3075
  106CHL1  H22B14088   1.304   3.678  15.501  0.7724 -0.6185 -0.6055
  106CHL1   C2314089   1.148   3.543  15.426  1.1115  0.0950 -0.1591
  106CHL1  H23A14090   1.111   3.481  15.511  1.1709  0.2293 -0.0367
  106CHL1  H23B14091   1.059   3.560  15.362 -1.2146 -3.0632  1.9397
  106CHL1   C2414092   1.255   3.470  15.351  0.1048 -0.2876  0.6475
  106CHL1  H24A14093   1.275   3.518  15.253 -0.8966 -2.7143 -0.8564
  106CHL1  H24B14094   1.343   3.474  15.419  0.0645  3.6806  0.6898
  106CHL1   C2514095   1.219   3.323  15.321  0.7095 -0.2032  0.5568
  106CHL1   H2514096   1.110   3.308  15.311  0.6083 -1.1378  2.6291
  106CHL1   C2614097   1.282   3.271  15.191 -0.1329 -0.7131 -0.1308
  106CHL1  H26A14098   1.243   3.334  15.108  0.7020  0.5379  0.3893
  106CHL1  H26B14099   1.392   3.261  15.200  0.0199 -0.0000 -1.0812
  106CHL1  H26C14100   1.242   3.169  15.174  2.0192 -1.7698  0.7952
  106CHL1   C2714101   1.251   3.230  15.439 -0.5333 -0.6680  0.6391
  106CHL1  H27A14102   1.224   3.125  15.416 -0.6122 -0.2458 -1.4749
  106CHL1  H27B14103   1.357   3.232  15.471 -0.5152  0.6901  0.5392
  106CHL1  H27C14104   1.190   3.266  15.524 -0.9494  0.4252 -0.0911
  107CHL1    C314105   3.229   0.056  16.334 -0.2887  0.1778  0.2061
  107CHL1    H314106   3.219   0.158  16.291  1.9866 -0.8914 -3.2784
  107CHL1    O314107   3.250   0.063  16.480  0.0976 -0.2507  0.6760
  107CHL1   H3'14108   3.280  -0.026  16.500  2.1705 -0.3005 -2.1252
  107CHL1    C414109   3.112  -0.031  16.297  0.6094  0.2363 -0.0420
  107CHL1   H4A14110   3.113  -0.132  16.343  0.7071  0.7842  1.1909
  107CHL1   H4B14111   3.023   0.007  16.352  0.9005 -0.1769  0.7238
  107CHL1    C514112   3.088  -0.032  16.145  0.6045 -0.2866 -0.0628
  107CHL1    C614113   2.973   0.006  16.088  0.0853 -0.1081  0.2814
  107CHL1    H614114   2.886   0.033  16.151 -1.0180 -0.0306 -1.2087
  107CHL1    C714115   2.951   0.005  15.943  0.1589  0.4228  0.3574
  107CHL1   H7A14116   2.848  -0.026  15.914 -0.3070  2.7778 -0.7877
  107CHL1   H7B14117   2.960   0.107  15.900  1.4572  0.4161  0.5964
  107CHL1    C814118   3.046  -0.087  15.864  0.6746  1.0205  0.5116
  107CHL1    H814119   3.012  -0.190  15.886 -0.8051  1.3115 -0.2665
  107CHL1   C1414120   3.041  -0.056  15.713 -0.6537  0.1864  0.0139
  107CHL1   H1414121   3.086   0.045  15.700  1.2044 -0.4050  1.4780
  107CHL1   C1514122   2.897  -0.052  15.652  0.0223  0.2445 -0.4732
  107CHL1  H15A14123   2.837  -0.137  15.689  0.2660  0.7543  1.1687
  107CHL1  H15B14124   2.844   0.044  15.667  2.7681  2.0528 -1.4742
  107CHL1   C1614125   2.929  -0.085  15.506 -0.0131 -0.1680  0.0102
  107CHL1  H16A14126   2.869  -0.172  15.470  0.4998 -0.2480 -0.6699
  107CHL1  H16B14127   2.891  -0.002  15.443  1.1747 -0.2030 -0.7745
  107CHL1   C1714128   3.081  -0.101  15.489 -0.3239 -0.0685 -0.0530
  107CHL1   H1714129   3.120   0.002  15.472 -1.1535  0.0460 -1.3647
  107CHL1   C1314130   3.132  -0.143  15.629 -0.3323  0.2213 -0.4147
  107CHL1   C1814131   3.099  -0.290  15.654 -0.2477  0.4368 -0.4348
  107CHL1  H18A14132   3.170  -0.356  15.599  0.0468  1.4065 -1.2447
  107CHL1  H18B14133   3.116  -0.315  15.761  0.3938 -0.1889 -0.6720
  107CHL1  H18C14134   2.991  -0.309  15.638 -0.5373 -0.6203  2.2169
  107CHL1   C1214135   3.280  -0.111  15.669 -0.4732 -0.7241  0.0459
  107CHL1  H12A14136   3.350  -0.168  15.604  1.1895  1.4124 -0.1395
  107CHL1  H12B14137   3.306  -0.008  15.637  1.8186 -1.5999 -1.1899
  107CHL1   C1114138   3.294  -0.129  15.822  0.5823  0.2406  0.2958
  107CHL1  H11A14139   3.292  -0.239  15.837  1.0631  0.3390  1.1278
  107CHL1  H11B14140   3.392  -0.080  15.841  0.4326  0.9776 -0.7152
  107CHL1    C914141   3.190  -0.058  15.911  0.1241 -0.2257 -0.1741
  107CHL1    H914142   3.197   0.048  15.880 -3.1843  0.2927  0.5405
  107CHL1   C1014143   3.216  -0.076  16.062  0.7461 -0.2666  0.1978
  107CHL1   C1914144   3.222  -0.224  16.099 -0.0163 -0.4210 -0.7886
  107CHL1  H19A14145   3.122  -0.271  16.097  0.9292 -2.8810  2.0233
  107CHL1  H19B14146   3.301  -0.269  16.035  0.7923  0.8274 -0.7070
  107CHL1  H19C14147   3.265  -0.247  16.199 -1.0102 -1.0499 -0.5006
  107CHL1    C114148   3.346  -0.001  16.115 -0.6884 -0.6330  0.3589
  107CHL1   H1A14149   3.436  -0.033  16.059 -1.0563 -0.5486 -0.2836
  107CHL1   H1B14150   3.325   0.100  16.075  0.8469  0.2205  1.5918
  107CHL1    C214151   3.360  -0.004  16.266  0.6136 -0.2110  0.0950
  107CHL1   H2A14152   3.438   0.070  16.293  0.1651 -0.1804  1.3515
  107CHL1   H2B14153   3.401  -0.099  16.305  0.2423 -0.1190  0.7185
  107CHL1   C2014154   3.126  -0.181  15.363 -0.0132 -0.3754 -0.3523
  107CHL1   H2014155   3.099  -0.286  15.390 -0.3056 -0.1695  0.1677
  107CHL1   C2114156   3.278  -0.184  15.341 -0.0362  0.3106 -0.0021
  107CHL1  H21A14157   3.326  -0.084  15.336  1.8767 -0.5499  0.0657
  107CHL1  H21B14158   3.296  -0.251  15.254 -0.4368 -0.8044  0.7556
  107CHL1  H21C14159   3.324  -0.244  15.423 -1.3047 -0.7559 -0.0398
  107CHL1   C2214160   3.043  -0.141  15.242  0.0887 -0.5868 -0.2978
  107CHL1  H22A14161   2.936  -0.166  15.259  0.4169 -3.4542 -1.8119
  107CHL1  H22B14162   3.058  -0.033  15.220  0.7357 -0.3849  1.0495
  107CHL1   C2314163   3.088  -0.220  15.113 -0.3038 -0.3406 -0.7077
  107CHL1  H23A14164   3.194  -0.192  15.094  0.9683 -1.7629  3.3842
  107CHL1  H23B14165   3.102  -0.324  15.146  1.3374  1.0238  3.4920
  107CHL1   C2414166   3.002  -0.187  14.989 -0.0306  0.3625 -0.6844
  107CHL1  H24A14167   2.895  -0.211  15.008  0.3765 -1.5059 -0.4992
  107CHL1  H24B14168   3.022  -0.081  14.965  2.0615 -0.2069 -1.7518
  107CHL1   C2514169   3.042  -0.266  14.858  0.0717  0.6552 -0.1256
  107CHL1   H2514170   3.063  -0.372  14.881  0.8107  1.3823  3.0728
  107CHL1   C2614171   2.925  -0.257  14.759 -0.7425 -0.9500  0.2637
  107CHL1  H26A14172   2.942  -0.325  14.672 -0.3798  0.6750 -0.9922
  107CHL1  H26B14173   2.831  -0.297  14.802 -2.6058  2.4747 -0.3058
  107CHL1  H26C14174   2.894  -0.160  14.714  0.7325 -0.2644  0.6655
  107CHL1   C2714175   3.172  -0.214  14.795 -0.0885 -0.7156  0.1353
  107CHL1  H27A14176   3.203  -0.279  14.711  1.9197 -1.1787  1.1810
  107CHL1  H27B14177   3.148  -0.111  14.759  0.7084  0.3782  2.4981
  107CHL1  H27C14178   3.252  -0.207  14.872 -0.7481 -1.0162  0.8638
  108CHL1    C314179   5.301   2.553  16.611 -0.0004  0.7286 -0.2154
  108CHL1    H314180   5.257   2.453  16.593 -2.4037  1.3258  1.7604
  108CHL1    O314181   5.313   2.549  16.749  0.3263 -0.0757 -0.1344
  108CHL1   H3'14182   5.306   2.639  16.782  1.0435  0.4505 -1.3743
  108CHL1    C414183   5.437   2.561  16.542  0.2282  0.3913 -0.1822
  108CHL1   H4A14184   5.483   2.649  16.591  0.3526 -0.0321  0.4761
  108CHL1   H4B14185   5.496   2.472  16.574 -0.7036  0.3199  1.4764
  108CHL1    C514186   5.448   2.580  16.394  0.1666  0.0884 -0.3508
  108CHL1    C614187   5.522   2.492  16.318  0.5622  0.4984  0.0518
  108CHL1    H614188   5.587   2.419  16.368  0.9188  0.7906  0.0240
  108CHL1    C714189   5.533   2.494  16.175  0.5568 -0.2965  0.3188
  108CHL1   H7A14190   5.640   2.492  16.145  0.6780 -2.0938  0.7766
  108CHL1   H7B14191   5.481   2.409  16.125  1.1488  0.0627 -0.9628
  108CHL1    C814192   5.476   2.628  16.114 -0.4034  0.0047  0.1974
  108CHL1    H814193   5.550   2.708  16.135 -0.4838 -0.0809  0.8119
  108CHL1   C1414194   5.438   2.611  15.965  0.2604  0.2147  0.7051
  108CHL1   H1414195   5.356   2.536  15.952  0.0333  0.7200 -0.9462
  108CHL1   C1514196   5.547   2.562  15.872 -0.0111 -0.5171  0.2133
  108CHL1  H15A14197   5.649   2.604  15.883 -0.6874  1.9811 -2.0250
  108CHL1  H15B14198   5.550   2.451  15.866 -0.5206 -0.4805 -0.9035
  108CHL1   C1614199   5.499   2.600  15.726 -0.6912  0.6794 -0.0759
  108CHL1  H16A14200   5.585   2.647  15.673 -0.0595 -1.0998 -0.7000
  108CHL1  H16B14201   5.474   2.507  15.670 -1.5965  0.1349  1.1848
  108CHL1   C1714202   5.380   2.689  15.747  0.2730  0.2165 -0.3472
  108CHL1   H1714203   5.297   2.616  15.736  0.2088  0.2242  0.0648
  108CHL1   C1314204   5.385   2.732  15.896 -0.3308  0.0539 -0.2925
  108CHL1   C1814205   5.488   2.843  15.895 -0.1751  0.2646 -0.1979
  108CHL1  H18A14206   5.444   2.925  15.835 -0.5498 -2.0199 -3.3054
  108CHL1  H18B14207   5.518   2.889  15.991  0.8747  1.3514 -1.0167
  108CHL1  H18C14208   5.570   2.807  15.830 -0.3953 -2.7557  1.0330
  108CHL1   C1214209   5.252   2.774  15.960 -0.3844 -0.2484  0.2379
  108CHL1  H12A14210   5.214   2.865  15.907 -0.6836 -0.7666 -0.4617
  108CHL1  H12B14211   5.170   2.699  15.951  0.4941 -1.0477 -1.8712
  108CHL1   C1114212   5.271   2.794  16.106  0.1407  0.0302  0.3746
  108CHL1  H11A14213   5.322   2.891  16.122  0.4786 -0.1161  0.1939
  108CHL1  H11B14214   5.171   2.809  16.153 -0.3656  2.1870 -1.2583
  108CHL1    C914215   5.344   2.678  16.177  0.6609 -0.0321 -0.3121
  108CHL1    H914216   5.282   2.588  16.156  3.1160 -1.3019 -2.9396
  108CHL1   C1014217   5.358   2.692  16.338 -0.2238  0.5083  0.7666
  108CHL1   C1914218   5.419   2.826  16.371 -0.9183  0.2622  0.1334
  108CHL1  H19A14219   5.431   2.829  16.481 -0.7903 -1.2750  0.1853
  108CHL1  H19B14220   5.523   2.832  16.332 -0.8550  1.3111  0.4228
  108CHL1  H19C14221   5.356   2.916  16.354 -1.1977 -0.1230 -0.9157
  108CHL1    C114222   5.215   2.679  16.401 -0.4489  0.7827  0.4384
  108CHL1   H1A14223   5.165   2.777  16.383 -2.5905 -0.1725  0.8874
  108CHL1   H1B14224   5.163   2.593  16.354  1.7385 -0.9271  1.0179
  108CHL1    C214225   5.211   2.667  16.562  0.4873 -0.4642  0.9181
  108CHL1   H2A14226   5.106   2.650  16.596 -0.5606  2.3269 -0.5629
  108CHL1   H2B14227   5.247   2.763  16.604  0.3686  1.3937 -2.7892
  108CHL1   C2014228   5.366   2.780  15.626  0.3025 -0.8014 -0.0571
  108CHL1   H2014229   5.436   2.866  15.627 -1.5381  0.7649  0.5224
  108CHL1   C2114230   5.228   2.843  15.628 -0.1840  0.5751  0.0662
  108CHL1  H21A14231   5.148   2.778  15.669 -0.2554  0.1797 -0.6795
  108CHL1  H21B14232   5.189   2.871  15.528  0.4364  2.3972  0.3127
  108CHL1  H21C14233   5.232   2.929  15.697  0.6380 -0.8009  1.7943
  108CHL1   C2214234   5.387   2.720  15.485  0.1249 -0.1234 -0.3386
  108CHL1  H22A14235   5.477   2.656  15.476  0.3982  0.0575  0.9404
  108CHL1  H22B14236   5.304   2.647  15.478  2.3746 -2.8796  0.0807
  108CHL1   C2314237   5.397   2.811  15.361  0.5426 -0.1332 -0.5752
  108CHL1  H23A14238   5.314   2.883  15.345 -0.1147 -0.0635  2.5738
  108CHL1  H23B14239   5.486   2.876  15.377 -0.5488  1.3965 -0.5056
  108CHL1   C2414240   5.420   2.726  15.241  0.0181 -0.2052 -0.1483
  108CHL1  H24A14241   5.511   2.664  15.253  1.2529  1.3036 -1.2756
  108CHL1  H24B14242   5.340   2.654  15.215 -1.7045  1.5350  0.0977
  108CHL1   C2514243   5.458   2.799  15.113  0.0767 -0.3934 -0.0197
  108CHL1   H2514244   5.548   2.860  15.137  0.5624 -0.8757 -0.5931
  108CHL1   C2614245   5.493   2.695  15.005  0.5775  0.1342  0.5271
  108CHL1  H26A14246   5.560   2.614  15.043 -0.1862 -0.0379  1.5520
  108CHL1  H26B14247   5.396   2.661  14.963 -0.2604  1.6796  1.1291
  108CHL1  H26C14248   5.554   2.740  14.924  2.0431 -0.2510  1.3696
  108CHL1   C2714249   5.353   2.892  15.059 -0.1229 -0.5207 -0.5883
  108CHL1  H27A14250   5.270   2.835  15.012  1.2735 -2.5667 -0.7016
  108CHL1  H27B14251   5.316   2.969  15.130 -1.5429 -0.0795 -1.7337
  108CHL1  H27C14252   5.396   2.953  14.977 -1.2595  1.2855  0.0759
  109CHL1    C314253   1.686   6.471  16.508  0.5632 -0.7856  0.2657
  109CHL1    H314254   1.589   6.494  16.460 -0.1603  1.0689  2.4403
  109CHL1    O314255   1.677   6.479  16.650  0.1474 -0.1028 -0.4935
  109CHL1   H3'14256   1.769   6.485  16.678 -0.2763  1.0650  0.7995
  109CHL1    C414257   1.726   6.325  16.474 -0.6549 -0.4286  0.4651
  109CHL1   H4A14258   1.825   6.317  16.523  0.4272  0.6947 -1.3848
  109CHL1   H4B14259   1.647   6.258  16.514 -0.2117 -0.7961  0.7231
  109CHL1    C514260   1.743   6.303  16.324 -0.2364 -0.8790  0.3678
  109CHL1    C614261   1.655   6.217  16.264  0.5045  0.3907 -0.1027
  109CHL1    H614262   1.582   6.163  16.327  0.0199 -1.1381 -1.8972
  109CHL1    C714263   1.667   6.205  16.114 -0.0517  0.0598  0.4860
  109CHL1   H7A14264   1.660   6.098  16.086 -0.1353  0.1079  0.3208
  109CHL1   H7B14265   1.580   6.262  16.074  0.6686  2.3992  2.0600
  109CHL1    C814266   1.800   6.258  16.048  0.3660  0.7796  0.1869
  109CHL1    H814267   1.877   6.181  16.074  0.2298  0.2707 -0.8599
  109CHL1   C1414268   1.787   6.263  15.900  0.6274  0.3831  0.0402
  109CHL1   H1414269   1.713   6.342  15.877 -1.1841 -1.0615  0.6811
  109CHL1   C1514270   1.728   6.138  15.823  0.4623  0.6461  0.0767
  109CHL1  H15A14271   1.774   6.052  15.876 -0.5699  0.3563  0.5347
  109CHL1  H15B14272   1.619   6.122  15.833  0.1526  2.1600 -0.6391
  109CHL1   C1614273   1.781   6.153  15.676  0.5343 -0.0734 -0.1458
  109CHL1  H16A14274   1.839   6.061  15.653 -0.1521 -0.4545 -0.4041
  109CHL1  H16B14275   1.695   6.158  15.606  0.8152  1.0336 -0.4250
  109CHL1   C1714276   1.878   6.274  15.676 -0.2897 -0.0970  0.4747
  109CHL1   H1714277   1.818   6.365  15.655  1.5475  0.7227 -1.6935
  109CHL1   C1314278   1.924   6.292  15.827  0.1768  0.0806  0.5723
  109CHL1   C1814279   2.034   6.186  15.859 -0.5902  0.8168 -0.3503
  109CHL1  H18A14280   2.075   6.193  15.962 -3.3604 -2.0554  1.1343
  109CHL1  H18B14281   1.990   6.084  15.853 -4.1193  2.0252  1.6915
  109CHL1  H18C14282   2.121   6.206  15.793  1.0514 -0.2845  1.3823
  109CHL1   C1214283   1.951   6.439  15.869  0.8748  0.6911 -0.3689
  109CHL1  H12A14284   2.031   6.487  15.809  0.7558 -0.4096 -1.4396
  109CHL1  H12B14285   1.862   6.500  15.842 -1.2805 -1.4427  1.4146
  109CHL1   C1114286   1.967   6.449  16.020 -0.8528 -0.1609 -0.1216
  109CHL1  H11A14287   2.046   6.384  16.062 -1.1950  0.6232  1.8163
  109CHL1  H11B14288   1.984   6.557  16.039  0.1256 -0.5290  1.1792
  109CHL1    C914289   1.843   6.393  16.101 -0.4797 -0.5954  0.6534
  109CHL1    H914290   1.754   6.455  16.080 -1.5115 -2.6706 -1.6039
  109CHL1   C1014291   1.856   6.392  16.258  0.4765 -0.1333  0.2785
  109CHL1   C1914292   1.997   6.340  16.301  0.2360  0.1164  0.2324
  109CHL1  H19A14293   2.067   6.424  16.286  2.7585 -1.7822  0.6132
  109CHL1  H19B14294   1.999   6.313  16.409 -1.3632 -1.2258 -0.0080
  109CHL1  H19C14295   2.024   6.249  16.243 -0.6322 -0.9306  1.4072
  109CHL1    C114296   1.827   6.539  16.313  0.3676  0.8075  0.9861
  109CHL1   H1A14297   1.911   6.607  16.288  1.4591 -0.3865  1.3507
  109CHL1   H1B14298   1.740   6.573  16.252 -0.4693 -0.4074  1.4696
  109CHL1    C214299   1.797   6.565  16.462  0.4193  0.5511  0.4500
  109CHL1   H2A14300   1.755   6.668  16.472 -4.4845 -0.9450 -1.7565
  109CHL1   H2B14301   1.894   6.550  16.515 -0.2342 -1.5305  1.1542
  109CHL1   C2014302   1.990   6.265  15.567  0.9831 -0.4910  0.2316
  109CHL1   H2014303   2.059   6.180  15.585  1.3684  0.0680  1.5425
  109CHL1   C2114304   2.078   6.395  15.556 -0.1075 -0.3231  0.2930
  109CHL1  H21A14305   2.154   6.380  15.476 -0.3046 -0.8819  0.2086
  109CHL1  H21B14306   2.136   6.424  15.646  1.2026  0.3388 -0.7251
  109CHL1  H21C14307   2.024   6.489  15.533 -1.2133 -0.9073  0.4698
  109CHL1   C2214308   1.926   6.237  15.427 -0.4311 -1.2776 -0.4601
  109CHL1  H22A14309   1.847   6.159  15.429 -1.5216 -0.2080  2.3242
  109CHL1  H22B14310   1.896   6.336  15.385  1.9931 -0.2922 -0.0184
  109CHL1   C2314311   2.033   6.185  15.333 -0.2125  0.2154 -0.1117
  109CHL1  H23A14312   2.094   6.270  15.298 -0.1283 -0.4656 -1.7040
  109CHL1  H23B14313   2.106   6.115  15.379 -0.4137  1.0765  1.6068
  109CHL1   C2414314   1.964   6.116  15.212 -0.3393  0.1674 -0.3462
  109CHL1  H24A14315   1.934   6.016  15.250  1.9522 -1.0540 -1.5016
  109CHL1  H24B14316   1.875   6.175  15.183  1.5142  2.5304 -1.6273
  109CHL1   C2514317   2.046   6.095  15.078  0.3939  0.0427  0.0001
  109CHL1   H2514318   2.117   6.180  15.087 -0.2310  0.3761  2.7101
  109CHL1   C2614319   2.128   5.963  15.100  0.4381  0.1320  0.0413
  109CHL1  H26A14320   2.208   5.969  15.024  1.9761 -0.0732  1.5699
  109CHL1  H26B14321   2.174   5.954  15.201  1.7907  1.1012 -0.4700
  109CHL1  H26C14322   2.052   5.883  15.084 -0.0201  0.1506  1.9043
  109CHL1   C2714323   1.954   6.095  14.955 -0.0265  0.1082 -0.2471
  109CHL1  H27A14324   1.995   6.067  14.855  0.9000  1.4089 -0.2590
  109CHL1  H27B14325   1.863   6.034  14.969 -1.8515  3.0267  1.6093
  109CHL1  H27C14326   1.912   6.198  14.945 -0.2668  0.0687  0.3550
  110CHL1    C314327   0.690   5.452  16.472 -0.7444  0.2406  0.4602
  110CHL1    H314328   0.675   5.345  16.449 -1.4032  0.1744  1.1511
  110CHL1    O314329   0.663   5.491  16.606  0.3915  0.0676  0.6416
  110CHL1   H3'14330   0.567   5.492  16.605  0.2966 -1.8646 -1.3247
  110CHL1    C414331   0.839   5.474  16.445 -0.3643 -0.5351  0.1679
  110CHL1   H4A14332   0.867   5.574  16.484 -0.5862 -0.8377  1.1179
  110CHL1   H4B14333   0.895   5.403  16.509  2.0018  1.3741  0.3732
  110CHL1    C514334   0.888   5.471  16.303 -0.3485  0.5926  0.3083
  110CHL1    C614335   0.994   5.393  16.274 -0.2104  0.0998  0.3927
  110CHL1    H614336   1.055   5.353  16.356 -2.3732 -0.2776  1.8998
  110CHL1    C714337   1.046   5.383  16.133 -0.2411  0.2991 -0.1061
  110CHL1   H7A14338   1.155   5.402  16.122 -0.6158  1.9465 -1.4215
  110CHL1   H7B14339   1.020   5.282  16.094 -0.0036  0.2778 -0.2110
  110CHL1    C814340   0.984   5.485  16.035 -0.0224  0.1806  0.2991
  110CHL1    H814341   1.040   5.581  16.042  0.6254 -0.0024 -1.7267
  110CHL1   C1414342   1.011   5.435  15.884 -0.6088  0.4936 -0.2804
  110CHL1   H1414343   0.945   5.346  15.868  1.6761 -1.0932 -1.5186
  110CHL1   C1514344   1.157   5.393  15.842  0.3813  0.1192 -0.4016
  110CHL1  H15A14345   1.229   5.471  15.874  0.7277 -0.4320  0.2029
  110CHL1  H15B14346   1.171   5.288  15.878 -2.6463 -0.0017  0.7654
  110CHL1   C1614347   1.142   5.391  15.688 -0.2031 -0.2947 -0.2290
  110CHL1  H16A14348   1.229   5.452  15.655 -0.5707 -1.5291 -4.0110
  110CHL1  H16B14349   1.136   5.290  15.642 -0.1270  0.2881 -1.5545
  110CHL1   C1714350   1.003   5.458  15.645 -0.4304 -0.2757 -0.6281
  110CHL1   H1714351   0.923   5.381  15.648  0.4645 -1.1860  1.7489
  110CHL1   C1314352   0.962   5.535  15.778  0.1069  0.1348  0.6316
  110CHL1   C1814353   1.046   5.664  15.787 -0.5405  0.5050 -0.5053
  110CHL1  H18A14354   1.047   5.701  15.892  0.4631 -3.2528  0.9675
  110CHL1  H18B14355   1.153   5.640  15.774 -0.0702  1.1860  1.6942
  110CHL1  H18C14356   0.999   5.740  15.721 -1.5476 -0.5043 -0.9909
  110CHL1   C1214357   0.812   5.568  15.794 -0.3235 -0.4250 -0.4381
  110CHL1  H12A14358   0.789   5.655  15.730 -1.4389  0.9981  1.7796
  110CHL1  H12B14359   0.763   5.475  15.758  1.4908 -1.4478 -0.4100
  110CHL1   C1114360   0.784   5.603  15.941  0.6387  0.0146 -0.3756
  110CHL1  H11A14361   0.835   5.701  15.945 -1.2536  1.0177  0.8407
  110CHL1  H11B14362   0.674   5.616  15.952  0.6856 -0.1310  0.2922
  110CHL1    C914363   0.835   5.503  16.048 -0.6772  0.4444 -0.4339
  110CHL1    H914364   0.792   5.402  16.030 -1.4812  0.8282 -0.6686
  110CHL1   C1014365   0.802   5.542  16.195 -0.1046  0.5258 -0.4468
  110CHL1   C1914366   0.816   5.697  16.204  0.6884 -0.0506  0.0825
  110CHL1  H19A14367   0.717   5.724  16.160  0.2075 -1.2179  0.3941
  110CHL1  H19B14368   0.816   5.730  16.310  0.4585 -1.6735  0.6301
  110CHL1  H19C14369   0.893   5.740  16.136  0.2650 -2.7702 -2.3620
  110CHL1    C114370   0.653   5.511  16.229 -0.3360  0.2750  0.2804
  110CHL1   H1A14371   0.586   5.579  16.171  0.2855  1.8358  1.3222
  110CHL1   H1B14372   0.631   5.406  16.202 -2.3027  1.1206 -1.7549
  110CHL1    C214373   0.612   5.542  16.377 -0.0237 -0.4837  0.0999
  110CHL1   H2A14374   0.505   5.520  16.397  0.0777 -0.2512  0.9251
  110CHL1   H2B14375   0.629   5.645  16.414 -0.8850 -0.2704 -0.0841
  110CHL1   C2014376   0.991   5.526  15.514 -0.2247 -0.3210 -0.2626
  110CHL1   H2014377   1.010   5.635  15.514  4.1431 -0.9098 -1.2436
  110CHL1   C2114378   0.847   5.517  15.461  0.5568 -0.3065  0.1222
  110CHL1  H21A14379   0.843   5.582  15.372  1.6920  0.7525  0.8097
  110CHL1  H21B14380   0.769   5.563  15.527  2.3341  3.6923 -0.3179
  110CHL1  H21C14381   0.828   5.415  15.421  0.3354  0.8874 -3.0132
  110CHL1   C2214382   1.085   5.462  15.401 -0.1978 -0.1469 -1.0351
  110CHL1  H22A14383   1.191   5.473  15.434 -0.7272  2.0021  0.1153
  110CHL1  H22B14384   1.066   5.354  15.385 -0.6121  0.1296 -2.6469
  110CHL1   C2314385   1.075   5.527  15.264 -0.2999  0.7903  0.6907
  110CHL1  H23A14386   0.974   5.514  15.221  0.4112  0.3223 -0.9157
  110CHL1  H23B14387   1.101   5.635  15.270  2.5445  0.4088 -1.8652
  110CHL1   C2414388   1.175   5.448  15.166  0.4485  0.4056 -0.3083
  110CHL1  H24A14389   1.281   5.465  15.195  1.0192 -2.1481 -0.6554
  110CHL1  H24B14390   1.150   5.339  15.166 -3.7712  1.2070 -0.6915
  110CHL1   C2514391   1.176   5.477  15.021  0.4042 -0.0613  0.5415
  110CHL1   H2514392   1.229   5.574  15.009 -0.6023  0.2472 -1.8873
  110CHL1   C2614393   1.258   5.382  14.937 -0.3358  0.1810 -0.5656
  110CHL1  H26A14394   1.222   5.277  14.939  1.5591 -0.5346 -1.4495
  110CHL1  H26B14395   1.271   5.421  14.834 -0.2587  0.5173 -0.4280
  110CHL1  H26C14396   1.364   5.386  14.973 -0.9282  1.7516  1.1444
  110CHL1   C2714397   1.038   5.497  14.964 -0.5444 -0.2559  0.1696
  110CHL1  H27A14398   0.988   5.398  14.953 -2.3623  0.6853 -0.6157
  110CHL1  H27B14399   0.971   5.558  15.029 -1.3987 -0.6134 -0.3538
  110CHL1  H27C14400   1.043   5.543  14.863  2.0346 -0.2583  0.2500
  111CHL1    C314401   1.744   1.102  16.681  0.7823 -0.4056 -0.4763
  111CHL1    H314402   1.694   1.199  16.662  1.6991  0.4133  1.0575
  111CHL1    O314403   1.754   1.097  16.826 -0.0900 -0.4649  0.4577
  111CHL1   H3'14404   1.779   1.008  16.852 -0.2279 -0.1490  1.7042
  111CHL1    C414405   1.659   0.993  16.630  0.7159  0.0785  0.0913
  111CHL1   H4A14406   1.707   0.903  16.674  0.9622  0.8237  1.4001
  111CHL1   H4B14407   1.556   0.992  16.669  0.0306 -1.3611 -1.5955
  111CHL1    C514408   1.647   0.993  16.479 -0.0073 -0.4928  0.0519
  111CHL1    C614409   1.534   0.994  16.415 -0.0169  0.3597  0.0601
  111CHL1    H614410   1.441   0.979  16.473  0.2902  1.2622  0.8117
  111CHL1    C714411   1.512   0.991  16.269 -0.7623  0.5612 -0.6974
  111CHL1   H7A14412   1.437   0.914  16.239  0.2753 -1.1568  0.8838
  111CHL1   H7B14413   1.482   1.093  16.238  0.1040  0.9269 -0.3721
  111CHL1    C814414   1.646   0.966  16.198  0.2568 -0.3954  0.2125
  111CHL1    H814415   1.671   0.859  16.211 -1.2057 -0.8763 -0.6880
  111CHL1   C1414416   1.632   0.999  16.051 -0.3318  0.1647  0.5944
  111CHL1   H1414417   1.618   1.109  16.057 -0.3211  0.2182 -0.1778
  111CHL1   C1514418   1.515   0.941  15.975  0.3331 -0.1671  0.4466
  111CHL1  H15A14419   1.491   0.835  16.000  0.1692  0.0851  1.3847
  111CHL1  H15B14420   1.425   1.005  15.990  0.7472  0.5139  0.0726
  111CHL1   C1614421   1.556   0.955  15.831 -0.3793 -0.5673 -0.7390
  111CHL1  H16A14422   1.560   0.854  15.786  1.1126 -1.4371  1.1955
  111CHL1  H16B14423   1.484   1.021  15.777  1.9034  4.5634  1.7076
  111CHL1   C1714424   1.700   1.019  15.828  0.3646 -0.0583  0.3665
  111CHL1   H1714425   1.692   1.129  15.818 -0.8463 -0.2627 -1.3161
  111CHL1   C1314426   1.755   0.982  15.965 -0.4936 -0.2864 -0.3544
  111CHL1   C1814427   1.790   0.836  15.962  0.2698 -0.0896  0.2159
  111CHL1  H18A14428   1.728   0.770  15.897 -0.4916  0.2065  0.6355
  111CHL1  H18B14429   1.890   0.818  15.915 -0.0307  3.2287 -2.0661
  111CHL1  H18C14430   1.801   0.791  16.062 -0.4831 -1.8068 -0.4355
  111CHL1   C1214431   1.868   1.068  16.021 -0.5599 -0.5384 -0.1318
  111CHL1  H12A14432   1.965   1.066  15.966 -2.6318  0.3466 -4.2352
  111CHL1  H12B14433   1.839   1.173  16.000  1.8930  0.0826 -0.7226
  111CHL1   C1114434   1.896   1.037  16.173 -0.0152 -0.3455 -0.4050
  111CHL1  H11A14435   1.940   0.936  16.187 -0.4380 -0.4416  0.2821
  111CHL1  H11B14436   1.965   1.114  16.213 -0.7754  0.1464 -0.0189
  111CHL1    C914437   1.766   1.040  16.258  0.7077  0.1549  1.1050
  111CHL1    H914438   1.739   1.148  16.249  1.2802  0.2716  0.6675
  111CHL1   C1014439   1.787   1.001  16.406  1.3546  0.6670 -0.2446
  111CHL1   C1914440   1.873   0.870  16.425  0.1547 -0.0478  0.2333
  111CHL1  H19A14441   1.978   0.890  16.396  0.7799 -1.7658  1.1753
  111CHL1  H19B14442   1.865   0.835  16.530  0.7016 -1.8676 -0.2872
  111CHL1  H19C14443   1.828   0.789  16.364  0.3929  0.6977 -0.9576
  111CHL1    C114444   1.868   1.117  16.472 -0.4781 -0.1429  0.2576
  111CHL1   H1A14445   1.970   1.119  16.429 -0.2238  3.4090  0.6747
  111CHL1   H1B14446   1.828   1.215  16.438  0.9654  0.3114 -0.2162
  111CHL1    C214447   1.886   1.106  16.624 -0.0889  0.0871 -0.1227
  111CHL1   H2A14448   1.942   1.187  16.674 -0.5713 -0.6781  1.7543
  111CHL1   H2B14449   1.932   1.009  16.654  0.2096  0.8943  2.1921
  111CHL1   C2014450   1.791   0.979  15.707  0.4113  0.2074 -0.7430
  111CHL1   H2014451   1.806   0.870  15.713 -1.5388 -0.0281  0.9518
  111CHL1   C2114452   1.934   1.048  15.724  0.2818  0.2016  0.1527
  111CHL1  H21A14453   1.996   0.989  15.796 -1.0864 -3.3988 -1.3596
  111CHL1  H21B14454   1.917   1.153  15.754  1.9452  1.2864 -2.3658
  111CHL1  H21C14455   1.998   1.051  15.633  0.4130 -1.2709  0.1712
  111CHL1   C2214456   1.730   1.019  15.573  0.4440 -0.1925 -0.0229
  111CHL1  H22A14457   1.620   1.004  15.574  0.1621  1.6228  1.0030
  111CHL1  H22B14458   1.734   1.128  15.551 -2.2378 -0.1069 -0.4507
  111CHL1   C2314459   1.801   0.964  15.457 -0.0241 -0.4208  0.3797
  111CHL1  H23A14460   1.902   1.008  15.467 -0.1318  0.4027 -1.5646
  111CHL1  H23B14461   1.810   0.854  15.464 -4.2592 -1.3275 -3.2540
  111CHL1   C2414462   1.734   1.007  15.324  0.9665 -0.3275  0.1133
  111CHL1  H24A14463   1.634   0.958  15.322  1.6320 -1.7283 -1.1463
  111CHL1  H24B14464   1.720   1.117  15.324  3.0205 -0.0286  1.6083
  111CHL1   C2514465   1.813   0.965  15.198 -0.3916  0.2280  0.0778
  111CHL1   H2514466   1.853   0.863  15.216 -1.1375  0.1067  1.1267
  111CHL1   C2614467   1.728   0.968  15.074 -0.1688  0.3861 -0.1572
  111CHL1  H26A14468   1.798   0.947  14.989 -3.0861 -0.0630 -2.6220
  111CHL1  H26B14469   1.639   0.902  15.072  0.3753 -0.3510 -0.6471
  111CHL1  H26C14470   1.691   1.072  15.068  0.4420  0.5826 -0.6682
  111CHL1   C2714471   1.922   1.070  15.191 -0.0360 -0.2067 -0.0947
  111CHL1  H27A14472   1.872   1.168  15.174 -1.4233 -0.6011  1.4935
  111CHL1  H27B14473   1.982   1.081  15.285 -0.3578  2.7662 -0.1142
  111CHL1  H27C14474   1.983   1.034  15.106 -2.9195 -0.1860 -2.3162
  112CHL1    C314475   4.370   1.979  16.180  0.5201  0.2756 -0.3268
  112CHL1    H314476   4.366   2.088  16.157 -0.2358  0.0431 -1.4069
  112CHL1    O314477   4.369   1.952  16.322 -0.0146  0.1037 -0.9613
  112CHL1   H3'14478   4.362   1.859  16.344 -0.2808 -0.0729 -1.7669
  112CHL1    C414479   4.251   1.909  16.124  0.8685  0.4850  0.2943
  112CHL1   H4A14480   4.240   1.808  16.168 -2.5095  1.0101  0.9269
  112CHL1   H4B14481   4.164   1.967  16.162 -0.8369 -0.8564 -1.3421
  112CHL1    C514482   4.251   1.900  15.973  0.0416 -0.5785  0.5846
  112CHL1    C614483   4.151   1.955  15.905 -0.1382 -0.9766  0.2612
  112CHL1    H614484   4.060   1.996  15.952 -0.2205 -1.4721  0.5468
  112CHL1    C714485   4.141   1.946  15.759 -0.0935 -0.5823 -0.1929
  112CHL1   H7A14486   4.043   1.905  15.726  1.2519 -2.0510 -2.6488
  112CHL1   H7B14487   4.152   2.044  15.708  3.6821 -1.5315 -1.5226
  112CHL1    C814488   4.250   1.853  15.687 -0.2192  0.1811  0.5338
  112CHL1    H814489   4.213   1.748  15.686  1.7671 -0.5632 -0.4943
  112CHL1   C1414490   4.269   1.910  15.544  0.1934  0.1515 -0.4145
  112CHL1   H1414491   4.320   2.008  15.548  2.0388 -0.6058 -2.8517
  112CHL1   C1514492   4.141   1.929  15.464  0.7011  0.1757 -0.1328
  112CHL1  H15A14493   4.068   1.848  15.482  1.7056 -1.0051 -1.2511
  112CHL1  H15B14494   4.102   2.027  15.501 -1.1720  0.0522 -1.6690
  112CHL1   C1614495   4.189   1.927  15.318 -0.1315 -0.0548 -0.3383
  112CHL1  H16A14496   4.148   1.841  15.261 -1.0598 -1.1746  1.8637
  112CHL1  H16B14497   4.165   2.024  15.271 -0.3577 -0.4945 -1.1508
  112CHL1   C1714498   4.343   1.904  15.333  0.1300 -0.4981 -0.7075
  112CHL1   H1714499   4.388   2.004  15.352 -0.9682 -0.4302  1.9878
  112CHL1   C1314500   4.363   1.822  15.466  0.5945 -0.0942  0.2065
  112CHL1   C1814501   4.318   1.676  15.436  0.4306 -0.2546  0.1048
  112CHL1  H18A14502   4.304   1.620  15.530  0.6977  0.4713  0.5889
  112CHL1  H18B14503   4.225   1.669  15.375  0.1808 -3.8840  0.6924
  112CHL1  H18C14504   4.406   1.627  15.389  0.1071 -0.0281 -0.7597
  112CHL1   C1214505   4.502   1.825  15.534  0.1325 -0.1493 -0.4115
  112CHL1  H12A14506   4.551   1.743  15.478 -0.8836 -1.0217 -0.0674
  112CHL1  H12B14507   4.542   1.928  15.525  2.6905 -0.9774  0.6435
  112CHL1   C1114508   4.488   1.784  15.683 -0.2125 -0.0545  0.2160
  112CHL1  H11A14509   4.480   1.674  15.686  0.8351 -0.1309  0.3196
  112CHL1  H11B14510   4.587   1.801  15.729 -1.0533  2.3070  1.3325
  112CHL1    C914511   4.381   1.859  15.756  0.0224 -0.9105 -0.2671
  112CHL1    H914512   4.421   1.963  15.746 -0.1042 -0.8041  0.2858
  112CHL1   C1014513   4.373   1.841  15.908 -1.0175  0.4102 -0.7367
  112CHL1   C1914514   4.380   1.691  15.933  0.4581  0.4646 -0.6725
  112CHL1  H19A14515   4.363   1.664  16.039 -0.2543 -2.3717 -1.4160
  112CHL1  H19B14516   4.302   1.629  15.882  1.9885 -1.4671 -0.7962
  112CHL1  H19C14517   4.477   1.644  15.907  0.6547  1.0214 -0.9532
  112CHL1    C114518   4.493   1.909  15.971 -0.3923  0.4630 -0.0385
  112CHL1   H1A14519   4.586   1.851  15.954  0.3842  1.4065  0.8389
  112CHL1   H1B14520   4.504   2.012  15.929  2.5723  0.6018  0.8425
  112CHL1    C214521   4.496   1.915  16.126 -0.3324 -0.4732 -0.1265
  112CHL1   H2A14522   4.579   1.980  16.160 -2.3363  1.8944  0.5425
  112CHL1   H2B14523   4.522   1.810  16.153 -0.4871  0.3118  3.6898
  112CHL1   C2014524   4.410   1.850  15.207  0.0108  0.2968  0.4977
  112CHL1   H2014525   4.401   1.740  15.197 -0.9242  0.4137 -0.0736
  112CHL1   C2114526   4.560   1.873  15.237 -0.8039 -0.1685 -0.0513
  112CHL1  H21A14527   4.619   1.808  15.304  0.4178 -0.6373 -1.5207
  112CHL1  H21B14528   4.566   1.982  15.258  0.7937  0.0316 -1.2891
  112CHL1  H21C14529   4.621   1.867  15.144 -0.6952  1.3891 -0.1117
  112CHL1   C2214530   4.358   1.914  15.074  0.4870 -0.0650  0.2362
  112CHL1  H22A14531   4.409   1.878  14.983 -0.6144 -0.9651 -0.0538
  112CHL1  H22B14532   4.251   1.886  15.065  0.2914  0.2778  1.3147
  112CHL1   C2314533   4.358   2.070  15.063  0.9713  0.6652 -0.0569
  112CHL1  H23A14534   4.286   2.111  15.136  1.6689 -0.2281  1.1671
  112CHL1  H23B14535   4.461   2.107  15.079  0.7411  1.0018  0.6534
  112CHL1   C2414536   4.306   2.113  14.919 -0.4898 -0.3956 -0.0917
  112CHL1  H24A14537   4.353   2.056  14.836 -3.4062  1.0872 -3.0195
  112CHL1  H24B14538   4.199   2.083  14.920 -0.1583 -1.6938  1.5642
  112CHL1   C2514539   4.330   2.265  14.903 -0.4159  0.0830  0.3304
  112CHL1   H2514540   4.412   2.295  14.971  0.5319  0.4197 -0.9389
  112CHL1   C2614541   4.379   2.287  14.758 -0.5201 -0.5302  0.5788
  112CHL1  H26A14542   4.394   2.394  14.730  0.5693 -0.7714  0.2003
  112CHL1  H26B14543   4.469   2.224  14.743 -0.9321 -1.0924  0.4478
  112CHL1  H26C14544   4.302   2.263  14.683 -0.3158  3.3337 -1.1260
  112CHL1   C2714545   4.207   2.355  14.927  0.5443  0.2336  0.0554
  112CHL1  H27A14546   4.139   2.328  14.843 -2.3204  1.8024  1.7200
  112CHL1  H27B14547   4.149   2.325  15.017 -0.9863  1.6627 -0.4100
  112CHL1  H27C14548   4.232   2.462  14.914  0.3091 -0.0124 -3.4776
  113CHL1    C314549   0.243   5.892  16.178 -0.2690  0.0532 -0.3753
  113CHL1    H314550   0.268   6.000  16.185  1.0866 -0.2930  0.4314
  113CHL1    O314551   0.177   5.854  16.304 -0.1240 -0.0358 -0.5618
  113CHL1   H3'14552   0.240   5.791  16.340  1.1896  0.9264 -1.0927
  113CHL1    C414553   0.136   5.864  16.061  0.3194  0.5379  0.3981
  113CHL1   H4A14554   0.098   5.760  16.071 -1.0887  0.9820 -0.1258
  113CHL1   H4B14555   0.046   5.927  16.078 -0.1164  0.0214  0.0422
  113CHL1    C514556   0.201   5.891  15.929 -0.4059  0.0689 -0.2027
  113CHL1    C614557   0.152   5.988  15.855 -0.1549 -0.7840 -0.6039
  113CHL1    H614558   0.063   6.037  15.895 -0.6207 -0.3099 -2.1649
  113CHL1    C714559   0.207   6.018  15.720 -0.0765 -0.2216  0.0671
  113CHL1   H7A14560   0.126   6.046  15.649 -0.3660 -0.4170  0.3192
  113CHL1   H7B14561   0.271   6.108  15.720 -0.6769  0.2070  0.1323
  113CHL1    C814562   0.294   5.902  15.670 -0.0089  0.5270 -0.0921
  113CHL1    H814563   0.224   5.816  15.659  2.5926 -1.6093 -1.0191
  113CHL1   C1414564   0.355   5.941  15.543  0.2827 -0.2345 -0.5125
  113CHL1   H1414565   0.417   6.027  15.578 -1.3040  0.0236  1.9421
  113CHL1   C1514566   0.261   5.990  15.424  0.0554 -0.3219  0.3073
  113CHL1  H15A14567   0.188   5.908  15.409 -0.5735  0.2201  0.4000
  113CHL1  H15B14568   0.203   6.081  15.450 -0.8754 -0.9440  0.4269
  113CHL1   C1614569   0.355   6.002  15.303 -0.3564 -0.5098 -0.0761
  113CHL1  H16A14570   0.313   5.939  15.221 -0.6011 -0.7129  0.2068
  113CHL1  H16B14571   0.369   6.106  15.266  2.4294 -0.0268  2.0316
  113CHL1   C1714572   0.488   5.928  15.346 -0.3051 -0.3634 -0.0349
  113CHL1   H1714573   0.561   6.003  15.382  2.0450 -1.8251 -1.4664
  113CHL1   C1314574   0.452   5.840  15.474 -0.3253 -0.1354 -0.1239
  113CHL1   C1814575   0.369   5.713  15.428 -0.4750 -0.5157 -0.7641
  113CHL1  H18A14576   0.432   5.622  15.415 -1.3171 -1.1746 -0.3352
  113CHL1  H18B14577   0.295   5.697  15.508  0.0939  1.9219  0.3467
  113CHL1  H18C14578   0.318   5.736  15.332 -2.9510 -0.2920  0.5378
  113CHL1   C1214579   0.558   5.812  15.575 -1.3346  0.3936  0.4317
  113CHL1  H12A14580   0.627   5.732  15.540 -3.1414 -0.7802 -0.6048
  113CHL1  H12B14581   0.619   5.904  15.587  2.6885 -1.6388 -2.1509
  113CHL1   C1114582   0.504   5.758  15.717 -0.1546  0.5212  0.0815
  113CHL1  H11A14583   0.463   5.658  15.691 -0.4004  0.6691 -0.1057
  113CHL1  H11B14584   0.591   5.746  15.785 -0.9603  0.5142  1.1364
  113CHL1    C914585   0.396   5.859  15.776 -0.3779  1.1432  1.0921
  113CHL1    H914586   0.456   5.948  15.806 -0.4770  1.2555  0.9524
  113CHL1   C1014587   0.330   5.811  15.904  0.1437  0.2934  0.4275
  113CHL1   C1914588   0.300   5.662  15.903  0.1029 -0.0954 -0.3926
  113CHL1  H19A14589   0.259   5.620  15.997 -0.2755  2.3995  0.6364
  113CHL1  H19B14590   0.235   5.639  15.816  0.7776 -0.2160 -0.8798
  113CHL1  H19C14591   0.395   5.606  15.889  1.0670  1.0167  1.3590
  113CHL1    C114592   0.429   5.841  16.026 -0.4537  0.3735 -0.2987
  113CHL1   H1A14593   0.526   5.790  16.006  0.3430  2.0685 -1.0004
  113CHL1   H1B14594   0.457   5.948  16.016  2.0845 -0.3244 -1.7909
  113CHL1    C214595   0.373   5.814  16.168 -0.2074  0.0472 -0.4519
  113CHL1   H2A14596   0.441   5.857  16.244  1.4384 -1.3359 -1.0890
  113CHL1   H2B14597   0.356   5.705  16.184 -1.3228  0.0620 -1.3825
  113CHL1   C2014598   0.552   5.867  15.220  0.2605 -0.0004  0.4829
  113CHL1   H2014599   0.484   5.790  15.179 -0.8194  0.8382  0.6640
  113CHL1   C2114600   0.686   5.792  15.250 -0.9446  0.1612 -1.1342
  113CHL1  H21A14601   0.666   5.717  15.330  1.3665  3.3879  2.8512
  113CHL1  H21B14602   0.764   5.863  15.285 -1.4061  1.0583 -1.8795
  113CHL1  H21C14603   0.723   5.734  15.163  0.4789 -0.0755 -0.3972
  113CHL1   C2214604   0.581   5.968  15.106  0.1814  0.2271 -0.0217
  113CHL1  H22A14605   0.496   6.035  15.082  2.2661  2.1806 -2.6528
  113CHL1  H22B14606   0.667   6.030  15.140  1.0489 -1.6006  1.2959
  113CHL1   C2314607   0.599   5.914  14.959 -0.0643 -0.5145 -0.2310
  113CHL1  H23A14608   0.694   5.863  14.931  0.5047  0.7136 -0.5955
  113CHL1  H23B14609   0.509   5.853  14.933 -1.5042  0.9734  0.9879
  113CHL1   C2414610   0.592   6.036  14.863 -0.4044  0.6413 -0.0668
  113CHL1  H24A14611   0.495   6.090  14.868 -0.7039  0.0996  0.0140
  113CHL1  H24B14612   0.667   6.115  14.883 -0.1273  0.8952 -1.9436
  113CHL1   C2514613   0.608   5.993  14.718 -0.4545  0.0011  0.7534
  113CHL1   H2514614   0.707   5.942  14.711 -0.2831  0.5500 -1.6070
  113CHL1   C2614615   0.506   5.901  14.649 -0.4539 -0.0223  0.0359
  113CHL1  H26A14616   0.400   5.936  14.650 -1.4882 -2.8420  1.8151
  113CHL1  H26B14617   0.544   5.881  14.546 -2.0621 -0.2417 -0.5482
  113CHL1  H26C14618   0.505   5.804  14.703  2.6842 -0.2635 -0.1956
  113CHL1   C2714619   0.616   6.114  14.626  0.1123 -0.2846  0.2268
  113CHL1  H27A14620   0.658   6.082  14.529  3.1761  1.1345  0.9623
  113CHL1  H27B14621   0.511   6.145  14.608  0.6357  0.4982 -1.7236
  113CHL1  H27C14622   0.670   6.196  14.677  1.3620  0.4861 -2.1976
  114CHL1    C314623   4.254   6.670  16.200 -0.0208  0.0002  0.3891
  114CHL1    H314624   4.268   6.778  16.221 -1.5690  0.2889  0.0537
  114CHL1    O314625   4.254   6.608  16.331 -0.3612 -0.9391  0.0919
  114CHL1   H3'14626   4.271   6.515  16.316  1.2857 -0.4755 -1.1544
  114CHL1    C414627   4.128   6.633  16.130  0.2946 -0.3370  1.2062
  114CHL1   H4A14628   4.110   6.523  16.140 -0.2174 -0.2842  0.9157
  114CHL1   H4B14629   4.041   6.681  16.179  0.2013  1.3394 -0.4961
  114CHL1    C514630   4.127   6.688  15.984 -0.0760 -0.4065 -0.6687
  114CHL1    C614631   4.038   6.778  15.948  0.2386  1.3412 -0.3714
  114CHL1    H614632   3.957   6.797  16.019 -1.7111 -2.0966 -1.4391
  114CHL1    C714633   4.020   6.819  15.803  0.2725  0.0653 -0.4792
  114CHL1   H7A14634   3.912   6.806  15.776 -0.5644  0.0830  2.5479
  114CHL1   H7B14635   4.055   6.924  15.803  1.4879 -0.2952  1.6770
  114CHL1    C814636   4.096   6.733  15.703 -0.9573  0.7167 -0.4804
  114CHL1    H814637   4.040   6.637  15.697 -0.0146 -0.2439  3.2574
  114CHL1   C1414638   4.115   6.808  15.566  0.1022 -0.2551  0.1482
  114CHL1   H1414639   4.173   6.901  15.583  0.0396  0.3307 -2.3860
  114CHL1   C1514640   3.982   6.845  15.497 -0.6971 -0.5073 -0.2910
  114CHL1  H15A14641   3.910   6.761  15.504 -1.6595  0.3624  0.7292
  114CHL1  H15B14642   3.937   6.935  15.545  1.1556 -0.1389  0.8770
  114CHL1   C1614643   4.025   6.872  15.351 -0.0213 -0.5928 -0.6807
  114CHL1  H16A14644   3.946   6.819  15.292 -1.0204 -0.9278  0.8875
  114CHL1  H16B14645   4.031   6.981  15.329 -1.5955  0.1969  2.3347
  114CHL1   C1714646   4.161   6.809  15.331  0.0177  0.2713  0.1969
  114CHL1   H1714647   4.228   6.898  15.330 -3.3808  3.0519 -0.0759
  114CHL1   C1314648   4.191   6.724  15.461 -0.0018  0.2456  0.2715
  114CHL1   C1814649   4.123   6.594  15.435  0.6450  0.1314 -0.6388
  114CHL1  H18A14650   4.106   6.532  15.525  0.2724 -1.6471 -1.8725
  114CHL1  H18B14651   4.025   6.602  15.383  0.2766  1.0383  0.1744
  114CHL1  H18C14652   4.187   6.524  15.376  1.5194  0.9582 -0.7016
  114CHL1   C1214653   4.339   6.713  15.517  0.3908  0.2503  0.4908
  114CHL1  H12A14654   4.399   6.658  15.440 -0.0509 -0.1716  0.4424
  114CHL1  H12B14655   4.391   6.811  15.519  0.0106  0.5043 -0.9495
  114CHL1   C1114656   4.336   6.635  15.648  0.5379 -0.8849  0.1056
  114CHL1  H11A14657   4.309   6.528  15.633 -3.1340  0.0791 -1.3183
  114CHL1  H11B14658   4.438   6.641  15.691  1.1159 -0.1336 -1.3086
  114CHL1    C914659   4.241   6.704  15.758  0.4245  0.1137 -0.8315
  114CHL1    H914660   4.292   6.800  15.779  0.8261 -0.1791 -0.4599
  114CHL1   C1014661   4.238   6.629  15.892  0.3253 -0.7159  0.1479
  114CHL1   C1914662   4.208   6.477  15.878  0.1951 -0.4459  0.1095
  114CHL1  H19A14663   4.116   6.472  15.816 -1.3830  3.5460  1.7650
  114CHL1  H19B14664   4.288   6.429  15.818  0.1508 -1.9089  1.1792
  114CHL1  H19C14665   4.199   6.418  15.971  0.0456 -0.4554  0.0915
  114CHL1    C114666   4.372   6.663  15.966 -0.1327  0.1730  0.1802
  114CHL1   H1A14667   4.461   6.615  15.918 -1.0189 -1.2289 -0.1308
  114CHL1   H1B14668   4.382   6.773  15.961  2.6884 -0.0289 -0.6257
  114CHL1    C214669   4.377   6.615  16.112 -0.8949 -0.0932 -0.4759
  114CHL1   H2A14670   4.472   6.652  16.155 -0.1452 -3.0714  0.6714
  114CHL1   H2B14671   4.373   6.505  16.124  1.4868  0.0103  2.6415
  114CHL1   C2014672   4.177   6.746  15.196 -0.0237 -0.0648 -0.2344
  114CHL1   H2014673   4.104   6.663  15.190 -0.2513  0.0671  0.5949
  114CHL1   C2114674   4.325   6.685  15.179  0.1152  0.1166  0.9416
  114CHL1  H21A14675   4.402   6.763  15.159 -0.5051 -0.2053 -3.6419
  114CHL1  H21B14676   4.328   6.623  15.087 -0.5492 -0.8143  1.5360
  114CHL1  H21C14677   4.360   6.617  15.260 -3.0049  1.5194  3.7093
  114CHL1   C2214678   4.142   6.845  15.085  0.6938 -0.2993 -0.2707
  114CHL1  H22A14679   4.037   6.881  15.096  0.7317 -0.2289 -0.1387
  114CHL1  H22B14680   4.209   6.930  15.111  1.4259 -0.5652 -1.2193
  114CHL1   C2314681   4.162   6.799  14.938 -0.9395  0.1209  0.2289
  114CHL1  H23A14682   4.264   6.757  14.922 -1.1284 -0.6963  1.0691
  114CHL1  H23B14683   4.100   6.713  14.903 -2.0964  0.5958  1.0476
  114CHL1   C2414684   4.130   6.909  14.839 -0.2877 -0.0511 -0.7688
  114CHL1  H24A14685   4.030   6.950  14.863 -0.3266  0.0789 -1.1337
  114CHL1  H24B14686   4.197   6.995  14.864 -1.2383  0.5211 -0.1483
  114CHL1   C2514687   4.129   6.872  14.690  0.1604 -0.1942  0.1623
  114CHL1   H2514688   4.050   6.800  14.662  1.2830 -1.1998 -0.5486
  114CHL1   C2614689   4.103   7.001  14.608 -0.1884  0.1782  1.1022
  114CHL1  H26A14690   4.194   7.065  14.617  0.3071  0.1853 -2.4724
  114CHL1  H26B14691   4.098   6.967  14.502 -1.0380  0.8912  0.8974
  114CHL1  H26C14692   4.011   7.055  14.638  0.4834  0.1556  3.4068
  114CHL1   C2714693   4.266   6.813  14.657  0.0177  0.0307  0.1419
  114CHL1  H27A14694   4.352   6.868  14.700  1.0337  0.5112 -2.3456
  114CHL1  H27B14695   4.273   6.707  14.689  2.6773 -0.3540 -1.3959
  114CHL1  H27C14696   4.287   6.811  14.548  0.2461  1.5926  0.1201
  115CHL1    C314697   1.271   1.812  16.508  0.5912 -0.7345 -0.3180
  115CHL1    H314698   1.167   1.842  16.484  1.1611  0.0673 -1.9380
  115CHL1    O314699   1.274   1.779  16.647  0.6315 -0.2930 -0.0893
  115CHL1   H3'14700   1.367   1.763  16.663  0.2357  0.0502  3.3066
  115CHL1    C414701   1.299   1.693  16.429 -0.4978  0.0681 -0.3044
  115CHL1   H4A14702   1.394   1.636  16.442 -0.0957  0.6270 -0.7397
  115CHL1   H4B14703   1.216   1.622  16.449 -0.8188  0.9822  1.7709
  115CHL1    C514704   1.287   1.737  16.277  0.3725 -0.6617 -0.4110
  115CHL1    C614705   1.205   1.667  16.198  0.6584  0.3789  0.1629
  115CHL1    H614706   1.137   1.590  16.238 -0.9790  1.4141 -0.5362
  115CHL1    C714707   1.204   1.687  16.050 -0.5192  0.4625 -0.4004
  115CHL1   H7A14708   1.179   1.595  15.993  1.6592  0.1029 -0.8675
  115CHL1   H7B14709   1.120   1.758  16.031 -0.4762  0.0986 -2.0646
  115CHL1    C814710   1.340   1.749  15.999 -0.2496 -0.6668 -0.9729
  115CHL1    H814711   1.418   1.670  15.995 -0.1855 -0.5412 -2.6176
  115CHL1   C1414712   1.315   1.792  15.857 -0.3313  0.5621  0.3346
  115CHL1   H1414713   1.235   1.869  15.862 -1.6660 -0.8549  2.4895
  115CHL1   C1514714   1.265   1.685  15.761 -0.1581 -0.6158 -0.1046
  115CHL1  H15A14715   1.325   1.594  15.782  1.7128  0.6099  0.0526
  115CHL1  H15B14716   1.154   1.674  15.767 -0.2812 -1.0043 -2.2405
  115CHL1   C1614717   1.305   1.743  15.627 -0.0435  0.3057 -0.0679
  115CHL1  H16A14718   1.369   1.673  15.569 -1.5404 -0.1342 -1.2525
  115CHL1  H16B14719   1.215   1.765  15.565 -1.3161  0.9181  1.8980
  115CHL1   C1714720   1.380   1.878  15.649 -0.8072  0.6899  0.0559
  115CHL1   H1714721   1.309   1.963  15.640  0.4708  1.7043 -0.6983
  115CHL1   C1314722   1.432   1.865  15.787  0.0475  0.2662 -0.4227
  115CHL1   C1814723   1.557   1.775  15.788  0.1422 -0.5453  0.4521
  115CHL1  H18A14724   1.575   1.715  15.879  1.4021 -1.1101 -0.1516
  115CHL1  H18B14725   1.544   1.691  15.717  2.0544 -1.5256  1.2204
  115CHL1  H18C14726   1.646   1.834  15.758 -1.4970  2.6467  1.3838
  115CHL1   C1214727   1.451   1.994  15.875 -0.0210 -0.0775  0.0905
  115CHL1  H12A14728   1.548   2.041  15.850  0.7889 -0.5270  2.1514
  115CHL1  H12B14729   1.375   2.074  15.871  0.0831  0.2313  2.4777
  115CHL1   C1114730   1.473   1.965  16.022 -0.1946 -0.0945  0.0132
  115CHL1  H11A14731   1.575   1.926  16.041 -0.7049 -0.9800  1.0780
  115CHL1  H11B14732   1.485   2.055  16.085  2.1849 -0.8977  0.8160
  115CHL1    C914733   1.366   1.875  16.083 -0.1316  0.1496 -0.9802
  115CHL1    H914734   1.281   1.947  16.076 -0.2322  0.6424  3.0863
  115CHL1   C1014735   1.384   1.840  16.239 -0.5521  0.0630 -0.6821
  115CHL1   C1914736   1.530   1.790  16.261 -0.0444 -0.3251 -0.4030
  115CHL1  H19A14737   1.552   1.750  16.363  2.0726 -0.4323 -0.8569
  115CHL1  H19B14738   1.551   1.701  16.199  0.6563 -0.9411  0.6795
  115CHL1  H19C14739   1.609   1.864  16.239 -1.3606  1.0512 -0.6743
  115CHL1    C114740   1.355   1.960  16.329 -0.6644  0.6366 -0.3805
  115CHL1   H1A14741   1.434   2.036  16.306 -0.1184 -0.8631 -4.2593
  115CHL1   H1B14742   1.260   2.010  16.302 -0.3936  1.5083  0.2499
  115CHL1    C214743   1.361   1.935  16.477  0.6012  0.4873  0.4846
  115CHL1   H2A14744   1.319   2.017  16.540  1.6999  1.9513 -0.6171
  115CHL1   H2B14745   1.465   1.907  16.505  0.1670 -1.4296  0.2775
  115CHL1   C2014746   1.479   1.917  15.537 -0.2934 -0.6960  0.0297
  115CHL1   H2014747   1.565   1.846  15.531  0.0962 -0.3480  1.2891
  115CHL1   C2114748   1.547   2.049  15.576 -0.5880 -0.4190  0.2783
  115CHL1  H21A14749   1.630   2.037  15.650 -0.3150 -2.5402 -0.3106
  115CHL1  H21B14750   1.482   2.135  15.604  0.3882  0.8429 -1.1163
  115CHL1  H21C14751   1.608   2.091  15.493  0.1228  0.7289  1.3351
  115CHL1   C2214752   1.411   1.920  15.408  0.5506 -0.5059  0.3406
  115CHL1  H22A14753   1.353   1.827  15.395  2.4950 -1.7516  0.2484
  115CHL1  H22B14754   1.345   2.009  15.400 -0.7474 -1.5627 -1.5399
  115CHL1   C2314755   1.504   1.921  15.285 -0.4809  0.1572 -0.4332
  115CHL1  H23A14756   1.562   2.016  15.282 -0.4070  0.1561  0.4941
  115CHL1  H23B14757   1.577   1.840  15.309 -2.2433 -0.9116  1.7299
  115CHL1   C2414758   1.429   1.906  15.156 -1.1863  0.4818  0.0462
  115CHL1  H24A14759   1.344   1.836  15.147 -0.4698 -0.3328 -0.6116
  115CHL1  H24B14760   1.384   2.003  15.128  0.8039  0.7487 -2.6035
  115CHL1   C2514761   1.521   1.881  15.026 -0.4284 -0.3168  0.4824
  115CHL1   H2514762   1.580   1.787  15.035 -2.4754 -1.9411 -1.8726
  115CHL1   C2614763   1.426   1.881  14.900 -0.2282 -0.6617  0.5514
  115CHL1  H26A14764   1.349   1.806  14.928 -0.6151  0.6582  3.4041
  115CHL1  H26B14765   1.383   1.983  14.890  1.2133 -0.0483  0.4441
  115CHL1  H26C14766   1.474   1.858  14.802 -0.9886  1.6472 -0.4196
  115CHL1   C2714767   1.617   1.996  15.005  0.1183  0.5241  0.2104
  115CHL1  H27A14768   1.664   2.002  14.905  2.1678 -0.3256  1.0454
  115CHL1  H27B14769   1.553   2.084  15.028 -1.9387 -1.0481  0.8500
  115CHL1  H27C14770   1.690   2.012  15.088  0.8432  1.9956 -0.6692
  116CHL1    C314771   2.215   0.827  16.650 -0.2553 -0.4534  0.0105
  116CHL1    H314772   2.115   0.861  16.616  0.4478  2.1520  0.3678
  116CHL1    O314773   2.217   0.807  16.788 -0.1891 -0.2482  0.7122
  116CHL1   H3'14774   2.309   0.821  16.812 -0.5354  1.1420  1.3349
  116CHL1    C414775   2.260   0.705  16.580 -0.1799  0.4738 -0.0592
  116CHL1   H4A14776   2.360   0.678  16.620 -0.4054  0.2220  0.3410
  116CHL1   H4B14777   2.197   0.620  16.616  0.4081  0.6255  1.3529
  116CHL1    C514778   2.258   0.721  16.429 -0.3403 -0.6013  0.3163
  116CHL1    C614779   2.185   0.642  16.345  0.3512  0.5149  0.1468
  116CHL1    H614780   2.133   0.552  16.380  3.0164 -1.9167 -1.6980
  116CHL1    C714781   2.187   0.661  16.196 -0.2274 -0.4853  0.0746
  116CHL1   H7A14782   2.200   0.559  16.154  2.5978 -0.5695  0.9802
  116CHL1   H7B14783   2.086   0.701  16.172 -0.0115 -0.1152 -0.2329
  116CHL1    C814784   2.300   0.745  16.142 -0.7313  0.3510 -0.0252
  116CHL1    H814785   2.391   0.681  16.136 -2.0677 -1.5322 -2.0739
  116CHL1   C1414786   2.259   0.784  16.004 -0.3882 -0.1994 -0.2450
  116CHL1   H1414787   2.175   0.857  16.012 -0.5991 -0.3572 -0.8986
  116CHL1   C1514788   2.197   0.677  15.905 -0.3243  0.2257  0.4416
  116CHL1  H15A14789   2.258   0.585  15.902  2.7586  2.1354 -2.5326
  116CHL1  H15B14790   2.095   0.658  15.945 -0.3505  1.4200  0.9858
  116CHL1   C1614791   2.199   0.753  15.770  0.2505  0.4440 -0.0189
  116CHL1  H16A14792   2.246   0.680  15.701 -1.9574 -2.0993  0.9425
  116CHL1  H16B14793   2.101   0.780  15.725  0.1654 -0.7863 -0.6081
  116CHL1   C1714794   2.287   0.877  15.792 -0.0987  0.0314  1.0341
  116CHL1   H1714795   2.224   0.961  15.829 -0.2183 -0.2831  1.5471
  116CHL1   C1314796   2.365   0.855  15.920 -0.5211  0.1111  0.6455
  116CHL1   C1814797   2.495   0.774  15.893  0.3309  0.2979  0.8543
  116CHL1  H18A14798   2.546   0.757  15.990 -0.8812 -0.3871  1.3841
  116CHL1  H18B14799   2.474   0.678  15.840  0.7613  1.6106 -1.9188
  116CHL1  H18C14800   2.565   0.836  15.831 -0.1042  1.2654  1.3129
  116CHL1   C1214801   2.397   0.982  16.003  0.2854 -0.1288 -0.4488
  116CHL1  H12A14802   2.481   1.028  15.948 -0.0741 -2.4348 -3.1792
  116CHL1  H12B14803   2.310   1.049  16.022 -0.6826 -1.2939 -0.5829
  116CHL1   C1114804   2.435   0.955  16.151  0.4412 -0.1426 -0.2617
  116CHL1  H11A14805   2.530   0.897  16.163  0.8337  0.0405 -2.1345
  116CHL1  H11B14806   2.462   1.050  16.202  0.1094 -0.1114 -0.1475
  116CHL1    C914807   2.327   0.870  16.221  0.0051  0.1952  0.3988
  116CHL1    H914808   2.235   0.931  16.212  0.9258  1.2663 -3.5199
  116CHL1   C1014809   2.347   0.835  16.375 -0.0257 -0.6043  0.1865
  116CHL1   C1914810   2.492   0.792  16.401  0.2505 -0.1904  0.2799
  116CHL1  H19A14811   2.506   0.761  16.507 -0.5618 -0.9124  0.1851
  116CHL1  H19B14812   2.519   0.702  16.341  1.6244 -0.2211  0.9069
  116CHL1  H19C14813   2.560   0.874  16.370 -0.7924 -0.0231 -1.7345
  116CHL1    C114814   2.309   0.962  16.455  0.3899 -0.7195 -0.3625
  116CHL1   H1A14815   2.384   1.039  16.427 -0.5145 -0.9613 -3.9961
  116CHL1   H1B14816   2.208   0.984  16.415  0.9777  0.7819 -1.0830
  116CHL1    C214817   2.302   0.950  16.610  0.2355 -0.2929 -0.3257
  116CHL1   H2A14818   2.275   1.051  16.649  1.0017  0.3484 -1.4167
  116CHL1   H2B14819   2.405   0.923  16.642  0.2792  2.3202  2.1488
  116CHL1   C2014820   2.363   0.918  15.664  0.4308  0.6761  0.0341
  116CHL1   H2014821   2.443   0.844  15.642  0.8899  0.9541  0.7276
  116CHL1   C2114822   2.425   1.054  15.688 -0.2139  0.2041 -0.1351
  116CHL1  H21A14823   2.351   1.125  15.729  1.0460  0.3933  1.9660
  116CHL1  H21B14824   2.453   1.106  15.594 -1.2105 -0.5164 -0.8536
  116CHL1  H21C14825   2.521   1.051  15.744  0.5469  0.4053 -1.3655
  116CHL1   C2214826   2.275   0.905  15.530 -0.2322 -0.4191  0.1410
  116CHL1  H22A14827   2.199   0.824  15.527 -0.9344  0.2369 -0.0308
  116CHL1  H22B14828   2.212   0.996  15.528 -0.5911 -0.6147  1.4816
  116CHL1   C2314829   2.364   0.901  15.409 -0.0946  0.2348  0.5873
  116CHL1  H23A14830   2.419   0.994  15.383 -2.6332  0.5450 -5.1473
  116CHL1  H23B14831   2.433   0.815  15.420  0.0771  0.1165 -1.1695
  116CHL1   C2414832   2.286   0.878  15.276 -0.5879 -0.5176 -0.0975
  116CHL1  H24A14833   2.236   0.779  15.286  1.6740 -1.7931 -0.7514
  116CHL1  H24B14834   2.202   0.950  15.267  0.9267  1.5609  1.5130
  116CHL1   C2514835   2.378   0.887  15.147 -0.0076  0.4676  0.3943
  116CHL1   H2514836   2.459   0.962  15.162  0.6529 -0.1572  0.0081
  116CHL1   C2614837   2.456   0.752  15.117  0.4480 -0.1702 -0.2701
  116CHL1  H26A14838   2.518   0.726  15.205  0.6310 -1.6004 -0.7827
  116CHL1  H26B14839   2.378   0.673  15.105  0.7727 -0.1901 -2.7987
  116CHL1  H26C14840   2.507   0.757  15.018  0.1316 -0.9977 -0.4914
  116CHL1   C2714841   2.314   0.933  15.014  0.0048 -0.0216 -0.2569
  116CHL1  H27A14842   2.245   0.861  14.965 -1.4957  2.9058 -2.8065
  116CHL1  H27B14843   2.258   1.029  15.026  0.3055  0.3057 -1.3328
  116CHL1  H27C14844   2.391   0.960  14.939 -0.5310  0.1869 -0.7367
  117CHL1    C314845   4.639   1.428  16.073  0.4737  0.6786 -0.5793
  117CHL1    H314846   4.559   1.505  16.068 -1.0993 -0.6180  2.1451
  117CHL1    O314847   4.635   1.401  16.208 -0.3246  0.2786 -0.0723
  117CHL1   H3'14848   4.625   1.306  16.222 -0.4812  0.2014 -0.6979
  117CHL1    C414849   4.612   1.299  15.989 -0.3026  0.0271  0.0805
  117CHL1   H4A14850   4.692   1.225  16.012 -0.7237 -0.3470  0.3451
  117CHL1   H4B14851   4.522   1.247  16.028 -0.3643 -1.0070 -1.3757
  117CHL1    C514852   4.599   1.319  15.839 -1.1419 -0.0019  0.1043
  117CHL1    C614853   4.493   1.287  15.764 -0.2056 -0.7872  0.2812
  117CHL1    H614854   4.409   1.231  15.807 -0.0250 -1.5711 -0.3629
  117CHL1    C714855   4.498   1.291  15.611  0.3575 -0.2708  0.0293
  117CHL1   H7A14856   4.464   1.195  15.568 -0.3278  0.3407 -0.8291
  117CHL1   H7B14857   4.426   1.368  15.577  0.3512 -1.2851 -2.4708
  117CHL1    C814858   4.642   1.316  15.549  0.2701 -0.8153  0.3525
  117CHL1    H814859   4.691   1.216  15.556 -1.6113 -1.8050 -0.1062
  117CHL1   C1414860   4.629   1.361  15.402 -0.3768  1.1309 -0.2824
  117CHL1   H1414861   4.584   1.462  15.413  0.9287  1.8136 -0.9939
  117CHL1   C1514862   4.531   1.284  15.304  0.5695 -0.1137  0.1645
  117CHL1  H15A14863   4.540   1.174  15.314 -0.0393 -0.4857 -2.7050
  117CHL1  H15B14864   4.425   1.311  15.322  0.9216  0.7593  1.0893
  117CHL1   C1614865   4.583   1.324  15.166 -0.8612 -0.5545  0.0478
  117CHL1  H16A14866   4.619   1.229  15.120  1.4571  0.3078 -0.0474
  117CHL1  H16B14867   4.496   1.372  15.116  0.2993  1.7468  0.1220
  117CHL1   C1714868   4.704   1.422  15.187  0.1635  0.8590 -1.1145
  117CHL1   H1714869   4.660   1.523  15.206  0.3383  0.9484 -1.1836
  117CHL1   C1314870   4.758   1.385  15.329  0.4277 -0.1884  0.0797
  117CHL1   C1814871   4.839   1.256  15.317 -1.0502  0.0584  0.5946
  117CHL1  H18A14872   4.875   1.227  15.418 -0.5884 -0.8422  0.1825
  117CHL1  H18B14873   4.789   1.171  15.266  0.0608 -0.6173  0.5826
  117CHL1  H18C14874   4.934   1.279  15.265 -0.8723  0.1732  0.9642
  117CHL1   C1214875   4.826   1.499  15.406  0.5381  0.2630  0.0723
  117CHL1  H12A14876   4.925   1.528  15.364 -0.5282  1.1018 -2.0714
  117CHL1  H12B14877   4.769   1.592  15.383 -0.4643 -0.0481  1.2546
  117CHL1   C1114878   4.835   1.465  15.551 -0.6906 -0.8161  0.1120
  117CHL1  H11A14879   4.899   1.376  15.565 -0.2294 -0.6711 -0.9998
  117CHL1  H11B14880   4.881   1.557  15.594  1.0649 -1.2848 -0.6971
  117CHL1    C914881   4.707   1.425  15.632  0.0420  0.2474 -0.0217
  117CHL1    H914882   4.642   1.515  15.636 -1.5494 -0.8681 -0.0869
  117CHL1   C1014883   4.728   1.382  15.783  0.1291 -0.5140 -0.6662
  117CHL1   C1914884   4.842   1.278  15.798 -0.0016  0.4457  0.2704
  117CHL1  H19A14885   4.800   1.191  15.743  0.9275  0.8598 -1.1737
  117CHL1  H19B14886   4.935   1.324  15.757 -0.9584  2.3289  0.1000
  117CHL1  H19C14887   4.867   1.255  15.904  1.3192  2.8025  0.5481
  117CHL1    C114888   4.769   1.505  15.870  0.2741  0.9166  0.2014
  117CHL1   H1A14889   4.873   1.535  15.846  0.2677  0.7666 -0.0179
  117CHL1   H1B14890   4.707   1.589  15.833  0.6478  1.6982  1.2950
  117CHL1    C214891   4.764   1.491  16.023 -0.8887  0.0326  0.0075
  117CHL1   H2A14892   4.775   1.594  16.063 -1.4156 -0.3517  1.1591
  117CHL1   H2B14893   4.851   1.432  16.060 -0.7342 -0.2595 -0.8017
  117CHL1   C2014894   4.802   1.427  15.068 -0.0406 -0.5564  0.5961
  117CHL1   H2014895   4.847   1.327  15.055  0.6458 -0.2797  0.8291
  117CHL1   C2114896   4.915   1.535  15.093  0.0738  0.4484 -0.2550
  117CHL1  H21A14897   4.973   1.510  15.184 -0.2481 -2.1522 -0.7027
  117CHL1  H21B14898   4.866   1.635  15.099 -0.5280  0.2116 -0.9976
  117CHL1  H21C14899   4.987   1.531  15.008  2.4594 -1.1406  1.7192
  117CHL1   C2214900   4.742   1.473  14.933  0.3721 -0.2284 -0.0015
  117CHL1  H22A14901   4.677   1.560  14.954 -1.0005 -0.8471 -1.4719
  117CHL1  H22B14902   4.822   1.507  14.863  0.4541  0.6858  0.5319
  117CHL1   C2314903   4.659   1.369  14.856  0.2172  0.6223  0.0185
  117CHL1  H23A14904   4.720   1.277  14.860  0.0804  0.5358  0.1477
  117CHL1  H23B14905   4.567   1.348  14.914 -0.0884  0.0263 -0.6688
  117CHL1   C2414906   4.607   1.403  14.712 -0.0791  0.0277 -0.0080
  117CHL1  H24A14907   4.697   1.430  14.651  0.9948 -1.6980  0.7412
  117CHL1  H24B14908   4.568   1.311  14.663  0.6741 -0.1629 -0.2632
  117CHL1   C2514909   4.505   1.521  14.705  0.0393  0.0999  0.8565
  117CHL1   H2514910   4.555   1.608  14.753  0.0783 -0.5773  2.0682
  117CHL1   C2614911   4.462   1.560  14.561 -0.3245 -0.0243 -0.8788
  117CHL1  H26A14912   4.400   1.476  14.523 -2.3861  1.3115 -0.6677
  117CHL1  H26B14913   4.391   1.645  14.569  0.1963  0.4127 -0.8519
  117CHL1  H26C14914   4.548   1.586  14.496  0.5639 -0.1992  0.1993
  117CHL1   C2714915   4.384   1.488  14.790  0.5619 -0.6729 -0.9240
  117CHL1  H27A14916   4.344   1.392  14.752  1.2924 -1.3556 -0.0103
  117CHL1  H27B14917   4.405   1.476  14.899 -0.8637  0.5749 -0.4668
  117CHL1  H27C14918   4.297   1.555  14.770  0.6415  0.0009  0.8008
  118CHL1    C314919   6.371   2.432  16.792  0.1292  1.2780  0.1657
  118CHL1    H314920   6.264   2.401  16.788  0.6855 -1.3053  2.1483
  118CHL1    O314921   6.416   2.412  16.929  0.2022  0.4614  0.6358
  118CHL1   H3'14922   6.383   2.323  16.947  0.1261 -0.0855 -1.8838
  118CHL1    C414923   6.462   2.333  16.704  0.0444 -0.7985  0.3788
  118CHL1   H4A14924   6.566   2.346  16.742  0.3517 -2.8605  0.3611
  118CHL1   H4B14925   6.429   2.233  16.738 -0.2423 -0.2230  1.8769
  118CHL1    C514926   6.445   2.357  16.558  0.2459 -0.1964  0.6949
  118CHL1    C614927   6.400   2.255  16.482 -1.2746  0.2438  0.2199
  118CHL1    H614928   6.378   2.154  16.518 -1.4299 -1.1168 -3.2546
  118CHL1    C714929   6.371   2.274  16.334 -0.1413  0.1746  0.8828
  118CHL1   H7A14930   6.402   2.185  16.276  0.5989  0.1664  1.2854
  118CHL1   H7B14931   6.260   2.279  16.327 -0.1113 -0.9804 -0.8347
  118CHL1    C814932   6.418   2.414  16.275  0.3932 -0.0080  0.6528
  118CHL1    H814933   6.529   2.415  16.265  0.3277  2.1607 -0.4772
  118CHL1   C1414934   6.361   2.440  16.129  0.0755 -0.3112 -0.1434
  118CHL1   H1414935   6.251   2.443  16.139  0.0761 -0.4355 -0.0919
  118CHL1   C1514936   6.380   2.334  16.027 -0.3132  0.5320 -0.0074
  118CHL1  H15A14937   6.479   2.288  16.050 -0.4572 -0.0934 -0.6005
  118CHL1  H15B14938   6.305   2.252  16.025  0.8638 -0.5697 -1.0766
  118CHL1   C1614939   6.398   2.416  15.898  0.2563  0.7749 -0.1047
  118CHL1  H16A14940   6.500   2.417  15.855 -0.5099 -0.8579 -2.1355
  118CHL1  H16B14941   6.337   2.368  15.818  0.1538 -0.0222  0.4378
  118CHL1   C1714942   6.339   2.557  15.935 -0.0236 -0.0987  0.3011
  118CHL1   H1714943   6.228   2.560  15.935 -0.0472 -0.6349  1.1476
  118CHL1   C1314944   6.392   2.576  16.075  0.0769  0.3905  0.4484
  118CHL1   C1814945   6.544   2.605  16.067 -0.3068  0.6388  0.0833
  118CHL1  H18A14946   6.589   2.525  16.004 -0.6551 -0.0814  0.7391
  118CHL1  H18B14947   6.580   2.704  16.032 -2.8650  1.9205  0.8144
  118CHL1  H18C14948   6.583   2.585  16.169 -0.7219  0.3700  0.1985
  118CHL1   C1214949   6.322   2.678  16.171 -0.3856  0.7552  0.2183
  118CHL1  H12A14950   6.345   2.781  16.137  1.0086  0.5566  0.5033
  118CHL1  H12B14951   6.213   2.656  16.176 -0.3098  0.0939 -0.6765
  118CHL1   C1114952   6.383   2.666  16.316 -0.0779 -0.1030 -0.1228
  118CHL1  H11A14953   6.482   2.718  16.314 -0.3817  0.4701 -0.8505
  118CHL1  H11B14954   6.322   2.738  16.375 -2.1417 -0.0817 -2.1773
  118CHL1    C914955   6.375   2.523  16.372  0.1901  0.0781  0.1064
  118CHL1    H914956   6.265   2.514  16.389 -0.1070 -2.6222 -2.4894
  118CHL1   C1014957   6.440   2.505  16.507  0.0736  0.3410 -0.2662
  118CHL1   C1914958   6.586   2.546  16.514  0.0491 -0.4666 -0.1002
  118CHL1  H19A14959   6.621   2.543  16.620 -0.0468  1.4889  0.0178
  118CHL1  H19B14960   6.646   2.489  16.440 -0.0229  0.4696 -0.9053
  118CHL1  H19C14961   6.594   2.653  16.486 -1.6171 -0.5791 -1.1479
  118CHL1    C114962   6.360   2.595  16.601 -0.1574  0.6234  0.2000
  118CHL1   H1A14963   6.367   2.703  16.573 -1.9415  1.0585  1.3349
  118CHL1   H1B14964   6.253   2.569  16.593 -0.3485  1.6248 -0.6956
  118CHL1    C214965   6.387   2.573  16.753 -0.1543 -0.5189  0.4850
  118CHL1   H2A14966   6.319   2.639  16.812  0.0235  0.2464 -0.1468
  118CHL1   H2B14967   6.482   2.621  16.784 -0.8273 -0.1542  2.0790
  118CHL1   C2014968   6.379   2.665  15.828  0.5531  0.3061  0.1948
  118CHL1   H2014969   6.490   2.668  15.821  0.6782 -3.0659 -0.6012
  118CHL1   C2114970   6.324   2.806  15.866  0.7638 -0.2019  0.3076
  118CHL1  H21A14971   6.377   2.855  15.950  1.3774  0.8553 -0.6643
  118CHL1  H21B14972   6.220   2.792  15.903  0.1831 -1.5292 -1.6420
  118CHL1  H21C14973   6.318   2.877  15.781  1.4645 -0.8848 -0.3304
  118CHL1   C2214974   6.315   2.631  15.691 -0.1303  0.1907  0.2943
  118CHL1  H22A14975   6.312   2.521  15.674  0.0585  0.1956  0.2248
  118CHL1  H22B14976   6.210   2.664  15.684 -0.2073  0.1012  0.9920
  118CHL1   C2314977   6.398   2.688  15.571 -0.3149  0.0772 -0.0111
  118CHL1  H23A14978   6.428   2.794  15.586 -1.0910  0.2677  0.2699
  118CHL1  H23B14979   6.498   2.640  15.567  0.6555  1.7360  2.2808
  118CHL1   C2414980   6.316   2.655  15.441 -0.2747  0.0526  0.3283
  118CHL1  H24A14981   6.293   2.547  15.423 -1.4940  0.2154  0.8163
  118CHL1  H24B14982   6.216   2.702  15.454 -1.1777 -1.6686 -0.0140
  118CHL1   C2514983   6.385   2.710  15.314  0.3582 -0.5870  0.0364
  118CHL1   H2514984   6.387   2.819  15.335  0.2832 -0.6746  0.4995
  118CHL1   C2614985   6.513   2.663  15.267 -0.2010  0.7110  0.5748
  118CHL1  H26A14986   6.600   2.693  15.329  1.0666 -3.6755  1.2801
  118CHL1  H26B14987   6.529   2.553  15.263  2.5594  1.0864 -1.7018
  118CHL1  H26C14988   6.530   2.699  15.164 -0.3826  0.7024  0.5408
  118CHL1   C2714989   6.284   2.703  15.204 -0.0630  0.0676 -0.0512
  118CHL1  H27A14990   6.332   2.758  15.120 -0.1612  0.4193  0.1187
  118CHL1  H27B14991   6.265   2.599  15.170  0.0735  0.0651 -0.1235
  118CHL1  H27C14992   6.186   2.747  15.233  0.7717  0.3679  2.6135
  119CHL1    C314993   0.672   1.290  16.555 -0.3332 -0.3246  1.1539
  119CHL1    H314994   0.716   1.204  16.501  0.7862 -0.2731  1.9472
  119CHL1    O314995   0.671   1.251  16.690 -0.5499  0.4762 -0.4304
  119CHL1   H3'14996   0.610   1.310  16.734 -1.2855 -1.3721  1.1949
  119CHL1    C414997   0.755   1.417  16.524 -0.2835  0.1812  1.0060
  119CHL1   H4A14998   0.722   1.502  16.588  0.2583  0.4653  0.9101
  119CHL1   H4B14999   0.859   1.409  16.562  0.1660 -0.5877 -0.3177
  119CHL1    C515000   0.744   1.456  16.375 -0.9629  0.0437 -0.8188
  119CHL1    C615001   0.854   1.473  16.299 -0.1353 -0.6148  0.1718
  119CHL1    H615002   0.953   1.464  16.346 -1.1781  1.7411  3.1459
  119CHL1    C715003   0.848   1.513  16.155 -0.3373 -0.4589  0.6896
  119CHL1   H7A15004   0.912   1.603  16.142  0.6010 -0.9251  1.9103
  119CHL1   H7B15005   0.880   1.428  16.090  0.2771 -0.0632  0.4672
  119CHL1    C815006   0.709   1.550  16.113  0.7701  1.0356  0.3475
  119CHL1    H815007   0.680   1.655  16.133  0.0543  0.6624  1.3815
  119CHL1   C1415008   0.713   1.532  15.959 -0.1016 -0.0218 -0.2708
  119CHL1   H1415009   0.736   1.425  15.938  3.7334  1.0584 -2.5059
  119CHL1   C1515010   0.821   1.609  15.879  0.4473 -0.3664 -0.0483
  119CHL1  H15A15011   0.826   1.711  15.923  0.6538 -1.2283  2.0465
  119CHL1  H15B15012   0.924   1.572  15.893  1.2391  1.9607  0.8126
  119CHL1   C1615013   0.778   1.589  15.731 -0.3783 -0.7893  0.0412
  119CHL1  H16A15014   0.777   1.686  15.677  0.5096 -0.9694 -0.3246
  119CHL1  H16B15015   0.860   1.531  15.682 -0.1787 -1.0556  0.6748
  119CHL1   C1715016   0.639   1.524  15.736  0.0742 -0.5304 -0.0529
  119CHL1   H1715017   0.655   1.414  15.741  2.9108 -0.2363 -0.8586
  119CHL1   C1315018   0.582   1.557  15.876  0.9057 -0.4023 -0.0020
  119CHL1   C1815019   0.545   1.705  15.884 -0.8317  0.4735 -0.0098
  119CHL1  H18A15020   0.621   1.774  15.842 -0.7876 -0.2255 -1.1394
  119CHL1  H18B15021   0.456   1.735  15.825  1.0123  1.5338 -2.4172
  119CHL1  H18C15022   0.520   1.735  15.988 -2.2201 -3.0419  0.8270
  119CHL1   C1215023   0.475   1.469  15.941 -0.2220 -0.1121 -0.1873
  119CHL1  H12A15024   0.375   1.489  15.898  0.7126 -0.7779 -2.8349
  119CHL1  H12B15025   0.504   1.366  15.909  4.5149  0.9296  0.0338
  119CHL1   C1115026   0.465   1.478  16.102  0.0908  0.4057  0.3634
  119CHL1  H11A15027   0.416   1.569  16.141 -0.5007  0.5949 -0.7750
  119CHL1  H11B15028   0.407   1.389  16.132  0.0687  1.4410  3.7642
  119CHL1    C915029   0.604   1.454  16.165 -0.3393 -0.8527  0.0086
  119CHL1    H915030   0.636   1.353  16.133  2.5143  0.1646 -0.6463
  119CHL1   C1015031   0.603   1.458  16.320 -0.0637 -0.5359 -0.5546
  119CHL1   C1915032   0.537   1.588  16.364 -0.2705  0.6311 -0.5327
  119CHL1  H19A15033   0.572   1.676  16.306 -0.9370 -0.2528 -2.3484
  119CHL1  H19B15034   0.426   1.586  16.364 -0.2792  0.7132  0.3507
  119CHL1  H19C15035   0.564   1.607  16.470 -0.5823 -0.8275 -0.1640
  119CHL1    C115036   0.513   1.339  16.362  0.3547 -0.2185  0.9093
  119CHL1   H1A15037   0.407   1.348  16.331  0.6786 -2.3073 -1.0687
  119CHL1   H1B15038   0.558   1.250  16.312 -1.5632 -1.2634  0.9634
  119CHL1    C215039   0.520   1.301  16.514 -0.5326 -0.3816 -0.2349
  119CHL1   H2A15040   0.472   1.201  16.527  1.6041 -1.2076  2.3157
  119CHL1   H2B15041   0.468   1.378  16.574  1.3235 -0.5562  1.7149
  119CHL1   C2015042   0.552   1.552  15.609  0.4442 -0.3355 -0.1163
  119CHL1   H2015043   0.507   1.653  15.622 -2.1393 -1.2953 -0.8533
  119CHL1   C2115044   0.442   1.450  15.605 -0.0412  0.2879 -0.7119
  119CHL1  H21A15045   0.482   1.347  15.594 -0.8192 -0.1755  0.6064
  119CHL1  H21B15046   0.358   1.468  15.535 -0.8691  0.3608  0.2787
  119CHL1  H21C15047   0.390   1.445  15.703 -1.1628  1.3827 -1.2187
  119CHL1   C2215048   0.628   1.566  15.476  0.4697  0.0162  0.0770
  119CHL1  H22A15049   0.708   1.642  15.477 -1.7609  2.5095  0.8061
  119CHL1  H22B15050   0.680   1.470  15.454 -0.9015 -0.4954 -1.1350
  119CHL1   C2315051   0.534   1.589  15.352  0.4618 -0.3241 -0.9305
  119CHL1  H23A15052   0.492   1.490  15.327 -1.6600 -0.0702  1.2229
  119CHL1  H23B15053   0.460   1.668  15.378  0.5123 -0.0061 -1.7145
  119CHL1   C2415054   0.597   1.641  15.221  0.3017 -0.3519 -0.1059
  119CHL1  H24A15055   0.658   1.731  15.244  0.7225 -0.7233  0.2465
  119CHL1  H24B15056   0.667   1.565  15.179  1.2212  0.2763  0.2596
  119CHL1   C2515057   0.494   1.689  15.115 -0.2183  0.0908 -0.1442
  119CHL1   H2515058   0.458   1.789  15.148  0.5982  0.9104 -1.6189
  119CHL1   C2615059   0.555   1.704  14.967 -0.1831 -0.6157 -0.2709
  119CHL1  H26A15060   0.488   1.770  14.907  1.7744  1.5066 -0.2375
  119CHL1  H26B15061   0.652   1.758  14.970  0.6193 -2.0558  0.4087
  119CHL1  H26C15062   0.580   1.607  14.919  1.0939 -1.5213  2.0843
  119CHL1   C2715063   0.379   1.591  15.101  0.2068 -0.0466  0.1767
  119CHL1  H27A15064   0.323   1.622  15.010 -0.2797  1.6365  1.0027
  119CHL1  H27B15065   0.417   1.487  15.093 -0.6496 -0.2901 -1.1156
  119CHL1  H27C15066   0.308   1.592  15.186 -0.6867 -0.2612 -0.5486
  120CHL1    C315067   6.173   1.863  16.387  0.4011  0.1278 -0.0025
  120CHL1    H315068   6.064   1.882  16.387  0.1283 -1.2428 -1.1476
  120CHL1    O315069   6.224   1.868  16.518 -0.4834  0.5112  0.0659
  120CHL1   H3'15070   6.307   1.821  16.514 -0.1788  1.0320  0.1716
  120CHL1    C415071   6.190   1.717  16.333  0.3294 -0.3041 -0.5177
  120CHL1   H4A15072   6.292   1.681  16.357  0.2733 -1.1003 -1.4089
  120CHL1   H4B15073   6.116   1.654  16.388 -0.5051  1.4748  0.4640
  120CHL1    C515074   6.162   1.686  16.187  0.4020  0.0712 -0.6061
  120CHL1    C615075   6.063   1.609  16.142 -0.6301 -0.2156  0.0563
  120CHL1    H615076   6.003   1.551  16.213 -1.8933 -1.0860 -1.6499
  120CHL1    C715077   6.037   1.584  15.998  0.3719 -0.0851 -0.7575
  120CHL1   H7A15078   6.015   1.476  15.987 -2.4039  0.0783  1.8985
  120CHL1   H7B15079   5.948   1.642  15.965  0.2581  0.8409  1.0428
  120CHL1    C815080   6.151   1.625  15.900  0.3035 -0.0290 -0.7572
  120CHL1    H815081   6.236   1.558  15.922  0.7360  0.8168  0.2056
  120CHL1   C1415082   6.104   1.618  15.761 -0.9382 -0.4422  0.1366
  120CHL1   H1415083   6.020   1.691  15.754 -2.0388 -1.7537 -0.8244
  120CHL1   C1515084   6.037   1.491  15.710 -0.1552 -0.4483  0.3020
  120CHL1  H15A15085   6.098   1.407  15.750  3.0281  1.5180 -0.0708
  120CHL1  H15B15086   5.931   1.479  15.742 -0.6597  1.5948 -0.4407
  120CHL1   C1615087   6.061   1.495  15.558 -0.4903 -0.5136  0.1883
  120CHL1  H16A15088   6.125   1.409  15.534 -1.9146 -0.7095 -3.5006
  120CHL1  H16B15089   5.971   1.484  15.493 -1.0588  0.3710  0.7853
  120CHL1   C1715090   6.138   1.628  15.523 -0.0011 -0.6823  0.4054
  120CHL1   H1715091   6.071   1.716  15.515  1.4952  0.4283 -0.5733
  120CHL1   C1315092   6.215   1.659  15.655 -1.1431  0.4321 -0.3856
  120CHL1   C1815093   6.334   1.561  15.667  0.2950  0.6994  0.1705
  120CHL1  H18A15094   6.424   1.592  15.610 -1.8405  1.6039 -2.9625
  120CHL1  H18B15095   6.367   1.553  15.773  2.0652 -0.5473 -0.4382
  120CHL1  H18C15096   6.307   1.463  15.622  1.2463  0.5191 -0.0312
  120CHL1   C1215097   6.238   1.811  15.696 -0.6144  0.3562 -0.1447
  120CHL1  H12A15098   6.325   1.848  15.637 -0.5722 -1.2974 -1.1922
  120CHL1  H12B15099   6.152   1.876  15.671 -1.4808 -1.0613 -0.9764
  120CHL1   C1115100   6.286   1.827  15.840 -0.0976  0.3096  0.5830
  120CHL1  H11A15101   6.380   1.768  15.850  0.1581  0.8014  1.1675
  120CHL1  H11B15102   6.316   1.934  15.849  1.2057  0.0062  0.0267
  120CHL1    C915103   6.193   1.768  15.945 -0.5439 -0.0106 -0.1383
  120CHL1    H915104   6.102   1.831  15.936 -2.3255 -2.0739  2.2005
  120CHL1   C1015105   6.251   1.771  16.093 -0.3450  0.8570 -0.3440
  120CHL1   C1915106   6.399   1.730  16.104 -0.0792  0.4235  0.3307
  120CHL1  H19A15107   6.460   1.794  16.037  0.1352  2.3220  2.2282
  120CHL1  H19B15108   6.440   1.742  16.207 -0.6733 -0.7729  0.7316
  120CHL1  H19C15109   6.405   1.621  16.085 -1.8678  0.8624 -3.5684
  120CHL1    C115110   6.228   1.919  16.141 -0.3054  0.9938  0.1989
  120CHL1   H1A15111   6.289   1.981  16.071 -1.4533  0.1830 -1.5949
  120CHL1   H1B15112   6.122   1.941  16.114 -0.4703  1.0191  0.8523
  120CHL1    C215113   6.261   1.949  16.287 -0.0223  0.1309 -0.1327
  120CHL1   H2A15114   6.238   2.057  16.300  0.8813  0.3951 -0.6367
  120CHL1   H2B15115   6.367   1.933  16.317  0.2271 -2.8091 -2.1327
  120CHL1   C2015116   6.219   1.612  15.391 -0.2606  0.0901  0.0301
  120CHL1   H2015117   6.286   1.523  15.399 -0.1875  0.0288 -1.1238
  120CHL1   C2115118   6.302   1.735  15.369 -0.3210  0.4638 -0.1802
  120CHL1  H21A15119   6.362   1.704  15.280  2.8890 -1.9571  2.5844
  120CHL1  H21B15120   6.384   1.738  15.444 -1.4711 -1.3582  1.2269
  120CHL1  H21C15121   6.238   1.825  15.360 -1.2281 -0.1628 -0.1938
  120CHL1   C2215122   6.127   1.595  15.264  0.3474  0.2420  0.7194
  120CHL1  H22A15123   6.043   1.527  15.291  0.6435 -0.4478 -0.0764
  120CHL1  H22B15124   6.076   1.694  15.254  0.6391  0.5137  1.7519
  120CHL1   C2315125   6.191   1.540  15.136  0.1541  0.3697  0.2428
  120CHL1  H23A15126   6.276   1.604  15.107 -0.7886  0.8780 -1.5266
  120CHL1  H23B15127   6.227   1.436  15.154  0.7240  0.9975  3.3834
  120CHL1   C2415128   6.106   1.547  15.008  0.6724  0.0049 -0.0098
  120CHL1  H24A15129   6.021   1.481  15.038  1.6618 -0.8519  0.9823
  120CHL1  H24B15130   6.076   1.653  14.994  0.3840 -0.3448 -2.5804
  120CHL1   C2515131   6.168   1.495  14.873 -0.3814 -0.2828  0.1930
  120CHL1   H2515132   6.234   1.409  14.899  0.7442 -0.4290 -2.8174
  120CHL1   C2615133   6.066   1.441  14.773  0.2533 -0.2761  0.3125
  120CHL1  H26A15134   5.985   1.515  14.754  0.7866  0.6419  1.4491
  120CHL1  H26B15135   6.115   1.415  14.676  0.4120  0.4556  0.1897
  120CHL1  H26C15136   6.020   1.349  14.813 -0.1697 -0.6397 -0.9711
  120CHL1   C2715137   6.253   1.600  14.793  0.1245  0.4756 -0.4052
  120CHL1  H27A15138   6.187   1.684  14.762  0.3748  0.4224 -1.0929
  120CHL1  H27B15139   6.340   1.635  14.852 -1.3557  0.4238  1.9647
  120CHL1  H27C15140   6.290   1.539  14.708  0.8577 -1.2603  1.1044
  121CHL1    C315141   4.303   4.862  12.962 -0.5273  0.5480  0.0336
  121CHL1    H315142   4.313   4.973  12.968 -0.4235  0.5865 -0.7355
  121CHL1    O315143   4.309   4.840  12.823 -0.6881 -0.1492  0.1242
  121CHL1   H3'15144   4.234   4.783  12.806 -0.8289  0.5328 -1.6692
  121CHL1    C415145   4.425   4.805  13.032 -0.0457  0.3848 -0.3923
  121CHL1   H4A15146   4.417   4.696  13.017 -1.7724  0.3968  0.2041
  121CHL1   H4B15147   4.513   4.852  12.982  0.0048  0.6615 -0.0494
  121CHL1    C515148   4.423   4.839  13.183  1.0647 -0.1881  0.7454
  121CHL1    C615149   4.525   4.896  13.237  0.7204  0.1200 -0.0854
  121CHL1    H615150   4.618   4.909  13.181  1.0004 -0.4232  0.2487
  121CHL1    C715151   4.545   4.913  13.384  0.0412 -0.0558  0.2454
  121CHL1   H7A15152   4.644   4.871  13.412 -0.0375  0.0891  0.7524
  121CHL1   H7B15153   4.552   5.022  13.404 -0.7922  0.4852 -2.1147
  121CHL1    C815154   4.437   4.836  13.464 -0.0579  0.2497 -0.9784
  121CHL1    H815155   4.478   4.733  13.467  0.3561  0.4329  0.7838
  121CHL1   C1415156   4.422   4.893  13.607 -0.1645  0.1747  0.2923
  121CHL1   H1415157   4.362   4.984  13.588 -3.1503 -1.8258 -0.5259
  121CHL1   C1515158   4.550   4.932  13.685 -0.5834 -0.3319  0.0554
  121CHL1  H15A15159   4.633   4.859  13.673 -0.4429  0.0810 -1.7267
  121CHL1  H15B15160   4.573   5.034  13.648  0.6144 -0.1744  1.1784
  121CHL1   C1615161   4.503   4.925  13.834 -0.4058  0.6508  0.5010
  121CHL1  H16A15162   4.555   4.836  13.876  1.0144  1.6013  0.8238
  121CHL1  H16B15163   4.530   5.012  13.897  1.3441  1.0714 -0.7609
  121CHL1   C1715164   4.353   4.882  13.835  0.1849  0.2749  0.1269
  121CHL1   H1715165   4.304   4.981  13.829  0.7341  0.5321 -0.1620
  121CHL1   C1315166   4.333   4.805  13.705  0.5486  0.3016 -0.4693
  121CHL1   C1815167   4.384   4.666  13.725 -0.0677  0.0179  0.8155
  121CHL1  H18A15168   4.486   4.663  13.768  1.1945 -0.1124 -2.0080
  121CHL1  H18B15169   4.309   4.602  13.777  0.9030 -0.6182  1.4570
  121CHL1  H18C15170   4.386   4.621  13.624  2.0033  1.6574  0.0549
  121CHL1   C1215171   4.189   4.817  13.648 -0.0459 -0.1960 -0.1869
  121CHL1  H12A15172   4.117   4.751  13.701  0.2979 -0.0224  0.5044
  121CHL1  H12B15173   4.156   4.922  13.665  1.3535  0.8739 -3.2400
  121CHL1   C1115174   4.178   4.787  13.497 -0.7212 -0.2777 -0.3222
  121CHL1  H11A15175   4.192   4.676  13.501 -0.4129 -0.2196  3.2506
  121CHL1  H11B15176   4.078   4.814  13.457 -0.8268  0.7640  0.6051
  121CHL1    C915177   4.294   4.839  13.404  0.0944  0.3462 -0.3139
  121CHL1    H915178   4.267   4.947  13.398  0.1160  0.4663  1.2261
  121CHL1   C1015179   4.291   4.795  13.256  0.7212  0.4637  0.0519
  121CHL1   C1915180   4.290   4.645  13.260  0.2786  0.3950 -0.2942
  121CHL1  H19A15181   4.302   4.590  13.164  2.0199 -1.9788  1.1492
  121CHL1  H19B15182   4.374   4.609  13.323  0.8430  0.5357 -0.9648
  121CHL1  H19C15183   4.190   4.611  13.295  0.9904 -1.7835 -0.2179
  121CHL1    C115184   4.172   4.853  13.173  0.7069 -0.1684  0.0924
  121CHL1   H1A15185   4.073   4.822  13.212  0.7653  1.2749  1.5192
  121CHL1   H1B15186   4.181   4.964  13.178  2.4797 -0.2876  0.4036
  121CHL1    C215187   4.171   4.819  13.023 -0.2325 -0.5178  0.3083
  121CHL1   H2A15188   4.097   4.876  12.962 -1.2197 -0.3556  1.6037
  121CHL1   H2B15189   4.145   4.711  13.017 -3.8904  0.2191  0.2232
  121CHL1   C2015190   4.310   4.804  13.972 -0.2589  0.4495  0.4683
  121CHL1   H2015191   4.310   4.694  13.961 -2.2685 -0.2485  5.0617
  121CHL1   C2115192   4.157   4.823  13.998  0.0207  1.0177 -0.0686
  121CHL1  H21A15193   4.100   4.781  13.912  0.1533  1.3663 -0.3285
  121CHL1  H21B15194   4.130   4.930  14.010  0.9520  1.1799  0.6344
  121CHL1  H21C15195   4.128   4.766  14.089  0.6271  0.1836 -0.3830
  121CHL1   C2215196   4.389   4.842  14.093  0.7341 -0.5337  0.0192
  121CHL1  H22A15197   4.498   4.828  14.077  1.0062  0.9089  0.4436
  121CHL1  H22B15198   4.375   4.952  14.104  1.5372 -0.2824 -1.2512
  121CHL1   C2315199   4.360   4.771  14.224  0.2428 -0.0967  0.3220
  121CHL1  H23A15200   4.253   4.777  14.250  0.6029  2.8713  1.5241
  121CHL1  H23B15201   4.394   4.665  14.223  1.6621  0.3374 -0.7288
  121CHL1   C2415202   4.434   4.837  14.343 -0.1161 -0.9889 -0.0883
  121CHL1  H24A15203   4.440   4.759  14.422  0.4414 -1.0986 -0.2364
  121CHL1  H24B15204   4.544   4.845  14.325  0.2161 -0.6679  1.8198
  121CHL1   C2515205   4.371   4.967  14.396  0.1757 -0.2055  1.0586
  121CHL1   H2515206   4.343   5.018  14.301 -1.1752  1.5607  2.3341
  121CHL1   C2615207   4.240   4.967  14.485  0.2978  0.0314  1.0915
  121CHL1  H26A15208   4.258   4.927  14.587 -0.0922 -1.2755  0.6660
  121CHL1  H26B15209   4.192   5.065  14.504 -1.1029 -0.5808  0.8345
  121CHL1  H26C15210   4.164   4.912  14.426  0.0180  2.9069 -1.5087
  121CHL1   C2715211   4.480   5.065  14.444  0.6247 -0.2603 -0.0270
  121CHL1  H27A15212   4.554   5.091  14.365  2.1883  1.0756  1.7850
  121CHL1  H27B15213   4.434   5.160  14.480 -0.2756 -0.4856 -0.5474
  121CHL1  H27C15214   4.534   5.023  14.531 -0.9258  0.4512  1.3400
  122CHL1    C315215   3.574   5.013  12.457 -0.1043  0.8464 -0.1708
  122CHL1    H315216   3.657   4.938  12.461  0.8599  1.9317  1.7355
  122CHL1    O315217   3.563   5.058  12.322  0.4573 -0.1433 -0.3584
  122CHL1   H3'15218   3.588   4.982  12.269 -2.6063 -0.7622 -1.0841
  122CHL1    C415219   3.434   4.960  12.482  0.2313  0.3810 -0.5855
  122CHL1   H4A15220   3.361   5.042  12.466 -0.0516  0.2829  0.1595
  122CHL1   H4B15221   3.400   4.881  12.412 -0.2275  0.8318 -0.8738
  122CHL1    C515222   3.421   4.918  12.625 -0.8400 -0.2832 -0.3631
  122CHL1    C615223   3.371   4.795  12.655  0.0534  0.1763  0.0221
  122CHL1    H615224   3.338   4.730  12.572 -2.9614 -0.1051  1.3057
  122CHL1    C715225   3.342   4.756  12.791 -0.0843 -0.1294 -0.6246
  122CHL1   H7A15226   3.239   4.713  12.787 -0.5613  0.9368 -0.3117
  122CHL1   H7B15227   3.419   4.684  12.824 -1.3623 -0.4858  1.8717
  122CHL1    C815228   3.347   4.873  12.897 -0.1685  1.1138  1.0106
  122CHL1    H815229   3.252   4.929  12.882  0.0076  1.1404 -0.0683
  122CHL1   C1415230   3.359   4.812  13.037 -1.1260 -0.0584 -0.5186
  122CHL1   H1415231   3.448   4.746  13.044 -1.8909 -0.9568  1.1228
  122CHL1   C1515232   3.258   4.707  13.077  0.6092 -0.3426  0.3001
  122CHL1  H15A15233   3.158   4.745  13.046 -0.0242 -2.1374  0.0348
  122CHL1  H15B15234   3.276   4.604  13.037  1.1083 -0.0450 -0.2614
  122CHL1   C1615235   3.271   4.703  13.236 -0.3004  0.2694 -0.3858
  122CHL1  H16A15236   3.165   4.705  13.269  0.0348  1.8469  0.7043
  122CHL1  H16B15237   3.324   4.613  13.274  1.6860  1.2114 -0.7614
  122CHL1   C1715238   3.361   4.826  13.278  0.1009  0.0270 -0.0173
  122CHL1   H1715239   3.465   4.794  13.302 -0.6548 -0.7924  2.3935
  122CHL1   C1315240   3.366   4.914  13.152 -0.5847  0.2005  0.1182
  122CHL1   C1815241   3.230   4.999  13.156  0.3748 -0.7857  0.5920
  122CHL1  H18A15242   3.148   4.928  13.183 -0.7282 -1.3938 -3.6548
  122CHL1  H18B15243   3.238   5.081  13.230 -0.5729  0.7078 -0.8938
  122CHL1  H18C15244   3.210   5.056  13.063 -0.4556  1.9583  2.3460
  122CHL1   C1215245   3.491   4.998  13.130 -0.1052 -0.2438 -0.0183
  122CHL1  H12A15246   3.506   5.081  13.202  0.5243  0.9088 -1.4299
  122CHL1  H12B15247   3.579   4.929  13.133 -0.5681 -0.7963  1.5204
  122CHL1   C1115248   3.483   5.065  12.990  0.1139 -0.0054  0.5222
  122CHL1  H11A15249   3.398   5.137  12.986 -0.3491 -0.5439  0.5896
  122CHL1  H11B15250   3.579   5.120  12.980  0.9882 -1.6103 -0.3315
  122CHL1    C915251   3.463   4.967  12.870 -0.0660  0.0668  0.7035
  122CHL1    H915252   3.553   4.903  12.879  0.6873  0.5127 -2.4593
  122CHL1   C1015253   3.463   5.025  12.727 -0.5777 -0.7154 -0.4563
  122CHL1   C1915254   3.363   5.143  12.718  0.0702  0.3523 -0.3868
  122CHL1  H19A15255   3.268   5.120  12.771 -0.3968  1.2819 -0.8007
  122CHL1  H19B15256   3.395   5.242  12.758 -1.7723  0.2257  1.6015
  122CHL1  H19C15257   3.331   5.165  12.614  1.4105  1.7772 -0.5381
  122CHL1    C115258   3.607   5.079  12.691  0.2560  0.3744 -0.5638
  122CHL1   H1A15259   3.623   5.161  12.764  1.8337 -1.4583  1.2810
  122CHL1   H1B15260   3.692   5.009  12.707  0.0797  0.5396  1.1869
  122CHL1    C215261   3.617   5.125  12.545 -0.1381  0.4107 -0.3737
  122CHL1   H2A15262   3.719   5.158  12.517 -1.2740  4.7165 -0.0945
  122CHL1   H2B15263   3.546   5.210  12.534 -0.9697 -0.2338 -0.0684
  122CHL1   C2015264   3.307   4.884  13.408 -0.3710 -0.2118  0.2089
  122CHL1   H2015265   3.201   4.917  13.400  0.2772  1.5771 -1.9803
  122CHL1   C2115266   3.395   5.009  13.442  0.1003  0.3053 -0.2086
  122CHL1  H21A15267   3.354   5.091  13.379 -0.4595 -1.1977 -1.8920
  122CHL1  H21B15268   3.497   4.967  13.424 -0.0286 -0.9231  1.7046
  122CHL1  H21C15269   3.393   5.025  13.552  2.1659 -4.1552  0.7172
  122CHL1   C2215270   3.305   4.781  13.519  0.7084 -0.3290  0.1975
  122CHL1  H22A15271   3.240   4.695  13.492  2.5826 -1.8125  0.2114
  122CHL1  H22B15272   3.406   4.737  13.531  1.3046  1.1074  0.7133
  122CHL1   C2315273   3.245   4.826  13.657  0.3431 -0.5810 -0.4773
  122CHL1  H23A15274   3.238   4.740  13.727  0.0456 -0.2162 -0.0532
  122CHL1  H23B15275   3.316   4.897  13.704  0.1953 -0.3854 -0.5493
  122CHL1   C2415276   3.108   4.895  13.655 -0.7060  0.0939 -0.3740
  122CHL1  H24A15277   3.115   4.990  13.598  0.8128  0.9619  1.1377
  122CHL1  H24B15278   3.043   4.823  13.602  1.3751  0.0719 -3.1130
  122CHL1   C2515279   3.059   4.934  13.797  0.0026  0.2861  0.2287
  122CHL1   H2515280   3.136   5.008  13.827  0.5476  0.4973 -1.5634
  122CHL1   C2615281   2.926   5.007  13.794 -1.5920  0.3225  0.1677
  122CHL1  H26A15282   2.894   5.037  13.896  2.6680  3.5891  0.8462
  122CHL1  H26B15283   2.919   5.100  13.734  0.7127  1.1935  1.1284
  122CHL1  H26C15284   2.851   4.935  13.755 -0.3657 -0.6486 -0.4657
  122CHL1   C2715285   3.044   4.816  13.897  0.8316 -0.1541 -0.4756
  122CHL1  H27A15286   3.141   4.766  13.916  0.5326  0.4114  3.2588
  122CHL1  H27B15287   3.009   4.867  13.990 -1.2295  0.2384 -1.3934
  122CHL1  H27C15288   2.974   4.736  13.864  0.6112 -0.6164  1.0492
  123CHL1    C315289   5.700   5.305  12.199 -0.3363  0.1456 -0.7092
  123CHL1    H315290   5.603   5.251  12.201 -0.3726  0.2307  0.7447
  123CHL1    O315291   5.716   5.352  12.066  0.1561 -0.0287  0.3739
  123CHL1   H3'15292   5.812   5.348  12.064  0.2331  1.4797 -0.7020
  123CHL1    C415293   5.704   5.424  12.295 -0.1329  0.2087  0.4886
  123CHL1   H4A15294   5.799   5.474  12.267 -0.4157 -0.1050 -1.1213
  123CHL1   H4B15295   5.620   5.493  12.271 -1.3941 -2.0234 -1.9782
  123CHL1    C515296   5.699   5.373  12.441  0.2496 -0.2278  0.3764
  123CHL1    C615297   5.598   5.419  12.526 -0.3310 -0.8562 -0.0268
  123CHL1    H615298   5.526   5.496  12.494  0.5273  0.5814  1.3350
  123CHL1    C715299   5.605   5.391  12.671 -0.7621  0.2725 -0.4887
  123CHL1   H7A15300   5.590   5.480  12.735  0.3784  0.2962 -0.2356
  123CHL1   H7B15301   5.526   5.317  12.698  0.0043  0.2907  1.9901
  123CHL1    C815302   5.729   5.322  12.723  0.1722  0.1208  0.4000
  123CHL1    H815303   5.812   5.393  12.738  0.4019 -0.1111  0.2323
  123CHL1   C1415304   5.701   5.261  12.865 -0.5009  0.7158  0.4595
  123CHL1   H1415305   5.621   5.187  12.842  0.9260 -1.5265  2.3502
  123CHL1   C1515306   5.649   5.350  12.977  0.7471 -0.7342  0.6188
  123CHL1  H15A15307   5.681   5.455  12.967 -2.4631  0.1724 -1.4811
  123CHL1  H15B15308   5.540   5.355  12.959  1.1300  0.4038 -1.8136
  123CHL1   C1615309   5.691   5.284  13.108  0.2413  0.6288 -0.0411
  123CHL1  H16A15310   5.761   5.356  13.154 -1.4402  4.0276 -2.3804
  123CHL1  H16B15311   5.610   5.259  13.180  0.8225 -0.0852  0.3847
  123CHL1   C1715312   5.752   5.146  13.055  0.1702  0.4577 -0.1404
  123CHL1   H1715313   5.666   5.081  13.027 -1.0676  1.4211  1.2252
  123CHL1   C1315314   5.825   5.179  12.929  0.1040 -0.0018 -0.5123
  123CHL1   C1815315   5.944   5.269  12.967 -0.5504 -0.0987  0.0597
  123CHL1  H18A15316   6.037   5.210  12.975  0.6842  1.7729  0.1396
  123CHL1  H18B15317   5.973   5.343  12.889  3.5699 -0.8191  0.6970
  123CHL1  H18C15318   5.935   5.315  13.067 -0.0568 -2.0235  1.0430
  123CHL1   C1215319   5.848   5.064  12.830 -0.6156  0.0072  0.4406
  123CHL1  H12A15320   5.939   5.003  12.848  0.0377  0.1878 -1.9456
  123CHL1  H12B15321   5.772   4.984  12.827 -0.9141  0.2184  1.7283
  123CHL1   C1115322   5.879   5.130  12.692  0.0116  0.1329 -0.1599
  123CHL1  H11A15323   5.971   5.191  12.700 -0.7677  1.3506 -0.2500
  123CHL1  H11B15324   5.906   5.049  12.621 -1.0532  0.4328 -0.9255
  123CHL1    C915325   5.770   5.218  12.623  0.0671 -0.1120  0.0533
  123CHL1    H915326   5.690   5.141  12.610 -0.4532  0.5841 -0.9940
  123CHL1   C1015327   5.805   5.269  12.482  0.1929 -0.4175  0.8121
  123CHL1   C1915328   5.946   5.344  12.488 -0.0069 -0.8431  0.0273
  123CHL1  H19A15329   6.029   5.272  12.505 -0.1591 -1.1467 -0.5005
  123CHL1  H19B15330   5.962   5.395  12.391 -0.8348 -0.6914 -0.0326
  123CHL1  H19C15331   5.960   5.411  12.576  0.4810 -1.2308  0.2526
  123CHL1    C115332   5.808   5.148  12.381  0.0231 -0.2741  0.8743
  123CHL1   H1A15333   5.897   5.084  12.395 -0.2105 -0.4056  1.7769
  123CHL1   H1B15334   5.714   5.089  12.383 -1.1116  1.3124 -1.1645
  123CHL1    C215335   5.808   5.195  12.236 -0.9827  0.3301  0.4567
  123CHL1   H2A15336   5.801   5.104  12.172  0.1549  0.4646  0.1169
  123CHL1   H2B15337   5.905   5.247  12.226 -1.4940  1.0629 -1.0775
  123CHL1   C2015338   5.832   5.074  13.162  0.0832  0.6433 -0.0170
  123CHL1   H2015339   5.918   5.135  13.197  0.5884 -0.5314  0.8437
  123CHL1   C2115340   5.882   4.942  13.106  0.4657 -0.6675 -0.0980
  123CHL1  H21A15341   5.935   4.881  13.183 -0.8395  0.0883  1.4578
  123CHL1  H21B15342   5.960   4.967  13.032 -0.8189  0.4368 -1.1257
  123CHL1  H21C15343   5.808   4.891  13.040 -0.8124 -0.5790  1.1960
  123CHL1   C2215344   5.756   5.057  13.291 -0.6613 -0.0894 -0.0994
  123CHL1  H22A15345   5.707   5.152  13.324 -1.2825 -0.5403  0.2969
  123CHL1  H22B15346   5.677   4.982  13.275 -0.4597  0.2552 -3.2973
  123CHL1   C2315347   5.837   4.995  13.412  0.0086 -0.4919  0.1072
  123CHL1  H23A15348   5.851   4.886  13.392 -2.2863 -0.9830  0.8862
  123CHL1  H23B15349   5.934   5.041  13.439 -0.9544  0.2206  2.6073
  123CHL1   C2415350   5.760   4.998  13.544 -0.4578 -0.0485  0.0166
  123CHL1  H24A15351   5.701   5.092  13.547 -0.2069  0.0761  2.4244
  123CHL1  H24B15352   5.682   4.921  13.527  0.2726 -0.2341 -3.2030
  123CHL1   C2515353   5.836   4.975  13.670  0.4939 -0.0216  0.6778
  123CHL1   H2515354   5.920   5.046  13.657 -1.1207  1.4587 -2.6931
  123CHL1   C2615355   5.738   5.013  13.782 -0.5612  0.0283 -0.3083
  123CHL1  H26A15356   5.705   5.120  13.775  0.5556  0.4426  0.5260
  123CHL1  H26B15357   5.645   4.953  13.786 -1.7797  1.8528  0.5196
  123CHL1  H26C15358   5.793   4.999  13.877 -0.8972  0.7532  0.0094
  123CHL1   C2715359   5.896   4.830  13.669  0.4585  0.0311  0.2248
  123CHL1  H27A15360   5.951   4.813  13.764  1.4024  1.5938 -0.0133
  123CHL1  H27B15361   5.815   4.754  13.660  1.6977 -1.1486 -1.3131
  123CHL1  H27C15362   5.969   4.818  13.587 -0.3284  1.1648 -0.6820
  124CHL1    C315363   4.064   5.932  12.420 -0.5534  0.1212 -0.0864
  124CHL1    H315364   4.060   5.824  12.443  0.0254  0.1660  0.2583
  124CHL1    O315365   4.068   5.954  12.280 -0.3728 -0.2699  0.1714
  124CHL1   H3'15366   4.059   6.049  12.274 -0.0792 -0.3107 -1.2478
  124CHL1    C415367   3.931   5.996  12.475 -1.7333 -0.3448 -0.1487
  124CHL1   H4A15368   3.912   6.095  12.428 -0.7990 -0.4253 -0.7178
  124CHL1   H4B15369   3.847   5.941  12.426 -0.1783 -2.9297 -0.0264
  124CHL1    C515370   3.924   5.996  12.626 -0.5377 -0.1757 -0.5851
  124CHL1    C615371   3.816   5.938  12.680 -0.0458 -0.0315  0.3028
  124CHL1    H615372   3.730   5.897  12.624 -0.7463  2.3341 -0.4691
  124CHL1    C715373   3.803   5.939  12.823 -0.7164  0.4538 -0.2878
  124CHL1   H7A15374   3.701   5.966  12.855  0.0856  1.5282  1.5438
  124CHL1   H7B15375   3.829   5.834  12.852 -0.2399  0.0528 -2.0628
  124CHL1    C815376   3.888   6.040  12.900 -0.3852 -0.0795  0.4302
  124CHL1    H815377   3.847   6.138  12.867 -0.1711 -0.2428 -0.3448
  124CHL1   C1415378   3.877   6.029  13.048 -0.5823  0.6151 -0.1131
  124CHL1   H1415379   3.932   5.934  13.068  0.3786  0.9384 -1.1177
  124CHL1   C1515380   3.744   6.026  13.121  0.0970  0.0079 -0.2403
  124CHL1  H15A15381   3.683   6.107  13.076  0.0551  0.0736 -0.0678
  124CHL1  H15B15382   3.687   5.931  13.111  0.2723 -0.1490  0.2249
  124CHL1   C1615383   3.779   6.053  13.268  0.1337  0.2109 -0.2438
  124CHL1  H16A15384   3.706   6.130  13.301 -0.6822  0.2468 -2.0137
  124CHL1  H16B15385   3.765   5.956  13.321 -0.3317  0.8217  0.8008
  124CHL1   C1715386   3.925   6.100  13.273 -0.3233  0.0973 -0.8107
  124CHL1   H1715387   3.990   6.014  13.300 -0.9245 -0.0058  0.4197
  124CHL1   C1315388   3.964   6.135  13.129  0.5039 -0.6346  0.2335
  124CHL1   C1815389   3.915   6.279  13.110  0.1915 -1.0494 -0.3073
  124CHL1  H18A15390   3.921   6.310  13.003 -1.0979 -3.8526 -1.2764
  124CHL1  H18B15391   3.809   6.284  13.142  1.2202 -1.0010  3.5649
  124CHL1  H18C15392   3.974   6.349  13.174 -0.8464 -0.8471  0.4577
  124CHL1   C1215393   4.115   6.117  13.089  0.1874  0.3009 -0.2741
  124CHL1  H12A15394   4.182   6.202  13.116  1.4361 -1.1512  1.4440
  124CHL1  H12B15395   4.167   6.028  13.130  1.1274  0.4203 -1.1743
  124CHL1   C1115396   4.134   6.119  12.934  1.6678 -0.4431  0.0254
  124CHL1  H11A15397   4.112   6.225  12.909 -1.0895 -1.1118 -0.6881
  124CHL1  H11B15398   4.239   6.102  12.904  0.5386 -0.4801 -4.6572
  124CHL1    C915399   4.037   6.031  12.855  0.0967 -0.0903  0.2696
  124CHL1    H915400   4.068   5.925  12.866  0.3573 -0.0441 -0.0033
  124CHL1   C1015401   4.046   6.056  12.694  0.1345  0.3449 -0.3965
  124CHL1   C1915402   4.060   6.211  12.674 -0.8614  0.1404  0.2956
  124CHL1  H19A15403   4.052   6.223  12.563 -0.8463 -0.8590  0.1752
  124CHL1  H19B15404   3.976   6.268  12.719 -0.7931  0.0248  0.5714
  124CHL1  H19C15405   4.159   6.249  12.704 -1.1446 -0.6667  2.4171
  124CHL1    C115406   4.170   5.987  12.640 -0.3496  0.7249 -0.7651
  124CHL1   H1A15407   4.260   6.020  12.696 -1.2033 -1.6484  2.2822
  124CHL1   H1B15408   4.165   5.879  12.664 -1.8920  0.3726 -2.4150
  124CHL1    C215409   4.184   5.991  12.490 -0.5101  0.2998 -0.1188
  124CHL1   H2A15410   4.275   5.931  12.465 -1.0368 -0.2891 -0.6905
  124CHL1   H2B15411   4.199   6.091  12.446 -0.7546 -0.2883 -1.6071
  124CHL1   C2015412   3.946   6.199  13.391 -0.3100 -0.3881 -0.0140
  124CHL1   H2015413   3.895   6.294  13.367 -0.6034 -0.1466  1.4574
  124CHL1   C2115414   4.090   6.240  13.409 -0.8568 -0.0543 -0.1182
  124CHL1  H21A15415   4.129   6.312  13.334  3.2434 -0.0050  1.7636
  124CHL1  H21B15416   4.156   6.151  13.408 -0.1428  0.4652 -1.4285
  124CHL1  H21C15417   4.105   6.297  13.504 -0.5791 -1.6112  0.7961
  124CHL1   C2215418   3.895   6.143  13.524  0.3039  0.4874 -0.3689
  124CHL1  H22A15419   3.792   6.101  13.523  1.4278 -2.6102  1.5389
  124CHL1  H22B15420   3.957   6.057  13.559 -3.2019 -2.0877  0.0596
  124CHL1   C2315421   3.902   6.252  13.629  0.5222 -0.3405 -0.2878
  124CHL1  H23A15422   4.004   6.273  13.666  0.2495  3.3874 -1.2009
  124CHL1  H23B15423   3.870   6.346  13.579  2.1469  1.1777  1.3958
  124CHL1   C2415424   3.809   6.213  13.752 -0.0589 -0.3104 -0.2413
  124CHL1  H24A15425   3.707   6.182  13.722 -0.3298  1.4812 -1.2737
  124CHL1  H24B15426   3.854   6.116  13.783  1.5855  0.0514 -1.4082
  124CHL1   C2515427   3.798   6.309  13.871  0.5654 -0.3769 -0.4221
  124CHL1   H2515428   3.902   6.343  13.893 -0.1080 -0.5763  3.9994
  124CHL1   C2615429   3.703   6.422  13.848 -0.1918  0.7546 -0.1888
  124CHL1  H26A15430   3.749   6.497  13.780 -1.9153 -0.1240 -2.4836
  124CHL1  H26B15431   3.606   6.379  13.816 -1.9315  1.1107  4.0005
  124CHL1  H26C15432   3.682   6.474  13.943  0.6029 -1.1331  1.0774
  124CHL1   C2715433   3.745   6.226  13.987 -0.2341 -0.1529 -0.0951
  124CHL1  H27A15434   3.813   6.140  14.007 -1.7537 -0.7580  2.9362
  124CHL1  H27B15435   3.732   6.286  14.080  1.6191  0.9162 -0.4663
  124CHL1  H27C15436   3.642   6.192  13.964 -0.3469  0.4635 -0.5472
  125CHL1    C315437   3.792   0.224  12.754 -0.1346 -0.5299  0.8541
  125CHL1    H315438   3.898   0.226  12.721 -0.4353  2.5143 -0.2025
  125CHL1    O315439   3.708   0.242  12.638  0.7237 -0.4977 -0.0559
  125CHL1   H3'15440   3.750   0.303  12.577  1.5786 -1.9294 -0.9477
  125CHL1    C415441   3.756   0.100  12.829 -0.5535  0.5114 -0.8890
  125CHL1   H4A15442   3.646   0.103  12.845 -0.2201  0.5644  1.9201
  125CHL1   H4B15443   3.766   0.015  12.758 -0.3734  0.2854 -0.5972
  125CHL1    C515444   3.816   0.075  12.970 -0.6341  0.6239 -0.0392
  125CHL1    C615445   3.876  -0.044  12.995 -0.1081 -0.2437 -1.0313
  125CHL1    H615446   3.882  -0.125  12.921  0.3084 -0.4613 -0.7645
  125CHL1    C715447   3.931  -0.080  13.129 -0.1440  0.6772 -0.5015
  125CHL1   H7A15448   3.883  -0.168  13.178  1.6722  0.3747  0.8445
  125CHL1   H7B15449   4.040  -0.097  13.119  0.5253 -1.2695  5.9017
  125CHL1    C815450   3.902   0.031  13.236  0.5554 -0.2442  0.2715
  125CHL1    H815451   3.797   0.016  13.269  0.3538 -0.8373 -0.6097
  125CHL1   C1415452   4.002   0.012  13.355  0.2103 -1.2805  0.5618
  125CHL1   H1415453   4.102   0.045  13.317 -0.2560  2.2759  2.1060
  125CHL1   C1515454   4.018  -0.121  13.428  0.0739 -0.2632 -0.1875
  125CHL1  H15A15455   3.921  -0.174  13.438 -0.0442 -0.0109  0.0362
  125CHL1  H15B15456   4.082  -0.182  13.361 -0.4979 -1.8504  0.6665
  125CHL1   C1615457   4.076  -0.099  13.563 -0.0871  0.3236 -0.1406
  125CHL1  H16A15458   4.021  -0.144  13.649  1.9119 -1.0640  0.4824
  125CHL1  H16B15459   4.180  -0.136  13.572  0.4405  1.5914 -0.7219
  125CHL1   C1715460   4.088   0.058  13.571  0.6696 -0.7043 -0.0853
  125CHL1   H1715461   4.185   0.088  13.526  1.0277 -2.3044 -0.4263
  125CHL1   C1315462   3.980   0.115  13.465 -0.1525  0.2895  0.0387
  125CHL1   C1815463   3.840   0.105  13.530  0.0235  0.5295 -0.4281
  125CHL1  H18A15464   3.827   0.022  13.603 -3.5892  1.6160  0.3762
  125CHL1  H18B15465   3.820   0.198  13.588  0.1945 -0.3380  1.0757
  125CHL1  H18C15466   3.760   0.095  13.453  1.8638  1.2316 -2.5083
  125CHL1   C1215467   4.004   0.258  13.408 -0.8991 -0.4999  0.1243
  125CHL1  H12A15468   4.006   0.339  13.484  3.0361  0.8952 -1.2304
  125CHL1  H12B15469   4.107   0.260  13.367 -1.7813  0.9785 -2.2406
  125CHL1   C1115470   3.915   0.290  13.290  0.6557  1.1319  0.8831
  125CHL1  H11A15471   3.811   0.294  13.330 -0.0783 -1.9970 -0.4343
  125CHL1  H11B15472   3.946   0.384  13.239  1.2599 -0.1603 -1.2755
  125CHL1    C915473   3.912   0.173  13.182 -0.0007 -0.2208 -0.0956
  125CHL1    H915474   4.016   0.180  13.142 -0.1836  0.8942 -0.4188
  125CHL1   C1015475   3.818   0.197  13.065  0.1149 -0.6658  0.2069
  125CHL1   C1915476   3.670   0.222  13.120  0.1138 -0.8709  0.0586
  125CHL1  H19A15477   3.639   0.140  13.188  0.3317  0.4772  1.8471
  125CHL1  H19B15478   3.657   0.315  13.179  2.4700 -1.5091  1.7066
  125CHL1  H19C15479   3.604   0.229  13.030  0.6721 -0.7687 -0.3476
  125CHL1    C115480   3.868   0.320  12.985  0.2350 -0.1451  0.7429
  125CHL1   H1A15481   3.857   0.412  13.046  1.2570  1.2077 -0.9914
  125CHL1   H1B15482   3.975   0.299  12.961  1.2070  0.5302  4.0226
  125CHL1    C215483   3.785   0.341  12.851 -0.7111 -0.1670 -0.0259
  125CHL1   H2A15484   3.817   0.429  12.791 -0.7237  1.0314  1.6646
  125CHL1   H2B15485   3.676   0.352  12.866 -1.1687  0.1945 -2.9298
  125CHL1   C2015486   4.091   0.112  13.714  1.4830  0.1832 -0.2848
  125CHL1   H2015487   3.984   0.127  13.739  1.1635 -1.5614 -0.4855
  125CHL1   C2115488   4.143   0.251  13.717 -0.1142 -0.4525 -0.5105
  125CHL1  H21A15489   4.097   0.317  13.641 -1.7965  0.0153  0.8334
  125CHL1  H21B15490   4.253   0.254  13.702 -0.1367  1.5495 -0.6007
  125CHL1  H21C15491   4.114   0.296  13.815  2.3515 -2.1629  1.1306
  125CHL1   C2215492   4.155   0.023  13.817  0.1346  0.3342  0.4385
  125CHL1  H22A15493   4.127  -0.085  13.815  2.2947 -0.3096  1.6882
  125CHL1  H22B15494   4.265   0.026  13.803  0.4745 -0.9397  2.5108
  125CHL1   C2315495   4.132   0.067  13.959 -0.1818 -0.7526 -0.0539
  125CHL1  H23A15496   4.166   0.172  13.964 -0.6328 -0.5767 -0.6684
  125CHL1  H23B15497   4.024   0.062  13.980 -0.4918  0.0802 -1.3307
  125CHL1   C2415498   4.197  -0.035  14.053 -0.4071  0.1771  0.5502
  125CHL1  H24A15499   4.146  -0.133  14.040 -0.0458 -0.0436  0.7780
  125CHL1  H24B15500   4.298  -0.050  14.009 -1.1904 -1.7393 -0.7393
  125CHL1   C2515501   4.202   0.010  14.204 -1.1062  0.4285  0.4971
  125CHL1   H2515502   4.268   0.099  14.215  1.4312 -1.2411 -0.3881
  125CHL1   C2615503   4.063   0.037  14.266 -0.5741 -0.3961  0.0240
  125CHL1  H26A15504   4.067   0.086  14.366 -0.6279 -0.0059 -0.1613
  125CHL1  H26B15505   4.011   0.113  14.203  0.1083  1.3182  1.4527
  125CHL1  H26C15506   4.015  -0.063  14.271  1.0211 -1.2697 -1.2607
  125CHL1   C2715507   4.260  -0.100  14.289  0.4876 -0.0386 -0.7517
  125CHL1  H27A15508   4.361  -0.136  14.259  1.2267  0.0904  1.3831
  125CHL1  H27B15509   4.265  -0.072  14.396 -0.3619 -1.1867 -0.3903
  125CHL1  H27C15510   4.190  -0.186  14.285  0.1328  0.2589 -0.9387
  126CHL1    C315511   2.245   5.677  13.312  0.5105  0.9262 -0.5967
  126CHL1    H315512   2.154   5.691  13.374 -0.8821  0.8269 -2.5411
  126CHL1    O315513   2.206   5.732  13.187 -0.3190  0.4135  0.3983
  126CHL1   H3'15514   2.289   5.733  13.138  0.7355 -3.2861  1.7744
  126CHL1    C415515   2.369   5.756  13.370  0.8082 -0.3218  0.3408
  126CHL1   H4A15516   2.447   5.746  13.291  1.7001  0.6547  1.0704
  126CHL1   H4B15517   2.350   5.865  13.382 -0.0459 -0.3329 -0.7470
  126CHL1    C515518   2.419   5.702  13.500  0.2281  0.6764  1.1169
  126CHL1    C615519   2.431   5.778  13.607  0.1656 -0.4492  0.1833
  126CHL1    H615520   2.409   5.885  13.598  0.3344 -0.3349  1.0180
  126CHL1    C715521   2.478   5.732  13.743 -0.5260 -0.2682  0.2620
  126CHL1   H7A15522   2.551   5.809  13.776 -1.6644  1.1590 -0.4347
  126CHL1   H7B15523   2.399   5.734  13.822 -0.8051 -0.4813 -0.0090
  126CHL1    C815524   2.537   5.585  13.724 -0.2606 -0.9914 -0.9752
  126CHL1    H815525   2.640   5.598  13.685 -0.5393  0.9098 -1.2107
  126CHL1   C1415526   2.558   5.533  13.864 -0.1075  0.5371 -0.8858
  126CHL1   H1415527   2.459   5.513  13.912  0.7806 -0.0112  0.8165
  126CHL1   C1515528   2.631   5.626  13.964 -0.1057  0.3953  0.1836
  126CHL1  H15A15529   2.720   5.665  13.910  0.3505 -0.7642  0.0770
  126CHL1  H15B15530   2.575   5.712  14.007  0.0139  0.0016  1.1476
  126CHL1   C1615531   2.671   5.530  14.080 -0.0775 -0.2969 -0.0462
  126CHL1  H16A15532   2.778   5.552  14.102 -0.1169  0.6537 -0.7356
  126CHL1  H16B15533   2.604   5.553  14.166  1.1342 -1.0548  1.1491
  126CHL1   C1715534   2.639   5.387  14.030 -0.0620  0.1796 -0.6063
  126CHL1   H1715535   2.537   5.377  14.073  1.2878  0.0909  2.9892
  126CHL1   C1315536   2.630   5.398  13.869  0.0318  0.6186  0.3201
  126CHL1   C1815537   2.772   5.403  13.811 -0.4335 -0.0366  0.2237
  126CHL1  H18A15538   2.814   5.301  13.794 -1.9199 -0.4609 -1.1789
  126CHL1  H18B15539   2.784   5.451  13.712  0.1139 -1.1507 -0.2607
  126CHL1  H18C15540   2.835   5.463  13.880  1.7322 -0.7583 -1.0537
  126CHL1   C1215541   2.539   5.295  13.787 -0.3582 -0.5050 -0.2626
  126CHL1  H12A15542   2.582   5.193  13.781 -0.8430 -0.8057  1.0155
  126CHL1  H12B15543   2.445   5.290  13.846 -1.8433  2.1538 -2.1531
  126CHL1   C1115544   2.512   5.352  13.646 -0.7633 -0.1321 -0.2605
  126CHL1  H11A15545   2.612   5.339  13.599 -0.8459 -1.7656 -0.0559
  126CHL1  H11B15546   2.439   5.286  13.594 -1.1664  1.3517 -1.6286
  126CHL1    C915547   2.452   5.492  13.639  0.4448 -0.2764 -0.1503
  126CHL1    H915548   2.352   5.486  13.687  0.2610 -0.2314 -0.5201
  126CHL1   C1015549   2.438   5.544  13.499 -0.9652  0.5317 -0.2966
  126CHL1   C1915550   2.559   5.513  13.413 -1.0342  0.2161 -0.0495
  126CHL1  H19A15551   2.655   5.544  13.461  0.5162 -1.5843 -1.7959
  126CHL1  H19B15552   2.565   5.404  13.396 -1.0039 -0.0571  1.5454
  126CHL1  H19C15553   2.561   5.566  13.315  0.2256  1.3656  0.5594
  126CHL1    C115554   2.310   5.477  13.434 -0.2341  0.2537 -0.3816
  126CHL1   H1A15555   2.332   5.368  13.422 -0.5451  0.3216 -1.6691
  126CHL1   H1B15556   2.227   5.488  13.507  3.1144  2.1243  3.5425
  126CHL1    C215557   2.273   5.534  13.293  0.0263  0.3309 -0.3526
  126CHL1   H2A15558   2.185   5.485  13.246  0.2697  1.1432 -1.7381
  126CHL1   H2B15559   2.360   5.504  13.230  0.0606  0.3480 -0.3132
  126CHL1   C2015560   2.725   5.282  14.098 -0.0066 -0.2835  0.5647
  126CHL1   H2015561   2.827   5.299  14.059 -0.8971 -0.7528 -2.1548
  126CHL1   C2115562   2.678   5.142  14.053  0.4724  0.2830 -0.1865
  126CHL1  H21A15563   2.572   5.131  14.085  0.4424 -4.8724 -1.2018
  126CHL1  H21B15564   2.737   5.066  14.108 -1.3491 -0.6799  0.5096
  126CHL1  H21C15565   2.695   5.130  13.944  0.2836 -0.5246 -0.1309
  126CHL1   C2215566   2.741   5.285  14.249 -0.2300 -0.1904 -0.6446
  126CHL1  H22A15567   2.783   5.185  14.274 -0.8177  0.0886  1.6763
  126CHL1  H22B15568   2.810   5.358  14.296  0.2940 -1.2510  0.2977
  126CHL1   C2315569   2.608   5.295  14.340  0.1375 -0.2778  0.8866
  126CHL1  H23A15570   2.547   5.365  14.278  1.8253  0.7575  0.3301
  126CHL1  H23B15571   2.548   5.202  14.336  0.4152 -0.4739  1.2962
  126CHL1   C2415572   2.620   5.357  14.477 -0.3640 -1.1597 -0.4309
  126CHL1  H24A15573   2.697   5.289  14.520 -0.7548 -2.2254 -1.3626
  126CHL1  H24B15574   2.671   5.455  14.469  0.6504 -1.5515  0.8425
  126CHL1   C2515575   2.496   5.356  14.556  0.2039  0.5023 -0.1685
  126CHL1   H2515576   2.476   5.249  14.580  0.1355  0.8151  1.2558
  126CHL1   C2615577   2.514   5.428  14.692 -0.1008  0.2834 -0.1663
  126CHL1  H26A15578   2.482   5.535  14.686  1.7186  0.8977  0.4603
  126CHL1  H26B15579   2.462   5.385  14.780  0.5976  4.3145  2.4798
  126CHL1  H26C15580   2.620   5.423  14.724 -0.0332  2.9482  0.3059
  126CHL1   C2715581   2.377   5.417  14.485  0.3794  0.5218 -0.0869
  126CHL1  H27A15582   2.294   5.446  14.553  1.4663 -0.4480  1.7119
  126CHL1  H27B15583   2.411   5.497  14.416 -1.1719  1.5837  0.3066
  126CHL1  H27C15584   2.325   5.348  14.415 -0.4016  1.6675 -0.6828
  127CHL1    C315585   2.936   0.706  12.874 -0.7333 -0.8332 -0.3737
  127CHL1    H315586   2.937   0.804  12.926 -1.4634 -2.0665  2.0936
  127CHL1    O315587   2.975   0.720  12.740 -0.0377  0.9599 -0.1832
  127CHL1   H3'15588   3.009   0.633  12.719 -1.4705  0.4018 -0.2478
  127CHL1    C415589   3.039   0.617  12.942 -0.0555 -0.1580 -1.0457
  127CHL1   H4A15590   3.035   0.516  12.896  2.3610 -0.7812 -0.0283
  127CHL1   H4B15591   3.142   0.654  12.926  0.7645 -2.5741 -1.7025
  127CHL1    C515592   3.006   0.600  13.089  0.1726 -0.6278  0.2384
  127CHL1    C615593   3.098   0.629  13.184 -0.0715  0.0173 -0.1352
  127CHL1    H615594   3.193   0.677  13.158  0.4302 -0.0353  1.4769
  127CHL1    C715595   3.069   0.607  13.333  0.3835  0.4043  0.1012
  127CHL1   H7A15596   3.160   0.559  13.373  1.5564 -0.9410 -3.7247
  127CHL1   H7B15597   3.043   0.709  13.369  0.9385  1.4370 -2.2360
  127CHL1    C815598   2.948   0.519  13.360  0.7848 -0.0422  0.7974
  127CHL1    H815599   2.974   0.411  13.348 -1.0206 -0.8324  3.1756
  127CHL1   C1415600   2.913   0.540  13.504 -0.4910  1.0321  0.5801
  127CHL1   H1415601   2.869   0.641  13.519  0.0920  1.1536  1.5580
  127CHL1   C1515602   3.026   0.525  13.608  0.0660  0.7534 -0.3531
  127CHL1  H15A15603   3.084   0.441  13.566 -1.1072 -0.7933  0.9746
  127CHL1  H15B15604   3.082   0.619  13.628  1.5756 -0.4124  1.2281
  127CHL1   C1615605   2.955   0.489  13.738  0.1087 -0.1380 -0.0384
  127CHL1  H16A15606   2.999   0.389  13.758 -0.0095  0.0494  1.2019
  127CHL1  H16B15607   2.979   0.562  13.817  0.5873  0.3954 -0.6614
  127CHL1   C1715608   2.802   0.481  13.705  0.4130  0.1467  0.8282
  127CHL1   H1715609   2.756   0.581  13.708 -0.0537  0.0022 -0.6401
  127CHL1   C1315610   2.798   0.453  13.555  0.2656 -0.0440  0.4979
  127CHL1   C1815611   2.821   0.302  13.530 -0.1838  0.1766 -0.2628
  127CHL1  H18A15612   2.736   0.246  13.577 -0.8317  0.9035 -0.5392
  127CHL1  H18B15613   2.836   0.282  13.422  0.1276  0.2505 -0.2345
  127CHL1  H18C15614   2.914   0.269  13.580 -0.9292 -1.1651  0.2860
  127CHL1   C1215615   2.672   0.499  13.471  0.4909 -0.4714  0.2437
  127CHL1  H12A15616   2.582   0.438  13.493  0.0424  0.0527 -0.1155
  127CHL1  H12B15617   2.652   0.605  13.497  1.5926 -0.1160 -0.3182
  127CHL1   C1115618   2.695   0.490  13.315  0.1896 -0.4853  0.2249
  127CHL1  H11A15619   2.691   0.385  13.279  2.4137 -0.3700 -0.5064
  127CHL1  H11B15620   2.616   0.549  13.264  1.4873  1.1645  0.0468
  127CHL1    C915621   2.827   0.564  13.271  0.2189  0.6212 -0.2567
  127CHL1    H915622   2.818   0.672  13.297 -0.0911  0.1473  1.7015
  127CHL1   C1015623   2.865   0.548  13.117 -0.5161  1.1843  0.1960
  127CHL1   C1915624   2.860   0.395  13.068 -0.3200  0.4258  0.4884
  127CHL1  H19A15625   2.934   0.337  13.128  0.7920 -1.6146 -2.6424
  127CHL1  H19B15626   2.757   0.355  13.077  0.0328 -0.1970  2.2144
  127CHL1  H19C15627   2.878   0.381  12.960 -1.7040 -0.2481  0.3192
  127CHL1    C115628   2.762   0.628  13.023  0.2151  0.1324 -0.5923
  127CHL1   H1A15629   2.657   0.600  13.044  0.2961 -0.5804 -1.0969
  127CHL1   H1B15630   2.758   0.732  13.061 -0.5971 -0.7009  1.8221
  127CHL1    C215631   2.801   0.647  12.878  0.5450  0.2614 -0.2707
  127CHL1   H2A15632   2.732   0.723  12.835  0.9485  0.3114 -0.8468
  127CHL1   H2B15633   2.792   0.559  12.810  0.9656  0.4484 -0.5742
  127CHL1   C2015634   2.725   0.397  13.809  0.4172 -0.0912  0.3909
  127CHL1   H2015635   2.754   0.291  13.797 -1.7308 -0.5990 -0.9458
  127CHL1   C2115636   2.577   0.404  13.768  0.5666  0.2566  0.6182
  127CHL1  H21A15637   2.556   0.513  13.757  0.5199  0.0745 -1.3354
  127CHL1  H21B15638   2.512   0.351  13.841  0.2014 -2.0092 -1.2431
  127CHL1  H21C15639   2.551   0.350  13.675 -3.0047  1.0575  0.9830
  127CHL1   C2215640   2.737   0.454  13.954  0.8279 -0.1236 -0.4855
  127CHL1  H22A15641   2.845   0.465  13.980  0.5001  0.5226  0.6350
  127CHL1  H22B15642   2.699   0.558  13.954 -0.8258 -0.6971  0.3633
  127CHL1   C2315643   2.672   0.372  14.074 -0.5927 -0.8770  0.1579
  127CHL1  H23A15644   2.574   0.329  14.044 -0.3143 -1.1764 -0.3244
  127CHL1  H23B15645   2.733   0.280  14.087  0.0194 -0.4553  0.2881
  127CHL1   C2415646   2.673   0.454  14.200  0.8543 -0.4153  0.0911
  127CHL1  H24A15647   2.775   0.490  14.227  0.4110  0.2321  0.9516
  127CHL1  H24B15648   2.615   0.548  14.205  1.6038 -0.0394  2.6863
  127CHL1   C2515649   2.626   0.384  14.329  0.1380  0.4047  0.0963
  127CHL1   H2515650   2.523   0.348  14.309  0.4212 -0.0099 -0.6323
  127CHL1   C2615651   2.723   0.265  14.357 -0.3929 -0.3616 -0.0177
  127CHL1  H26A15652   2.723   0.208  14.262 -3.9359 -0.3247 -0.1660
  127CHL1  H26B15653   2.822   0.307  14.384 -0.7529 -0.5084  1.6613
  127CHL1  H26C15654   2.696   0.216  14.453 -0.5402  2.5076  1.5126
  127CHL1   C2715655   2.614   0.482  14.449 -0.1055 -0.0325 -0.1825
  127CHL1  H27A15656   2.713   0.532  14.460 -0.9162  1.8342 -0.8567
  127CHL1  H27B15657   2.542   0.564  14.428 -0.4679  0.3024  2.1225
  127CHL1  H27C15658   2.577   0.437  14.543  0.3906 -0.9403 -0.4152
  128CHL1    C315659   4.102   2.242  12.753  0.5888  0.6807  0.2338
  128CHL1    H315660   4.122   2.134  12.766 -0.1652  0.0630 -2.8623
  128CHL1    O315661   4.069   2.260  12.619 -0.5641 -0.1969 -0.0731
  128CHL1   H3'15662   4.030   2.347  12.605 -1.4692 -0.5888 -0.0380
  128CHL1    C415663   3.981   2.278  12.841  0.2429 -0.2142  0.7764
  128CHL1   H4A15664   3.953   2.385  12.833  3.0010  0.4980 -0.7634
  128CHL1   H4B15665   3.895   2.219  12.802  2.5562 -2.3344 -1.4870
  128CHL1    C515666   4.021   2.244  12.985 -0.0667 -0.1572  0.2989
  128CHL1    C615667   3.945   2.164  13.063  0.1569  0.1628 -0.7615
  128CHL1    H615668   3.849   2.127  13.025  0.1934 -1.7803  0.8709
  128CHL1    C715669   3.976   2.126  13.203 -0.3839 -0.1213 -0.1290
  128CHL1   H7A15670   3.884   2.129  13.265  0.5596 -0.1884  1.3055
  128CHL1   H7B15671   4.033   2.031  13.199 -0.2590 -0.0117 -1.2289
  128CHL1    C815672   4.073   2.228  13.273  0.4871  0.4058 -0.2675
  128CHL1    H815673   4.013   2.320  13.289 -0.5140 -0.5478  1.8691
  128CHL1   C1415674   4.123   2.173  13.409  0.2725  0.3250  0.0330
  128CHL1   H1415675   4.188   2.085  13.386  1.1164  1.5456 -2.6766
  128CHL1   C1515676   4.018   2.127  13.514 -0.1554 -0.3490  0.3738
  128CHL1  H15A15677   3.928   2.192  13.504  0.8096  0.9838  0.0456
  128CHL1  H15B15678   3.984   2.023  13.496 -0.2984 -0.2173 -0.1548
  128CHL1   C1615679   4.088   2.150  13.656  0.3213  0.1443 -0.2688
  128CHL1  H16A15680   4.030   2.234  13.700  0.6571  0.7052 -0.8864
  128CHL1  H16B15681   4.090   2.062  13.725  0.4333 -0.1705 -0.6722
  128CHL1   C1715682   4.236   2.195  13.618 -0.2654  0.3701 -0.1759
  128CHL1   H1715683   4.294   2.107  13.584  2.1825  1.2825  1.3855
  128CHL1   C1315684   4.221   2.273  13.484  0.4175 -0.5412  0.3679
  128CHL1   C1815685   4.165   2.419  13.515  0.2896  0.2033  0.2326
  128CHL1  H18A15686   4.245   2.482  13.559  0.2357 -0.0543  0.7093
  128CHL1  H18B15687   4.151   2.483  13.425  2.8834 -0.6570 -0.8911
  128CHL1  H18C15688   4.083   2.419  13.590  0.3841 -0.0308  0.3367
  128CHL1   C1215689   4.340   2.293  13.393 -0.2296 -0.0265  0.6325
  128CHL1  H12A15690   4.405   2.371  13.438 -0.6873  0.0344  1.1862
  128CHL1  H12B15691   4.393   2.196  13.389 -0.0065 -0.0423  2.7592
  128CHL1   C1115692   4.301   2.344  13.249  0.0527 -0.2833 -0.1833
  128CHL1  H11A15693   4.260   2.447  13.258 -2.2135 -1.0374 -1.1926
  128CHL1  H11B15694   4.402   2.361  13.205  1.3216  2.1844  3.2017
  128CHL1    C915695   4.201   2.259  13.175  0.2284  0.0091 -1.5760
  128CHL1    H915696   4.245   2.158  13.160 -1.4220 -1.1398  0.7136
  128CHL1   C1015697   4.146   2.322  13.043  0.2881  0.6896 -0.1084
  128CHL1   C1915698   4.110   2.474  13.057  0.5036  0.0326 -0.3454
  128CHL1  H19A15699   4.189   2.535  13.106 -1.9137  0.8173  2.9170
  128CHL1  H19B15700   4.074   2.516  12.961 -3.5757 -1.5889  0.2839
  128CHL1  H19C15701   4.014   2.484  13.113 -0.0615 -0.5493 -1.1885
  128CHL1    C115702   4.261   2.307  12.936  0.0202  0.2785  0.1388
  128CHL1   H1A15703   4.332   2.391  12.956 -1.4620  2.0283 -1.5383
  128CHL1   H1B15704   4.303   2.205  12.947 -2.0563 -0.6016  0.3574
  128CHL1    C215705   4.223   2.319  12.791 -0.5692 -0.2961 -0.3452
  128CHL1   H2A15706   4.309   2.273  12.737  0.4478 -0.5308  1.4223
  128CHL1   H2B15707   4.216   2.423  12.751  0.4153 -0.0092  0.2066
  128CHL1   C2015708   4.310   2.256  13.735  0.4718  0.8495 -0.7610
  128CHL1   H2015709   4.271   2.358  13.757 -0.6131  0.3011 -0.0907
  128CHL1   C2115710   4.459   2.265  13.706 -0.5727 -0.7167  0.5464
  128CHL1  H21A15711   4.512   2.172  13.677  0.9948 -0.1909  1.6422
  128CHL1  H21B15712   4.521   2.305  13.789  0.3972 -0.7126 -0.1653
  128CHL1  H21C15713   4.466   2.344  13.628 -0.5664 -0.7016  0.5628
  128CHL1   C2215714   4.291   2.179  13.868 -0.2329  0.3392 -0.1878
  128CHL1  H22A15715   4.183   2.175  13.893 -0.0241  0.3633  0.7266
  128CHL1  H22B15716   4.340   2.080  13.852  1.1332  0.8687  0.5994
  128CHL1   C2315717   4.353   2.244  13.991  0.6488 -0.9379 -0.5727
  128CHL1  H23A15718   4.463   2.250  13.981  0.4854 -0.5742 -2.7024
  128CHL1  H23B15719   4.311   2.346  14.008 -2.9571 -2.4501  0.5851
  128CHL1   C2415720   4.319   2.166  14.118  0.8979 -0.2548  0.7666
  128CHL1  H24A15721   4.211   2.138  14.115  0.8476 -0.0630  0.7923
  128CHL1  H24B15722   4.375   2.071  14.126 -1.6599 -1.8457  0.8008
  128CHL1   C2515723   4.346   2.240  14.256 -0.1218  0.0419  0.0841
  128CHL1   H2515724   4.291   2.190  14.339  0.6108  1.3938  1.4432
  128CHL1   C2615725   4.495   2.226  14.301 -0.2291 -0.2906  0.1459
  128CHL1  H26A15726   4.512   2.275  14.399  1.7321 -1.1138  0.2466
  128CHL1  H26B15727   4.519   2.120  14.319  1.4338  0.2654  1.4961
  128CHL1  H26C15728   4.555   2.285  14.228  2.3572 -0.9791  1.5850
  128CHL1   C2715729   4.297   2.387  14.271 -1.0111  0.4146  0.4159
  128CHL1  H27A15730   4.186   2.387  14.270 -1.0141  0.0245 -0.5895
  128CHL1  H27B15731   4.333   2.435  14.364 -1.5812 -0.3801  1.0609
  128CHL1  H27C15732   4.338   2.445  14.185 -0.4927 -2.8633 -1.7632
  129CHL1    C315733   4.694   0.021  12.362 -0.4250  0.2943  0.1156
  129CHL1    H315734   4.806   0.019  12.361 -0.3975  0.7808  0.9904
  129CHL1    O315735   4.640  -0.010  12.235  0.3953 -0.1917 -0.0841
  129CHL1   H3'15736   4.618   0.079  12.206  2.4992  1.1231  1.9845
  129CHL1    C415737   4.641  -0.087  12.463 -0.1462 -0.3888  0.8293
  129CHL1   H4A15738   4.532  -0.064  12.470  0.4367  2.5422  1.4210
  129CHL1   H4B15739   4.651  -0.189  12.420 -0.3958  0.6330 -1.7971
  129CHL1    C515740   4.708  -0.068  12.599  0.1013 -0.0458 -0.1507
  129CHL1    C615741   4.781  -0.164  12.648  0.2008  0.0059  0.8169
  129CHL1    H615742   4.788  -0.254  12.584  0.4174 -0.8002  1.9510
  129CHL1    C715743   4.846  -0.165  12.782 -0.2932  0.3149  1.0978
  129CHL1   H7A15744   4.848  -0.252  12.850  0.1508  0.7738  1.6827
  129CHL1   H7B15745   4.950  -0.144  12.749  0.5296 -0.9983  2.7405
  129CHL1    C815746   4.806  -0.040  12.865 -0.2978 -0.4141  0.4745
  129CHL1    H815747   4.705  -0.055  12.909 -0.6957  0.9249  0.0595
  129CHL1   C1415748   4.906  -0.012  12.978 -0.1447 -0.0536  0.7253
  129CHL1   H1415749   5.003   0.013  12.930 -1.2813  2.4279 -0.4561
  129CHL1   C1515750   4.954  -0.128  13.071  0.9090  0.4198  0.2216
  129CHL1  H15A15751   4.869  -0.197  13.089  0.0663  1.3146 -0.2359
  129CHL1  H15B15752   5.044  -0.182  13.035 -0.7356 -3.6504  1.6011
  129CHL1   C1615753   4.993  -0.060  13.201 -0.0187 -0.0105  0.2562
  129CHL1  H16A15754   4.919  -0.092  13.277 -0.4728 -2.3375 -1.0473
  129CHL1  H16B15755   5.097  -0.079  13.235 -0.7532 -1.2369  1.9341
  129CHL1   C1715756   4.973   0.098  13.172 -0.2509  0.4808 -0.4557
  129CHL1   H1715757   5.076   0.121  13.136  0.6944 -1.7179  0.6774
  129CHL1   C1315758   4.874   0.108  13.064  0.9611 -0.5982  0.3936
  129CHL1   C1815759   4.728   0.099  13.124  0.4805  0.8791 -0.0766
  129CHL1  H18A15760   4.664   0.079  13.036  1.4039 -1.0809 -0.3588
  129CHL1  H18B15761   4.725   0.010  13.192  1.8305 -1.6783 -3.1220
  129CHL1  H18C15762   4.705   0.198  13.169  2.1541  1.8718 -1.2827
  129CHL1   C1215763   4.892   0.237  12.970 -0.4605  0.1233  0.4216
  129CHL1  H12A15764   4.875   0.336  13.018 -0.3701 -0.4152  1.5964
  129CHL1  H12B15765   4.998   0.241  12.937 -0.7765 -0.3219 -0.7036
  129CHL1   C1115766   4.799   0.225  12.846  0.4214  0.1048  0.3633
  129CHL1  H11A15767   4.695   0.255  12.868 -0.1269 -0.0929 -1.6971
  129CHL1  H11B15768   4.830   0.310  12.782 -0.0126  1.6479  2.1260
  129CHL1    C915769   4.797   0.085  12.773  1.0897 -0.1792 -0.4849
  129CHL1    H915770   4.896   0.082  12.722  0.2777 -0.0374 -2.1207
  129CHL1   C1015771   4.690   0.076  12.665 -0.0287  0.3283 -0.0156
  129CHL1   C1915772   4.544   0.097  12.713  0.1762 -0.6551  0.2583
  129CHL1  H19A15773   4.539   0.039  12.807  1.2391  0.6453  1.1632
  129CHL1  H19B15774   4.517   0.203  12.733 -1.3188 -1.4316  2.8251
  129CHL1  H19C15775   4.479   0.054  12.634 -0.0966  1.5448 -0.8078
  129CHL1    C115776   4.721   0.182  12.558  0.4272 -0.3136  0.3756
  129CHL1   H1A15777   4.692   0.281  12.601  2.0883  0.2540  0.2395
  129CHL1   H1B15778   4.831   0.194  12.555  0.1685  3.6430  0.9953
  129CHL1    C215779   4.664   0.167  12.425 -0.4292 -0.1621  0.1941
  129CHL1   H2A15780   4.713   0.236  12.352  0.4743  1.4355  2.1788
  129CHL1   H2B15781   4.556   0.189  12.415  0.0530  2.1691 -0.6456
  129CHL1   C2015782   4.955   0.183  13.308 -0.3477  0.3002  0.2479
  129CHL1   H2015783   4.851   0.179  13.348 -1.1172 -0.4004 -1.6647
  129CHL1   C2115784   4.974   0.335  13.281 -0.1334  1.0268  0.5521
  129CHL1  H21A15785   5.069   0.356  13.227 -0.4037  2.2977  0.5365
  129CHL1  H21B15786   4.984   0.396  13.374  1.6115  3.1779 -0.9560
  129CHL1  H21C15787   4.893   0.386  13.225 -0.6081 -1.1398 -0.8670
  129CHL1   C2215788   5.041   0.127  13.432 -0.4002 -1.2634  0.7852
  129CHL1  H22A15789   5.021   0.020  13.454 -2.2159 -1.3370 -0.9148
  129CHL1  H22B15790   5.148   0.144  13.407 -0.6845  0.5927  0.6585
  129CHL1   C2315791   5.015   0.205  13.561  0.4773 -0.4802 -0.0722
  129CHL1  H23A15792   5.084   0.291  13.552 -1.4815  0.9933 -2.3340
  129CHL1  H23B15793   4.910   0.241  13.561  0.8240  1.1463  4.6624
  129CHL1   C2415794   5.039   0.132  13.695  0.4834 -0.1286  0.9088
  129CHL1  H24A15795   4.968   0.046  13.693 -2.5903  2.2092  0.7748
  129CHL1  H24B15796   5.141   0.090  13.688  0.7278  0.6737 -1.6119
  129CHL1   C2515797   5.017   0.224  13.819  0.3158  0.1035  0.4529
  129CHL1   H2515798   4.908   0.246  13.822  0.4048  0.6531 -0.1437
  129CHL1   C2615799   5.046   0.146  13.953  0.2931 -0.2848 -0.7604
  129CHL1  H26A15800   5.011   0.204  14.041 -1.9640  0.5192 -2.1042
  129CHL1  H26B15801   5.009   0.043  13.939 -2.6922  0.2352  2.2172
  129CHL1  H26C15802   5.156   0.127  13.955  0.2020 -0.9060 -1.3805
  129CHL1   C2715803   5.092   0.358  13.813 -0.5013 -0.0993  0.3509
  129CHL1  H27A15804   5.072   0.419  13.723 -0.5948 -1.2009 -0.4009
  129CHL1  H27B15805   5.076   0.415  13.907  1.9280  0.2066  0.6387
  129CHL1  H27C15806   5.200   0.341  13.796 -0.6579 -0.2512 -0.5576
  130CHL1    C315807   2.864   1.205  13.157 -0.0522  0.3705  0.2362
  130CHL1    H315808   2.941   1.282  13.180 -1.6004  2.3456 -0.8492
  130CHL1    O315809   2.836   1.224  13.021  0.6471  0.1529 -0.2262
  130CHL1   H3'15810   2.745   1.197  13.007  0.3899  0.0391  1.4748
  130CHL1    C415811   2.910   1.061  13.185 -0.1950 -0.1873  0.2820
  130CHL1   H4A15812   2.840   0.985  13.143  1.1828 -0.2972 -1.9266
  130CHL1   H4B15813   3.004   1.050  13.128  0.9388 -2.1017  2.3387
  130CHL1    C515814   2.930   1.038  13.337  0.2263  0.1384 -0.3809
  130CHL1    C615815   3.046   0.990  13.380  0.3973  0.5454  0.1545
  130CHL1    H615816   3.124   0.959  13.308  0.1320  1.6789 -0.6578
  130CHL1    C715817   3.070   0.960  13.522  0.0958  0.2579  1.2892
  130CHL1   H7A15818   3.121   0.862  13.533  1.4298  1.0009  2.0150
  130CHL1   H7B15819   3.147   1.032  13.557  0.4168  0.3508  0.4366
  130CHL1    C815820   2.943   0.957  13.615  0.5546  0.1725 -0.0707
  130CHL1    H815821   2.884   0.866  13.589  1.7935 -0.5478 -0.4725
  130CHL1   C1415822   2.973   0.967  13.762  0.6969 -0.2950 -0.1716
  130CHL1   H1415823   3.008   1.072  13.769 -1.1498  0.3573 -0.1895
  130CHL1   C1515824   3.076   0.864  13.818  0.0377  0.1861 -1.0528
  130CHL1  H15A15825   3.041   0.763  13.788  0.8657 -0.5793  0.4422
  130CHL1  H15B15826   3.182   0.885  13.793 -0.1967  0.0764 -2.1962
  130CHL1   C1615827   3.050   0.883  13.977 -0.1861 -0.0081  0.6414
  130CHL1  H16A15828   3.035   0.784  14.025  0.3766  0.0093  0.8629
  130CHL1  H16B15829   3.136   0.939  14.020 -0.9333  1.8084 -0.1554
  130CHL1   C1715830   2.921   0.967  13.993 -0.2244 -0.0374  0.6533
  130CHL1   H1715831   2.942   1.074  14.016  0.2595  0.0861 -0.3092
  130CHL1   C1315832   2.847   0.959  13.855 -0.3249  0.1589 -0.6402
  130CHL1   C1815833   2.775   0.827  13.836 -0.0458  0.0553 -0.2938
  130CHL1  H18A15834   2.677   0.838  13.888  0.1394  0.1004  0.0529
  130CHL1  H18B15835   2.753   0.801  13.731 -1.7419 -0.6412  0.1917
  130CHL1  H18C15836   2.831   0.743  13.883 -0.3656 -1.5860 -2.6613
  130CHL1   C1215837   2.757   1.075  13.817  0.1582 -0.2979 -0.3345
  130CHL1  H12A15838   2.654   1.067  13.856 -1.3767  3.3408 -3.0125
  130CHL1  H12B15839   2.799   1.175  13.844  1.1315 -0.6607 -0.4537
  130CHL1   C1115840   2.730   1.078  13.667 -0.0614  0.0531  0.6543
  130CHL1  H11A15841   2.667   0.989  13.650  0.1858 -0.0349  0.1988
  130CHL1  H11B15842   2.670   1.168  13.639  0.1082 -0.3418 -1.0537
  130CHL1    C915843   2.853   1.078  13.576 -0.5870 -0.6117 -0.1960
  130CHL1    H915844   2.910   1.171  13.598 -0.8293 -0.4076 -0.4318
  130CHL1   C1015845   2.819   1.081  13.429  0.2685  0.2527  0.3517
  130CHL1   C1915846   2.692   0.985  13.400  0.0787 -0.3280 -0.0094
  130CHL1  H19A15847   2.708   0.884  13.444  0.7600  0.3785  1.4568
  130CHL1  H19B15848   2.604   1.028  13.452  1.1878  0.0167  1.7036
  130CHL1  H19C15849   2.668   0.972  13.293 -1.4734 -1.3808  0.4462
  130CHL1    C115850   2.773   1.221  13.390  0.5370 -0.2014  1.2948
  130CHL1   H1A15851   2.682   1.243  13.449  0.6106  0.2373  1.2497
  130CHL1   H1B15852   2.849   1.296  13.420 -0.5655  0.0156  3.7809
  130CHL1    C215853   2.739   1.243  13.237 -0.1072  0.3629  0.6462
  130CHL1   H2A15854   2.707   1.349  13.225 -1.2354  0.1888  1.9399
  130CHL1   H2B15855   2.665   1.175  13.190  1.2211 -0.4250 -0.3591
  130CHL1   C2015856   2.848   0.930  14.121 -0.3758  0.0661  0.7626
  130CHL1   H2015857   2.810   0.826  14.112 -1.0328  0.4167 -0.9554
  130CHL1   C2115858   2.722   1.016  14.130  0.4247  0.3464 -0.0454
  130CHL1  H21A15859   2.748   1.124  14.125 -0.4116  0.7434  2.4837
  130CHL1  H21B15860   2.682   1.008  14.233 -2.3861 -1.8943 -1.1790
  130CHL1  H21C15861   2.646   0.971  14.062 -1.6316 -0.2193  2.4741
  130CHL1   C2215862   2.940   0.945  14.238 -0.5153  0.3146  0.2944
  130CHL1  H22A15863   3.042   0.909  14.213 -0.9119 -0.0218 -0.9012
  130CHL1  H22B15864   2.942   1.056  14.252 -0.2000  0.1093  2.0780
  130CHL1   C2315865   2.900   0.876  14.367  0.5296 -0.0316 -0.4545
  130CHL1  H23A15866   2.798   0.901  14.403  0.5273 -0.2538 -0.3092
  130CHL1  H23B15867   2.891   0.768  14.343  2.5439 -0.0090 -1.5277
  130CHL1   C2415868   3.003   0.909  14.475  0.2944  0.4737  0.3392
  130CHL1  H24A15869   3.103   0.880  14.436 -0.2719 -0.9694 -0.1043
  130CHL1  H24B15870   3.009   1.018  14.495 -1.0667  0.3336  1.6623
  130CHL1   C2515871   2.972   0.831  14.606  0.7144 -0.0660  0.2298
  130CHL1   H2515872   2.864   0.810  14.621  0.9437 -0.9772  0.6754
  130CHL1   C2615873   3.026   0.687  14.593 -0.0672  0.1711 -0.5240
  130CHL1  H26A15874   3.017   0.630  14.688 -0.6105  1.4179  0.2051
  130CHL1  H26B15875   2.964   0.625  14.526 -0.6270 -0.9681  0.9861
  130CHL1  H26C15876   3.135   0.692  14.574  0.1558 -1.1567  0.2859
  130CHL1   C2715877   3.025   0.904  14.729  0.0304  0.1022  0.5715
  130CHL1  H27A15878   2.974   1.001  14.742 -2.0514 -0.1993 -3.5777
  130CHL1  H27B15879   2.995   0.837  14.813  1.0832 -1.2921 -0.1155
  130CHL1  H27C15880   3.134   0.924  14.718 -0.4702  2.8958 -0.0007
  131CHL1    C315881   1.317   6.205  12.758  0.0764  0.1143 -0.3298
  131CHL1    H315882   1.312   6.094  12.750 -1.4418  0.1743 -0.6270
  131CHL1    O315883   1.303   6.266  12.627  0.2067  0.1802 -0.4402
  131CHL1   H3'15884   1.386   6.312  12.611 -0.2176  0.2021 -3.0401
  131CHL1    C415885   1.203   6.264  12.852  0.6105  0.4946  0.2311
  131CHL1   H4A15886   1.213   6.373  12.835  1.6013  0.1927 -1.2230
  131CHL1   H4B15887   1.107   6.226  12.811  1.2519 -2.2042  0.9872
  131CHL1    C515888   1.229   6.218  12.999 -0.0267 -0.4741  1.0634
  131CHL1    C615889   1.136   6.148  13.063 -0.4601 -0.1767  1.2248
  131CHL1    H615890   1.044   6.122  13.007  0.6779  1.4928 -1.6454
  131CHL1    C715891   1.143   6.114  13.204 -0.6979  1.0005  0.0349
  131CHL1   H7A15892   1.045   6.137  13.250 -1.3150  0.4570 -0.9511
  131CHL1   H7B15893   1.160   6.005  13.218  0.9124  0.9603 -1.7961
  131CHL1    C815894   1.255   6.183  13.288 -0.0633 -0.0033  0.5828
  131CHL1    H815895   1.231   6.292  13.290 -1.9403 -0.4018  1.8174
  131CHL1   C1415896   1.279   6.109  13.422  0.0819 -0.0594 -0.1914
  131CHL1   H1415897   1.328   6.013  13.392  2.2986  0.1231  2.3831
  131CHL1   C1515898   1.151   6.073  13.511  0.0376  0.1194 -0.6255
  131CHL1  H15A15899   1.065   6.143  13.502 -0.5825 -0.5952 -0.3780
  131CHL1  H15B15900   1.119   5.970  13.484 -1.7223 -0.0059  1.6556
  131CHL1   C1615901   1.208   6.071  13.653 -0.3465 -0.1365  0.1634
  131CHL1  H16A15902   1.165   6.147  13.721 -0.2893 -0.9150  1.0982
  131CHL1  H16B15903   1.197   5.976  13.711 -2.6065  0.6013  1.0487
  131CHL1   C1715904   1.360   6.092  13.632 -0.3897  0.4230  0.3443
  131CHL1   H1715905   1.401   5.992  13.606 -0.5843 -0.0419  1.7259
  131CHL1   C1315906   1.383   6.179  13.503 -0.2059  0.0426  0.5348
  131CHL1   C1815907   1.343   6.323  13.541  0.3750 -0.1957 -0.2102
  131CHL1  H18A15908   1.414   6.357  13.619 -0.8135  0.5438  0.5754
  131CHL1  H18B15909   1.354   6.397  13.458  0.4607 -0.6647 -0.6260
  131CHL1  H18C15910   1.236   6.322  13.569  0.1892  0.8206 -0.8148
  131CHL1   C1215911   1.513   6.172  13.422 -0.0711 -0.7098 -0.1991
  131CHL1  H12A15912   1.591   6.211  13.491 -0.2818  0.7196 -0.7307
  131CHL1  H12B15913   1.548   6.068  13.400  3.7457 -0.3550  2.9949
  131CHL1   C1115914   1.508   6.256  13.290  0.5313 -0.0743 -0.4025
  131CHL1  H11A15915   1.492   6.364  13.311  1.1020 -0.3239  1.5391
  131CHL1  H11B15916   1.603   6.234  13.238  0.8713 -0.4963  0.3963
  131CHL1    C915917   1.383   6.189  13.207 -0.8317  0.0952 -0.3183
  131CHL1    H915918   1.403   6.084  13.174  0.8450  0.2783  0.0183
  131CHL1   C1015919   1.359   6.258  13.065  0.1200 -0.7660 -0.4807
  131CHL1   C1915920   1.357   6.414  13.080 -0.0987  0.5889  1.1684
  131CHL1  H19A15921   1.331   6.467  12.985  0.9167 -0.2568  0.3970
  131CHL1  H19B15922   1.282   6.441  13.158  0.7412 -0.8837  2.5525
  131CHL1  H19C15923   1.462   6.439  13.106  0.7164  0.6134 -1.7898
  131CHL1    C115924   1.473   6.215  12.957  0.3511  0.4268 -0.4287
  131CHL1   H1A15925   1.574   6.238  12.995  1.7608 -0.1805 -3.5302
  131CHL1   H1B15926   1.468   6.104  12.960 -2.2912  0.4970  0.8896
  131CHL1    C215927   1.455   6.253  12.810 -0.1727 -0.0008  0.6271
  131CHL1   H2A15928   1.532   6.206  12.745  0.3847  2.2442 -0.4425
  131CHL1   H2B15929   1.465   6.363  12.792  1.5988 -0.4507 -1.6035
  131CHL1   C2015930   1.431   6.126  13.763  0.6940 -0.6004 -0.1073
  131CHL1   H2015931   1.411   6.230  13.797 -0.8915 -0.4240 -1.4531
  131CHL1   C2115932   1.575   6.107  13.738 -0.1975 -0.0200 -0.2474
  131CHL1  H21A15933   1.614   6.106  13.842 -2.9904 -4.0434  1.0419
  131CHL1  H21B15934   1.620   6.190  13.680  1.6732 -0.4669  0.5154
  131CHL1  H21C15935   1.599   6.015  13.682  1.6204  1.5300 -2.1654
  131CHL1   C2215936   1.396   6.030  13.881 -0.2496 -0.1492  0.2016
  131CHL1  H22A15937   1.286   6.024  13.890 -0.2863 -0.8859 -0.5718
  131CHL1  H22B15938   1.427   5.927  13.850 -2.4037 -0.1595 -2.2302
  131CHL1   C2315939   1.439   6.071  14.020  0.3727  0.0531  0.4177
  131CHL1  H23A15940   1.545   6.038  14.029  0.3099 -0.1645  0.3769
  131CHL1  H23B15941   1.424   6.180  14.032 -3.0572 -0.0418 -1.6642
  131CHL1   C2415942   1.353   5.999  14.124 -0.3415  0.1672 -0.0995
  131CHL1  H24A15943   1.252   6.045  14.137  0.3400  1.6581  0.1448
  131CHL1  H24B15944   1.341   5.895  14.089  0.0938 -0.6318  1.9644
  131CHL1   C2515945   1.415   5.991  14.262 -0.3229  0.5229 -1.0925
  131CHL1   H2515946   1.523   5.990  14.237 -0.4177 -0.4324 -1.4913
  131CHL1   C2615947   1.388   6.124  14.344  0.4304  0.2516 -0.1896
  131CHL1  H26A15948   1.279   6.132  14.367  0.5792 -0.7490  0.9907
  131CHL1  H26B15949   1.456   6.121  14.431 -0.7931  0.8090  0.8173
  131CHL1  H26C15950   1.419   6.213  14.286  0.6743  0.8932  0.8966
  131CHL1   C2715951   1.383   5.861  14.348 -0.4448  0.3812 -0.6598
  131CHL1  H27A15952   1.408   5.760  14.310 -0.6600 -0.0558  0.3368
  131CHL1  H27B15953   1.440   5.872  14.442  0.7394 -1.9768 -1.0160
  131CHL1  H27C15954   1.275   5.867  14.374  0.0153  2.3801  1.0372
  132CHL1    C315955   6.031   1.499  12.861  0.1993  0.6442  0.0407
  132CHL1    H315956   6.141   1.488  12.860  0.0967 -0.6865 -1.7437
  132CHL1    O315957   5.998   1.473  12.723 -0.2877 -0.4783 -0.7098
  132CHL1   H3'15958   5.902   1.464  12.718 -0.3914 -0.5031  0.7847
  132CHL1    C415959   5.971   1.387  12.953 -0.3877 -0.3862 -0.4870
  132CHL1   H4A15960   5.864   1.383  12.924 -0.4559  3.1301 -1.1653
  132CHL1   H4B15961   6.018   1.290  12.927  0.2805 -0.0054 -0.7226
  132CHL1    C515962   5.985   1.423  13.100  0.7968 -0.5140  0.1041
  132CHL1    C615963   6.035   1.327  13.176  0.0307  0.1887  0.7683
  132CHL1    H615964   6.067   1.229  13.138 -0.5126  0.6638 -1.0056
  132CHL1    C715965   6.049   1.357  13.324 -0.0338  1.0858  0.6161
  132CHL1   H7A15966   6.017   1.267  13.382 -0.1426  1.8723  1.8246
  132CHL1   H7B15967   6.154   1.384  13.347  0.0675  0.5159  0.8560
  132CHL1    C815968   5.960   1.475  13.370 -0.2077  0.1284 -0.4390
  132CHL1    H815969   5.854   1.444  13.383  0.2080 -0.4947  1.9090
  132CHL1   C1415970   6.000   1.514  13.512 -0.3614  0.2097  0.1423
  132CHL1   H1415971   6.104   1.553  13.510  0.7579 -2.3988  1.7731
  132CHL1   C1515972   5.999   1.396  13.616  0.4032  0.1636  0.8298
  132CHL1  H15A15973   5.914   1.329  13.590 -0.0102  1.0881 -0.2846
  132CHL1  H15B15974   6.099   1.348  13.610  0.4017 -0.4017  3.7131
  132CHL1   C1615975   5.996   1.452  13.754  0.2636 -0.0197 -0.2545
  132CHL1  H16A15976   5.911   1.414  13.815  0.7569  0.5347  0.7932
  132CHL1  H16B15977   6.082   1.424  13.817  1.2763  1.4887 -0.9083
  132CHL1   C1715978   5.978   1.612  13.727  0.4672 -0.4641  0.9644
  132CHL1   H1715979   6.082   1.649  13.718  0.8473 -1.6209  0.3245
  132CHL1   C1315980   5.911   1.622  13.586 -0.5848 -0.1281 -0.1121
  132CHL1   C1815981   5.767   1.583  13.584 -0.3594  0.5227 -0.1315
  132CHL1  H18A15982   5.719   1.584  13.484  1.2761 -1.4006 -1.0046
  132CHL1  H18B15983   5.752   1.483  13.629 -1.1437  0.7311  0.0848
  132CHL1  H18C15984   5.694   1.656  13.625 -0.4479  2.0654 -2.8047
  132CHL1   C1215985   5.948   1.747  13.497  0.5374  0.1886  0.2132
  132CHL1  H12A15986   5.890   1.838  13.525 -0.0146  0.1082 -0.6383
  132CHL1  H12B15987   6.056   1.771  13.495  0.7890 -0.9390 -1.3065
  132CHL1   C1115988   5.915   1.724  13.347  0.1249 -0.2434 -0.4587
  132CHL1  H11A15989   5.804   1.719  13.343  0.1360 -0.9401 -0.1482
  132CHL1  H11B15990   5.941   1.814  13.288 -1.0211  0.0058 -0.5996
  132CHL1    C915991   5.972   1.593  13.280 -0.3414  0.9648  0.7520
  132CHL1    H915992   6.082   1.604  13.280 -0.3463  1.9691  3.6779
  132CHL1   C1015993   5.932   1.565  13.135  0.0140  0.4238 -0.0710
  132CHL1   C1915994   5.776   1.563  13.137 -0.5133  0.0674  0.1880
  132CHL1  H19A15995   5.738   1.664  13.160 -0.9769  0.2992 -1.5192
  132CHL1  H19B15996   5.735   1.552  13.035  0.2428  3.1847 -0.5489
  132CHL1  H19C15997   5.722   1.487  13.198 -1.5053  1.1956  0.7559
  132CHL1    C115998   5.987   1.664  13.037 -0.3165 -0.0237  0.8668
  132CHL1   H1A15999   5.945   1.766  13.055 -2.2451 -0.4367 -0.9232
  132CHL1   H1B16000   6.096   1.673  13.059 -0.2340 -0.1126  0.4939
  132CHL1    C216001   5.972   1.627  12.893 -0.1911 -0.9806  0.2744
  132CHL1   H2A16002   6.011   1.698  12.817  0.7957 -2.2874 -0.4799
  132CHL1   H2B16003   5.864   1.625  12.865 -0.4454  1.2929  0.8606
  132CHL1   C2016004   5.909   1.690  13.845 -0.1746 -0.5285 -0.0406
  132CHL1   H2016005   5.806   1.648  13.852 -0.0778 -1.0535 -1.4248
  132CHL1   C2116006   5.896   1.840  13.825  0.6021 -0.1656 -0.6490
  132CHL1  H21A16007   5.999   1.881  13.814  1.1982 -1.4614 -0.0126
  132CHL1  H21B16008   5.837   1.874  13.913 -0.5581 -1.5690 -0.8464
  132CHL1  H21C16009   5.850   1.868  13.727  1.1187 -0.0727 -0.8690
  132CHL1   C2216010   5.983   1.663  13.980  0.2294  0.9906  0.1660
  132CHL1  H22A16011   5.966   1.554  13.991 -0.1886  0.9649 -0.6376
  132CHL1  H22B16012   6.088   1.698  13.977  0.9753 -1.0375  0.8786
  132CHL1   C2316013   5.921   1.714  14.112  0.2500 -0.4698  0.3194
  132CHL1  H23A16014   5.927   1.823  14.132 -0.1259 -0.4703  0.4358
  132CHL1  H23B16015   5.812   1.692  14.101  0.3099 -0.4862 -0.2699
  132CHL1   C2416016   5.968   1.645  14.240  0.0828 -0.0570  0.2341
  132CHL1  H24A16017   5.987   1.537  14.223 -0.6197  0.0025 -1.1184
  132CHL1  H24B16018   6.062   1.688  14.281  1.1701 -0.4963 -1.6343
  132CHL1   C2516019   5.882   1.686  14.365  0.1614 -0.0884  0.0610
  132CHL1   H2516020   5.875   1.796  14.375  3.2932  0.3994 -1.7301
  132CHL1   C2616021   5.735   1.635  14.339 -0.4202  0.2913 -0.6829
  132CHL1  H26A16022   5.663   1.710  14.301 -0.5377 -0.1232 -1.2907
  132CHL1  H26B16023   5.753   1.544  14.278  3.9276  0.6534 -0.2963
  132CHL1  H26C16024   5.695   1.594  14.434  0.3420 -0.2076 -0.5698
  132CHL1   C2716025   5.946   1.631  14.493  0.0233  0.3453  0.0497
  132CHL1  H27A16026   5.979   1.525  14.486 -0.3151  0.2338  0.1127
  132CHL1  H27B16027   6.035   1.686  14.529 -0.0465  0.7891 -0.4425
  132CHL1  H27C16028   5.872   1.640  14.576  0.8730 -0.0890  0.8762
  133CHL1    C316029   2.050   3.887  13.250  0.0941 -0.0610  0.5176
  133CHL1    H316030   2.031   3.781  13.277 -0.4202 -0.6147 -1.7541
  133CHL1    O316031   2.035   3.909  13.107 -0.4152 -0.9756 -0.4975
  133CHL1   H3'16032   1.948   3.889  13.072 -0.5181  1.4852 -1.9038
  133CHL1    C416033   1.947   3.967  13.326  0.3624  0.0963 -0.4783
  133CHL1   H4A16034   1.955   4.076  13.302 -1.7784  0.6963  1.2318
  133CHL1   H4B16035   1.852   3.921  13.292  0.3793 -1.9239  1.9197
  133CHL1    C516036   1.961   3.956  13.476 -0.1466  0.7953 -0.4783
  133CHL1    C616037   1.851   3.920  13.551  0.7332  0.4605 -0.5489
  133CHL1    H616038   1.759   3.899  13.495  1.2830 -0.0092 -1.2924
  133CHL1    C716039   1.851   3.903  13.701  0.2784  0.5168 -0.1367
  133CHL1   H7A16040   1.755   3.944  13.739 -0.2149 -1.1125  0.4590
  133CHL1   H7B16041   1.846   3.794  13.724  0.6432  0.2924 -1.0831
  133CHL1    C816042   1.974   3.982  13.757 -0.7550  0.3914 -0.3883
  133CHL1    H816043   1.951   4.091  13.753 -2.5603  0.1132  1.0676
  133CHL1   C1416044   1.986   3.932  13.896  0.3835 -0.5118 -0.3356
  133CHL1   H1416045   2.009   3.824  13.892  0.7082 -0.4542 -0.1003
  133CHL1   C1516046   1.858   3.952  13.983 -0.4872  0.0020 -0.4279
  133CHL1  H15A16047   1.810   4.046  13.951  0.8316  1.4184  1.5296
  133CHL1  H15B16048   1.784   3.870  13.965 -1.1966  0.3919  0.6182
  133CHL1   C1616049   1.906   3.950  14.129 -0.2285  0.1310 -0.0308
  133CHL1  H16A16050   1.888   4.042  14.189  0.9244 -0.1446  0.7725
  133CHL1  H16B16051   1.858   3.868  14.187 -0.1979  1.4314  1.9291
  133CHL1   C1716052   2.065   3.930  14.119 -0.0752  0.4724  0.4096
  133CHL1   H1716053   2.090   3.822  14.108 -1.4570  0.2315 -0.7873
  133CHL1   C1316054   2.103   3.994  13.977  0.5023  0.3395 -0.0342
  133CHL1   C1816055   2.099   4.145  13.979 -0.0688 -0.5378 -0.6153
  133CHL1  H18A16056   2.103   4.182  13.875  0.3161 -1.5141 -0.9600
  133CHL1  H18B16057   2.004   4.189  14.017 -0.5294 -1.2186 -0.9445
  133CHL1  H18C16058   2.186   4.191  14.030  2.8293 -3.0628 -2.9531
  133CHL1   C1216059   2.232   3.954  13.909 -0.4289 -0.1461  0.2800
  133CHL1  H12A16060   2.319   4.012  13.946 -1.4631  0.0606  2.5638
  133CHL1  H12B16061   2.248   3.848  13.937 -3.0931 -0.3824  1.2436
  133CHL1   C1116062   2.224   3.983  13.755 -0.3499 -0.0230  0.1710
  133CHL1  H11A16063   2.246   4.091  13.741  1.7581  0.0562  3.1261
  133CHL1  H11B16064   2.299   3.923  13.699 -0.3032  0.3275 -0.1460
  133CHL1    C916065   2.097   3.935  13.682 -0.7964  0.6458  0.3320
  133CHL1    H916066   2.096   3.825  13.699 -2.4796  0.8474  1.8138
  133CHL1   C1016067   2.098   3.973  13.526  0.1153 -0.6587 -0.7438
  133CHL1   C1916068   2.130   4.126  13.522 -0.3928  0.2820 -0.3800
  133CHL1  H19A16069   2.068   4.184  13.592 -1.2445  0.8039 -1.5368
  133CHL1  H19B16070   2.237   4.127  13.551 -0.3272 -0.3640 -0.5801
  133CHL1  H19C16071   2.126   4.167  13.418  0.5363 -2.6277 -1.6867
  133CHL1    C116072   2.206   3.896  13.442  0.1327  0.2062 -0.4990
  133CHL1   H1A16073   2.304   3.932  13.479 -0.0565  0.2810 -0.0770
  133CHL1   H1B16074   2.185   3.789  13.467 -3.8006  1.2302  1.2839
  133CHL1    C216075   2.192   3.926  13.292  0.4800 -0.3459  0.5962
  133CHL1   H2A16076   2.267   3.859  13.245  0.3563  0.8710 -1.4573
  133CHL1   H2B16077   2.214   4.032  13.267 -0.8931  0.1088  1.2107
  133CHL1   C2016078   2.144   3.978  14.239 -0.0857 -0.3454  0.2351
  133CHL1   H2016079   2.130   4.087  14.252 -0.5314 -0.2926 -0.6159
  133CHL1   C2116080   2.302   3.961  14.225  0.3932 -0.1820  0.1385
  133CHL1  H21A16081   2.353   4.041  14.167  1.4333 -1.1472 -0.3117
  133CHL1  H21B16082   2.331   3.861  14.186  0.7143  1.1933 -3.4778
  133CHL1  H21C16083   2.344   3.972  14.327  1.3620  0.8711 -0.3543
  133CHL1   C2216084   2.105   3.899  14.366  0.0919 -0.6694  0.1918
  133CHL1  H22A16085   1.996   3.882  14.350  0.5890 -2.1781 -1.9899
  133CHL1  H22B16086   2.155   3.801  14.372  0.1621 -0.6051  0.7410
  133CHL1   C2316087   2.132   3.970  14.505 -0.5516  0.5055  0.5399
  133CHL1  H23A16088   2.107   3.900  14.587  1.7141  0.9410  1.6699
  133CHL1  H23B16089   2.242   3.987  14.512 -0.7534  1.8065  0.9399
  133CHL1   C2416090   2.059   4.103  14.516  0.8678 -0.1713 -0.6000
  133CHL1  H24A16091   2.111   4.169  14.444 -0.4216  1.7404  0.1300
  133CHL1  H24B16092   1.950   4.086  14.502  0.3294  0.0162  2.5808
  133CHL1   C2516093   2.079   4.167  14.658  0.0433  0.2335  0.4139
  133CHL1   H2516094   2.189   4.164  14.669  0.0121  1.6496  1.3268
  133CHL1   C2616095   2.033   4.317  14.643 -0.0062 -0.6874 -0.7518
  133CHL1  H26A16096   1.922   4.326  14.649 -0.0867 -0.3623 -2.3223
  133CHL1  H26B16097   2.070   4.379  14.728  1.2508 -2.0107 -0.2930
  133CHL1  H26C16098   2.075   4.359  14.550 -1.7329  1.2421 -0.7376
  133CHL1   C2716099   2.009   4.085  14.774  0.0031 -0.8539  0.1040
  133CHL1  H27A16100   2.009   4.144  14.868  0.6423  0.2814 -0.5885
  133CHL1  H27B16101   1.903   4.070  14.745 -0.3379 -0.4859  1.1215
  133CHL1  H27C16102   2.051   3.983  14.783  0.6640 -0.7583 -1.4812
  134CHL1    C316103   6.001   3.827  12.768 -0.1806  0.7158 -0.2620
  134CHL1    H316104   5.915   3.894  12.787  0.8366  1.9505  0.1381
  134CHL1    O316105   6.030   3.825  12.626 -0.4025  0.5892 -0.6317
  134CHL1   H3'16106   6.091   3.752  12.619 -1.7256 -0.4694 -1.7497
  134CHL1    C416107   6.119   3.869  12.848  0.0802 -0.5035  0.2100
  134CHL1   H4A16108   6.206   3.806  12.820  0.9129  0.6932  0.0315
  134CHL1   H4B16109   6.157   3.968  12.815  0.3684 -1.4563 -2.5109
  134CHL1    C516110   6.091   3.865  12.996  0.2951  0.2276  0.1652
  134CHL1    C616111   6.109   3.973  13.076 -0.1705  0.5355 -0.3120
  134CHL1    H616112   6.120   4.070  13.026  0.5708  0.4633 -0.2971
  134CHL1    C716113   6.083   3.972  13.222  0.1157 -0.6532  0.2562
  134CHL1   H7A16114   6.168   4.015  13.279 -0.4091  0.2674  0.3568
  134CHL1   H7B16115   5.996   4.037  13.246  0.0739 -0.9988  1.0695
  134CHL1    C816116   6.064   3.835  13.285 -0.3474  0.0302  0.3854
  134CHL1    H816117   6.162   3.784  13.302 -0.2537  0.7012  2.0435
  134CHL1   C1416118   6.002   3.859  13.417  0.0808  0.3543  0.4043
  134CHL1   H1416119   5.909   3.918  13.398  0.2000  0.8589  1.3269
  134CHL1   C1516120   6.076   3.951  13.520 -0.2275 -0.6952 -0.2387
  134CHL1  H15A16121   6.181   3.915  13.528 -0.1900 -0.3395  0.9903
  134CHL1  H15B16122   6.065   4.054  13.480  0.8340 -0.9384 -1.2318
  134CHL1   C1616123   6.006   3.925  13.657  0.6561  0.0908 -0.4736
  134CHL1  H16A16124   6.088   3.906  13.730  1.8631  2.1816 -1.1949
  134CHL1  H16B16125   5.946   4.013  13.687  0.3039 -0.4857  0.5526
  134CHL1   C1716126   5.909   3.814  13.629 -0.2976  0.1839  0.3919
  134CHL1   H1716127   5.817   3.871  13.604 -0.4331  1.3753  3.2731
  134CHL1   C1316128   5.951   3.739  13.497  0.3139 -0.2762  0.1085
  134CHL1   C1816129   6.070   3.641  13.529 -0.3386  0.0656  0.3902
  134CHL1  H18A16130   6.101   3.576  13.445 -1.6189 -1.0535  0.7462
  134CHL1  H18B16131   6.157   3.695  13.573 -1.1039  2.1008 -0.4476
  134CHL1  H18C16132   6.040   3.572  13.611 -2.8201 -1.7512 -1.9006
  134CHL1   C1216133   5.841   3.662  13.413  0.1529 -0.5862 -0.7746
  134CHL1  H12A16134   5.813   3.566  13.462 -2.1829  1.2880  1.9055
  134CHL1  H12B16135   5.751   3.727  13.412  1.1538  0.8390 -0.8417
  134CHL1   C1116136   5.900   3.636  13.273  0.5902  0.2494 -0.5931
  134CHL1  H11A16137   5.965   3.546  13.276  1.5946  0.9606  2.3964
  134CHL1  H11B16138   5.813   3.613  13.208  0.1177 -0.0688  0.1358
  134CHL1    C916139   5.962   3.757  13.203 -0.2836  0.0976 -0.2308
  134CHL1    H916140   5.877   3.825  13.182 -0.4510 -0.1794 -0.4673
  134CHL1   C1016141   6.027   3.733  13.056  0.1606 -0.1624  0.6850
  134CHL1   C1916142   6.142   3.628  13.062  0.2447 -0.4454 -0.4305
  134CHL1  H19A16143   6.186   3.610  12.961  0.0818 -0.9109 -0.4201
  134CHL1  H19B16144   6.220   3.644  13.140  1.2246  0.4223 -1.5389
  134CHL1  H19C16145   6.082   3.537  13.083 -0.9564 -0.1696 -2.4768
  134CHL1    C116146   5.922   3.678  12.957 -0.0375 -0.0407 -0.4335
  134CHL1   H1A16147   5.890   3.574  12.976 -0.4729  0.1146 -0.3053
  134CHL1   H1B16148   5.832   3.742  12.965  0.9723  1.3620  0.0410
  134CHL1    C216149   5.955   3.684  12.806  0.1606  0.2155  0.1284
  134CHL1   H2A16150   5.871   3.657  12.739 -0.2684  1.1449  0.2757
  134CHL1   H2B16151   6.041   3.616  12.785  0.0810  0.0504  0.3491
  134CHL1   C2016152   5.885   3.735  13.760  0.0462  0.0138  0.3768
  134CHL1   H2016153   5.984   3.700  13.795  0.5291  0.0033 -0.9084
  134CHL1   C2116154   5.783   3.617  13.731 -0.1251 -0.8731  0.2635
  134CHL1  H21A16155   5.697   3.660  13.675  0.4702  0.9026  0.6474
  134CHL1  H21B16156   5.740   3.576  13.825 -0.9351 -0.1047  0.2443
  134CHL1  H21C16157   5.834   3.545  13.664  3.1873  0.9933  0.5853
  134CHL1   C2216158   5.831   3.840  13.865 -0.3610  0.4171  0.0992
  134CHL1  H22A16159   5.921   3.898  13.893 -1.3715  1.8575  0.4992
  134CHL1  H22B16160   5.754   3.912  13.829  0.0373  1.0110  0.4105
  134CHL1   C2316161   5.764   3.791  13.998 -0.0383  0.5315 -0.1781
  134CHL1  H23A16162   5.751   3.886  14.054  1.6972  0.5985  0.1526
  134CHL1  H23B16163   5.679   3.723  13.976  0.8351 -0.4911 -0.4622
  134CHL1   C2416164   5.863   3.715  14.083  0.2331 -0.1826 -0.8018
  134CHL1  H24A16165   5.928   3.648  14.023  2.0461  0.6804  0.0813
  134CHL1  H24B16166   5.935   3.798  14.104 -0.7296  0.9378 -1.8062
  134CHL1   C2516167   5.809   3.652  14.212 -0.3121 -0.5538 -1.2146
  134CHL1   H2516168   5.746   3.564  14.189 -1.8932 -0.3502  1.8796
  134CHL1   C2616169   5.934   3.606  14.299 -0.3059 -0.5656 -0.7188
  134CHL1  H26A16170   5.908   3.606  14.407  0.6388  0.2304 -0.4794
  134CHL1  H26B16171   5.956   3.503  14.264 -0.3400 -0.4574 -1.0637
  134CHL1  H26C16172   6.029   3.663  14.291 -1.0892  0.9616  0.2887
  134CHL1   C2716173   5.718   3.751  14.295  0.0498 -0.1613 -0.0944
  134CHL1  H27A16174   5.776   3.840  14.325 -1.3812  0.7484  0.0900
  134CHL1  H27B16175   5.625   3.784  14.242 -0.7506 -2.7270 -0.4363
  134CHL1  H27C16176   5.688   3.705  14.391  0.5295 -0.6577 -0.1794
  135CHL1    C316177   6.401   2.710  12.801  0.3241  0.6283 -0.1209
  135CHL1    H316178   6.368   2.616  12.849  2.7373 -0.4148 -0.3800
  135CHL1    O316179   6.361   2.715  12.668 -0.4421 -0.0830 -0.1374
  135CHL1   H3'16180   6.386   2.803  12.640  0.9753 -0.4620 -0.1699
  135CHL1    C416181   6.334   2.829  12.876  0.3782  0.3656 -0.0911
  135CHL1   H4A16182   6.361   2.923  12.822  1.4085  0.6929  0.9369
  135CHL1   H4B16183   6.224   2.838  12.871  0.3219  1.8820  2.2023
  135CHL1    C516184   6.378   2.840  13.020 -0.4997 -0.0470 -0.2714
  135CHL1    C616185   6.285   2.855  13.115  0.0402  0.0354 -0.2140
  135CHL1    H616186   6.177   2.864  13.093  0.1608  1.7898 -0.2258
  135CHL1    C716187   6.313   2.867  13.259  0.9341  0.2715 -0.7809
  135CHL1   H7A16188   6.257   2.955  13.298 -0.2894 -1.2739  1.1510
  135CHL1   H7B16189   6.272   2.776  13.308 -0.5649  1.8047  0.9623
  135CHL1    C816190   6.471   2.873  13.296  0.1475 -0.2714  0.5327
  135CHL1    H816191   6.498   2.980  13.285 -1.1692  0.2044  1.6519
  135CHL1   C1416192   6.490   2.826  13.433  0.1672 -0.5830 -0.5675
  135CHL1   H1416193   6.461   2.719  13.426  0.0956 -0.6485  0.5149
  135CHL1   C1516194   6.408   2.901  13.544 -0.5556 -0.0336  0.1294
  135CHL1  H15A16195   6.396   3.010  13.524 -0.4338  0.0767  0.6420
  135CHL1  H15B16196   6.308   2.853  13.547 -0.3213 -0.4988  1.2078
  135CHL1   C1616197   6.481   2.875  13.675 -0.0178 -0.4799 -0.3590
  135CHL1  H16A16198   6.507   2.966  13.733  1.0007 -2.6143  2.8928
  135CHL1  H16B16199   6.424   2.798  13.732 -0.0146  0.8113  1.4764
  135CHL1   C1716200   6.619   2.810  13.633  0.0626 -0.1376 -0.5775
  135CHL1   H1716201   6.594   2.702  13.634 -0.6054  0.0121  0.6250
  135CHL1   C1316202   6.636   2.838  13.479 -0.3880  0.4081  0.1000
  135CHL1   C1816203   6.688   2.976  13.470  0.6944  0.1723  0.3425
  135CHL1  H18A16204   6.779   2.994  13.531  0.9799 -1.2924  0.3787
  135CHL1  H18B16205   6.702   3.012  13.365  0.4261 -1.9150 -0.4516
  135CHL1  H18C16206   6.614   3.051  13.506 -0.1045 -0.2616 -0.3470
  135CHL1   C1216207   6.717   2.736  13.391 -0.3046 -0.4338 -0.3512
  135CHL1  H12A16208   6.825   2.741  13.415 -0.4732  1.6411  0.1595
  135CHL1  H12B16209   6.677   2.634  13.410 -0.6826 -0.2665 -0.2315
  135CHL1   C1116210   6.700   2.772  13.246 -0.1880 -0.6833  0.8318
  135CHL1  H11A16211   6.745   2.871  13.223  0.6803 -1.4099 -0.8102
  135CHL1  H11B16212   6.745   2.696  13.178 -0.6054  0.5128 -0.8547
  135CHL1    C916213   6.551   2.785  13.207  0.1123 -0.0180  0.1410
  135CHL1    H916214   6.506   2.685  13.225 -2.4214  1.3817  2.2473
  135CHL1   C1016215   6.532   2.823  13.053  0.4620  0.1452 -0.3025
  135CHL1   C1916216   6.597   2.960  13.025 -0.5278 -0.7037 -0.2054
  135CHL1  H19A16217   6.703   2.964  13.057 -0.7978 -1.3384  0.7890
  135CHL1  H19B16218   6.596   2.991  12.918  1.1466  2.8655  0.6757
  135CHL1  H19C16219   6.546   3.035  13.089 -1.3718 -0.7653 -0.7849
  135CHL1    C116220   6.600   2.708  12.959  0.2041 -0.2179 -0.5141
  135CHL1   H1A16221   6.711   2.711  12.967  0.1774 -0.8653  0.3484
  135CHL1   H1B16222   6.561   2.616  13.008 -2.2962  1.6851  1.3815
  135CHL1    C216223   6.559   2.711  12.810 -0.1291 -0.4711  0.4286
  135CHL1   H2A16224   6.603   2.620  12.762 -0.6032 -0.6076  0.2331
  135CHL1   H2B16225   6.589   2.803  12.756 -3.0479 -0.0732 -0.7256
  135CHL1   C2016226   6.725   2.834  13.741 -0.0617  0.9003 -0.1453
  135CHL1   H2016227   6.732   2.940  13.776  3.3164 -0.2685  3.4080
  135CHL1   C2116228   6.869   2.794  13.701  0.6835  0.3210 -0.0102
  135CHL1  H21A16229   6.944   2.809  13.781 -1.0229 -2.4715  2.3131
  135CHL1  H21B16230   6.891   2.860  13.614 -0.5254 -0.3912 -0.8820
  135CHL1  H21C16231   6.871   2.690  13.661 -0.7130 -0.7047  2.4094
  135CHL1   C2216232   6.689   2.762  13.868  0.9399 -0.4387 -0.3569
  135CHL1  H22A16233   6.590   2.802  13.897  0.2419 -0.7499 -2.2000
  135CHL1  H22B16234   6.669   2.655  13.843 -2.4324 -0.4582  1.7708
  135CHL1   C2316235   6.787   2.758  13.991 -0.6982 -0.9039  0.7621
  135CHL1  H23A16236   6.877   2.707  13.950  0.6296  1.8100  0.0499
  135CHL1  H23B16237   6.812   2.862  14.021 -1.0542 -0.0723 -1.6211
  135CHL1   C2416238   6.716   2.683  14.100  0.4035  0.0832 -0.5490
  135CHL1  H24A16239   6.620   2.727  14.134 -0.7946 -1.7070 -1.4867
  135CHL1  H24B16240   6.695   2.580  14.064  0.7716 -0.9708  1.9976
  135CHL1   C2516241   6.815   2.662  14.215 -0.4195 -0.3304 -0.4897
  135CHL1   H2516242   6.881   2.750  14.222 -0.2644 -0.1927 -2.8363
  135CHL1   C2616243   6.751   2.623  14.350  0.9306  0.1002 -0.2077
  135CHL1  H26A16244   6.671   2.549  14.329 -2.7376  3.5605  0.4851
  135CHL1  H26B16245   6.828   2.603  14.428  0.7136  0.5558  0.1321
  135CHL1  H26C16246   6.686   2.704  14.390 -0.9035 -1.4710  0.1167
  135CHL1   C2716247   6.915   2.547  14.184  0.3196  0.1977  0.4207
  135CHL1  H27A16248   6.979   2.536  14.274  0.5972  3.8941  0.8043
  135CHL1  H27B16249   6.855   2.455  14.165 -1.2681  1.2359  0.2455
  135CHL1  H27C16250   6.980   2.573  14.097  0.2224 -1.9254 -0.3649
  136CHL1    C316251   5.140   2.111  12.989  0.2581 -0.4340 -0.2826
  136CHL1    H316252   5.223   2.041  13.014  1.4447  0.0817 -2.5463
  136CHL1    O316253   5.115   2.114  12.855 -0.3186 -0.3391  0.0716
  136CHL1   H3'16254   5.194   2.157  12.821  0.9815 -1.6152  1.3629
  136CHL1    C416255   5.014   2.054  13.060  0.2492  0.1217  0.1279
  136CHL1   H4A16256   4.929   2.122  13.039  1.1208  1.6618  1.3687
  136CHL1   H4B16257   4.991   1.953  13.020 -1.8003 -0.0096  1.4998
  136CHL1    C516258   5.030   2.063  13.214  0.5334  0.8334  0.1595
  136CHL1    C616259   5.018   1.950  13.295 -0.1054 -0.6659 -0.8011
  136CHL1    H616260   5.007   1.848  13.256  0.4292 -0.9824 -0.1339
  136CHL1    C716261   5.032   1.962  13.438  0.3067  0.2659  0.3149
  136CHL1   H7A16262   4.958   1.896  13.488  0.2619  0.8278  1.0168
  136CHL1   H7B16263   5.129   1.915  13.464  0.7690  0.4023 -1.1141
  136CHL1    C816264   5.015   2.102  13.501 -0.1662  0.6663  0.2851
  136CHL1    H816265   4.908   2.134  13.496 -0.2671  0.2442 -0.4277
  136CHL1   C1416266   5.060   2.104  13.649 -0.0096  0.5978  0.5915
  136CHL1   H1416267   5.166   2.070  13.650  0.4666  1.8412  3.7799
  136CHL1   C1516268   5.004   2.005  13.747  0.2872 -0.8690  0.1671
  136CHL1  H15A16269   4.893   1.995  13.737  0.0782 -0.4272  1.7799
  136CHL1  H15B16270   5.044   1.902  13.737 -0.0796 -0.8223 -2.1577
  136CHL1   C1616271   5.043   2.059  13.882  0.1899  0.3164  0.7175
  136CHL1  H16A16272   4.954   2.064  13.948 -2.3834 -2.0644 -2.2730
  136CHL1  H16B16273   5.114   1.987  13.927  0.6880 -0.0870 -0.6801
  136CHL1   C1716274   5.100   2.204  13.861  0.1929  0.4213  0.1248
  136CHL1   H1716275   5.208   2.178  13.859  0.0672 -0.2098  0.9786
  136CHL1   C1316276   5.056   2.238  13.717  0.1638  0.1094 -0.6608
  136CHL1   C1816277   4.907   2.285  13.728  0.9169  0.0548  0.2598
  136CHL1  H18A16278   4.848   2.208  13.783  0.2668  0.3405 -0.0304
  136CHL1  H18B16279   4.898   2.386  13.772  0.8415 -0.1176  0.6478
  136CHL1  H18C16280   4.861   2.282  13.627 -0.0890  0.1307  0.7034
  136CHL1   C1216281   5.144   2.337  13.639 -0.4153  0.1025 -1.0119
  136CHL1  H12A16282   5.146   2.438  13.686 -1.3906 -0.1435 -0.4291
  136CHL1  H12B16283   5.247   2.295  13.641 -0.4595  0.0012 -0.8867
  136CHL1   C1116284   5.098   2.348  13.494  0.5651  0.1441 -0.3811
  136CHL1  H11A16285   4.992   2.380  13.484 -0.0035 -1.3750  0.5160
  136CHL1  H11B16286   5.169   2.423  13.454  0.4994 -0.3310 -1.4259
  136CHL1    C916287   5.098   2.207  13.425 -0.0050  0.4237 -0.1563
  136CHL1    H916288   5.199   2.163  13.439 -0.1807 -0.0301 -0.3011
  136CHL1   C1016289   5.060   2.205  13.271 -0.3241  0.4059  0.1292
  136CHL1   C1916290   4.930   2.291  13.245  0.7137  0.4109  0.6216
  136CHL1  H19A16291   4.917   2.304  13.136  0.8850 -2.6329  0.1474
  136CHL1  H19B16292   4.839   2.254  13.297  0.2610 -0.2236 -0.5835
  136CHL1  H19C16293   4.946   2.396  13.279 -0.3898  0.9476 -0.4367
  136CHL1    C116294   5.180   2.265  13.192  0.4721  0.0075 -0.4576
  136CHL1   H1A16295   5.194   2.371  13.220  0.4210  0.0194 -0.4783
  136CHL1   H1B16296   5.273   2.208  13.214  0.9031  0.9160  0.0940
  136CHL1    C216297   5.175   2.253  13.033 -0.4554  0.8802  0.4827
  136CHL1   H2A16298   5.265   2.290  12.980 -0.2255  1.4084  1.2264
  136CHL1   H2B16299   5.089   2.316  12.999  0.7857  2.5413  0.3221
  136CHL1   C2016300   5.067   2.290  13.984  0.6093 -0.3495 -0.5692
  136CHL1   H2016301   4.957   2.306  13.992  0.5116 -1.1459 -0.1918
  136CHL1   C2116302   5.136   2.426  13.964 -0.2507  0.2785  0.4124
  136CHL1  H21A16303   5.088   2.499  13.896  4.4545  0.8730 -2.7621
  136CHL1  H21B16304   5.235   2.402  13.920  0.4599  1.6362  1.1968
  136CHL1  H21C16305   5.150   2.480  14.060 -1.0220  2.3994 -0.6170
  136CHL1   C2216306   5.116   2.230  14.125 -0.2647 -0.0905  0.4368
  136CHL1  H22A16307   5.065   2.133  14.142  1.1842 -1.0424 -0.3844
  136CHL1  H22B16308   5.225   2.210  14.119 -0.0480  1.1054  0.0121
  136CHL1   C2316309   5.088   2.322  14.251 -0.4419  0.0165  0.1877
  136CHL1  H23A16310   5.140   2.419  14.239  1.9756 -1.1089  0.8659
  136CHL1  H23B16311   4.979   2.343  14.256 -0.7091 -1.4643  4.6480
  136CHL1   C2416312   5.114   2.245  14.385 -0.0164  0.3371  0.4552
  136CHL1  H24A16313   5.101   2.304  14.478  1.2071  1.2879  0.0354
  136CHL1  H24B16314   5.034   2.167  14.386  1.6124 -1.4591 -1.1158
  136CHL1   C2516315   5.244   2.178  14.408 -0.2999 -0.0198  0.2738
  136CHL1   H2516316   5.256   2.098  14.331 -0.3646 -0.1528  0.4002
  136CHL1   C2616317   5.370   2.273  14.390  0.3312 -0.1885  0.3800
  136CHL1  H26A16318   5.378   2.288  14.280 -2.6877 -1.0196 -0.0613
  136CHL1  H26B16319   5.352   2.378  14.421 -1.0749 -0.1225 -0.5223
  136CHL1  H26C16320   5.463   2.225  14.426  0.3350 -0.0785  0.5188
  136CHL1   C2716321   5.252   2.120  14.548 -0.2628  0.3805  0.3886
  136CHL1  H27A16322   5.220   2.196  14.622 -0.4258  0.0749  0.6356
  136CHL1  H27B16323   5.185   2.032  14.554  1.7305 -1.5145 -2.5222
  136CHL1  H27C16324   5.358   2.101  14.573  0.4365  2.2179 -0.9473
  137CHL1    C316325   2.107   2.471  12.970 -0.0031 -0.0131 -0.6143
  137CHL1    H316326   2.030   2.397  13.002 -1.5866  1.5793 -0.5709
  137CHL1    O316327   2.094   2.496  12.829 -0.7065 -0.5704  0.7245
  137CHL1   H3'16328   2.114   2.414  12.783  0.4068  0.4380 -0.6852
  137CHL1    C416329   2.076   2.603  13.037 -0.1671 -0.2791 -0.2831
  137CHL1   H4A16330   2.123   2.689  12.985 -0.1530 -0.6645 -0.9216
  137CHL1   H4B16331   1.970   2.631  13.020 -0.0641  0.3889  0.1558
  137CHL1    C516332   2.099   2.612  13.189  0.3176  0.2405  0.6749
  137CHL1    C616333   1.998   2.645  13.278  0.4056  0.7356  0.1601
  137CHL1    H616334   1.894   2.673  13.258 -1.0191 -2.3585  2.3422
  137CHL1    C716335   2.026   2.654  13.427  0.7474 -0.0931 -0.1316
  137CHL1   H7A16336   1.980   2.748  13.463 -1.4855 -1.2549  0.2278
  137CHL1   H7B16337   1.979   2.567  13.479  0.5380 -0.1604 -0.4286
  137CHL1    C816338   2.176   2.652  13.470 -0.7876 -0.2568 -0.4183
  137CHL1    H816339   2.219   2.751  13.442 -0.2547  0.1981  1.7545
  137CHL1   C1416340   2.188   2.626  13.618  0.3216  0.0517  0.2803
  137CHL1   H1416341   2.142   2.526  13.637  0.1002 -0.3374 -2.0779
  137CHL1   C1516342   2.124   2.718  13.725  0.2980 -0.0299 -0.1051
  137CHL1  H15A16343   2.132   2.820  13.680 -3.6637  1.0636  1.2596
  137CHL1  H15B16344   2.016   2.700  13.738 -0.0523  2.3794  1.0471
  137CHL1   C1616345   2.200   2.699  13.857  0.5619 -0.2797 -0.7921
  137CHL1  H16A16346   2.245   2.792  13.897  0.0213 -0.6515  0.7188
  137CHL1  H16B16347   2.135   2.658  13.936 -0.0412  0.9652 -0.6337
  137CHL1   C1716348   2.318   2.602  13.822 -0.3355  0.3845 -0.1592
  137CHL1   H1716349   2.270   2.504  13.837  0.5535  0.1217  1.0643
  137CHL1   C1316350   2.340   2.619  13.666  0.0318 -0.2772 -0.2135
  137CHL1   C1816351   2.421   2.751  13.631 -0.4680 -0.5376 -0.5464
  137CHL1  H18A16352   2.529   2.733  13.649  0.0631  1.7334 -1.0936
  137CHL1  H18B16353   2.407   2.775  13.523 -0.4447 -1.9916 -0.8871
  137CHL1  H18C16354   2.391   2.838  13.693 -1.2158 -2.1849  1.5335
  137CHL1   C1216355   2.411   2.505  13.598 -0.6313 -0.2275 -0.5863
  137CHL1  H12A16356   2.516   2.508  13.632 -1.1424  1.0042  1.0054
  137CHL1  H12B16357   2.356   2.413  13.628  0.5329 -1.0227 -0.8280
  137CHL1   C1116358   2.396   2.510  13.441 -0.2687  0.1328  0.6584
  137CHL1  H11A16359   2.478   2.572  13.399 -1.3798 -0.6480 -3.0063
  137CHL1  H11B16360   2.424   2.405  13.417  1.3091 -0.0654  3.0105
  137CHL1    C916361   2.252   2.543  13.387 -0.1413 -0.7866 -0.0487
  137CHL1    H916362   2.208   2.446  13.418  0.7473 -1.5235 -1.0058
  137CHL1   C1016363   2.241   2.556  13.234  0.5553 -0.4473 -0.6720
  137CHL1   C1916364   2.332   2.667  13.190  0.2057 -1.1651 -0.8165
  137CHL1  H19A16365   2.440   2.653  13.214 -0.2040 -0.2763  1.9354
  137CHL1  H19B16366   2.337   2.673  13.079  0.7987 -1.8833 -0.8408
  137CHL1  H19C16367   2.313   2.765  13.240  0.2790 -1.6805  0.2477
  137CHL1    C116368   2.263   2.418  13.165  0.6724  0.5607  0.5639
  137CHL1   H1A16369   2.358   2.366  13.193  0.3921 -0.2525  0.0520
  137CHL1   H1B16370   2.187   2.345  13.200  0.4182  0.5613  0.0142
  137CHL1    C216371   2.250   2.423  13.010  0.4744 -0.3494 -0.4482
  137CHL1   H2A16372   2.268   2.328  12.955 -1.9884 -0.0368 -1.9531
  137CHL1   H2B16373   2.322   2.499  12.972  2.2896 -0.9795  1.5477
  137CHL1   C2016374   2.441   2.617  13.924  0.3652 -0.5038  0.2113
  137CHL1   H2016375   2.501   2.704  13.889 -0.1578 -1.0628 -2.2152
  137CHL1   C2116376   2.516   2.488  13.911 -0.0841 -0.5299 -0.2966
  137CHL1  H21A16377   2.446   2.402  13.919  0.2532 -0.7448  0.3385
  137CHL1  H21B16378   2.587   2.462  13.992 -1.3217 -0.7801  0.7466
  137CHL1  H21C16379   2.578   2.480  13.819  2.3989 -0.7688  1.3042
  137CHL1   C2216380   2.401   2.655  14.072  0.8870  0.5860 -0.0444
  137CHL1  H22A16381   2.333   2.742  14.082  0.3195  0.3444 -1.4952
  137CHL1  H22B16382   2.362   2.564  14.122  2.7005 -0.0035  0.3914
  137CHL1   C2316383   2.533   2.691  14.146 -0.0375  0.4968  0.2635
  137CHL1  H23A16384   2.614   2.616  14.137  0.2756  1.0503 -2.1988
  137CHL1  H23B16385   2.584   2.782  14.109 -0.3517  1.0786  1.2275
  137CHL1   C2416386   2.511   2.721  14.296  0.3932  0.7677 -0.6070
  137CHL1  H24A16387   2.435   2.802  14.295 -0.7656 -0.2645  0.4883
  137CHL1  H24B16388   2.453   2.634  14.332 -1.3623  1.8081 -0.8294
  137CHL1   C2516389   2.627   2.751  14.390  0.5997 -0.1399 -0.0823
  137CHL1   H2516390   2.680   2.842  14.354 -0.8173  0.0607 -1.7983
  137CHL1   C2616391   2.562   2.780  14.524 -0.0608 -0.5550 -0.7799
  137CHL1  H26A16392   2.472   2.845  14.514  0.1461 -0.1021  0.2192
  137CHL1  H26B16393   2.532   2.684  14.571  1.8298 -0.0931  1.5518
  137CHL1  H26C16394   2.633   2.824  14.597 -0.9844 -0.1855 -0.0760
  137CHL1   C2716395   2.732   2.634  14.402 -0.1268 -0.2124 -0.4913
  137CHL1  H27A16396   2.680   2.544  14.442 -0.8987  0.2863 -0.3430
  137CHL1  H27B16397   2.775   2.599  14.306  1.4130  0.1805  0.0366
  137CHL1  H27C16398   2.810   2.673  14.469  0.6792  3.5891 -3.2997
  138CHL1    C316399   0.450   1.121  12.688  0.2855 -0.6649 -0.1595
  138CHL1    H316400   0.529   1.043  12.697 -1.1785 -2.1571  0.1741
  138CHL1    O316401   0.441   1.165  12.555  0.1851  0.1421 -0.0167
  138CHL1   H3'16402   0.369   1.229  12.557 -0.9967 -1.0809 -1.3820
  138CHL1    C416403   0.319   1.066  12.732  0.1784  0.6098  0.1320
  138CHL1   H4A16404   0.232   1.134  12.717 -0.0203  0.8640  2.0774
  138CHL1   H4B16405   0.310   0.976  12.667  0.4687  1.1202 -0.6238
  138CHL1    C516406   0.317   1.010  12.878 -0.6523  0.0491 -0.5693
  138CHL1    C616407   0.292   0.886  12.915  0.5689  0.5630  0.0119
  138CHL1    H616408   0.285   0.808  12.837  0.4972  2.0778 -1.5448
  138CHL1    C716409   0.275   0.828  13.051 -0.2016  0.4470 -0.3098
  138CHL1   H7A16410   0.178   0.775  13.062 -0.5309  1.3168  1.3380
  138CHL1   H7B16411   0.361   0.759  13.068  1.6167  2.3442 -1.2910
  138CHL1    C816412   0.281   0.939  13.155  0.8445 -0.4786  0.3369
  138CHL1    H816413   0.185   0.994  13.159  0.9755 -0.0550 -1.5042
  138CHL1   C1416414   0.308   0.885  13.289  0.3391  0.5645  0.3886
  138CHL1   H1416415   0.415   0.860  13.282  0.8161  2.7353 -1.3391
  138CHL1   C1516416   0.228   0.758  13.336  0.3753 -0.6931 -0.0561
  138CHL1  H15A16417   0.121   0.762  13.303 -0.3432  2.3707  2.2180
  138CHL1  H15B16418   0.268   0.664  13.292  2.0449 -0.4640  0.9156
  138CHL1   C1616419   0.225   0.761  13.496 -0.3248  0.3932  0.2603
  138CHL1  H16A16420   0.124   0.755  13.543 -0.5552 -1.6236 -0.3843
  138CHL1  H16B16421   0.281   0.670  13.525  1.0656  0.4150 -2.1213
  138CHL1   C1716422   0.315   0.888  13.531  0.3686  0.0381  0.3469
  138CHL1   H1716423   0.422   0.859  13.536  0.3446  0.0326  0.8732
  138CHL1   C1316424   0.302   0.983  13.409 -0.3640  0.8475 -0.8421
  138CHL1   C1816425   0.164   1.047  13.417 -1.0519  0.5956  0.9534
  138CHL1  H18A16426   0.085   0.971  13.397  0.1521 -1.0137  2.0461
  138CHL1  H18B16427   0.139   1.097  13.513 -2.3317  1.0720  0.3910
  138CHL1  H18C16428   0.150   1.115  13.331 -0.6291 -2.6686 -1.9292
  138CHL1   C1216429   0.412   1.092  13.388  0.0448  0.0134  0.0652
  138CHL1  H12A16430   0.413   1.177  13.460  1.3240  1.6375 -1.7800
  138CHL1  H12B16431   0.507   1.037  13.403  0.4972  0.7470 -0.0627
  138CHL1   C1116432   0.404   1.155  13.250 -0.4114  0.3850 -0.3371
  138CHL1  H11A16433   0.327   1.235  13.253 -1.5057 -0.6625  1.5829
  138CHL1  H11B16434   0.502   1.202  13.228 -0.0059 -0.8389 -1.2722
  138CHL1    C916435   0.386   1.053  13.126 -0.6661  0.0081 -0.0732
  138CHL1    H916436   0.479   0.992  13.117  0.3445  1.4149  0.4342
  138CHL1   C1016437   0.360   1.111  12.984 -0.8295  0.0025 -0.0867
  138CHL1   C1916438   0.250   1.214  12.987 -0.1726  0.6779 -0.3616
  138CHL1  H19A16439   0.283   1.292  13.059  0.0721 -2.0429  2.7382
  138CHL1  H19B16440   0.230   1.241  12.881  0.8625 -0.8887 -0.9787
  138CHL1  H19C16441   0.157   1.178  13.036 -0.3370  2.8773  1.0779
  138CHL1    C116442   0.493   1.179  12.932 -0.2699  0.3065 -0.3536
  138CHL1   H1A16443   0.511   1.264  13.001 -0.4457  0.6659 -0.7470
  138CHL1   H1B16444   0.581   1.112  12.942 -0.8788 -0.8780 -2.4303
  138CHL1    C216445   0.491   1.233  12.790  0.2325 -0.0605 -0.0492
  138CHL1   H2A16446   0.589   1.283  12.779 -0.5904  2.3950  2.5193
  138CHL1   H2B16447   0.418   1.317  12.791  1.0053  0.6797 -1.7801
  138CHL1   C2016448   0.285   0.947  13.679  0.0558  0.9452  0.1122
  138CHL1   H2016449   0.218   1.035  13.672 -2.3485 -0.7881 -0.1954
  138CHL1   C2116450   0.421   0.986  13.734 -0.6758  0.2223 -1.0371
  138CHL1  H21A16451   0.415   1.058  13.818 -0.8535 -1.7238  0.7132
  138CHL1  H21B16452   0.476   1.049  13.661  2.3524 -0.3946  0.5629
  138CHL1  H21C16453   0.477   0.894  13.762  0.4584  0.5309 -2.1704
  138CHL1   C2216454   0.204   0.853  13.773  0.1351  0.4932 -0.0333
  138CHL1  H22A16455   0.111   0.814  13.726 -1.1995  3.5813 -0.1440
  138CHL1  H22B16456   0.271   0.768  13.798  1.3646  1.9539  1.9006
  138CHL1   C2316457   0.165   0.930  13.902  0.0310 -0.5062 -0.6902
  138CHL1  H23A16458   0.244   0.989  13.953 -0.4734  1.4344 -2.0331
  138CHL1  H23B16459   0.082   0.995  13.867  1.3377  1.4558 -0.3406
  138CHL1   C2416460   0.106   0.828  14.004 -0.1147  0.6472  0.0813
  138CHL1  H24A16461   0.027   0.770  13.951 -1.2373  1.0056  1.3151
  138CHL1  H24B16462   0.193   0.761  14.020  1.3400  1.9675 -1.8399
  138CHL1   C2516463   0.062   0.885  14.145 -0.0817  0.0548  0.5741
  138CHL1   H2516464   0.147   0.945  14.183 -0.2626  0.1553  0.8273
  138CHL1   C2616465  -0.056   0.978  14.146  0.2237  0.7963  0.2590
  138CHL1  H26A16466  -0.151   0.921  14.136 -2.0488  4.1750  0.8638
  138CHL1  H26B16467  -0.064   1.031  14.243 -1.2132  2.0943 -0.5327
  138CHL1  H26C16468  -0.058   1.054  14.065  1.0092 -0.6275 -1.1593
  138CHL1   C2716469   0.035   0.769  14.238 -0.1209  0.7366 -0.6749
  138CHL1  H27A16470   0.015   0.799  14.343  0.7187 -0.2376 -0.2170
  138CHL1  H27B16471  -0.036   0.690  14.204 -0.3781  0.3452  0.6964
  138CHL1  H27C16472   0.123   0.702  14.241 -0.3780  0.4125 -0.1513
  139CHL1    C316473   1.840   0.517  12.841  0.9941  0.4136  0.7702
  139CHL1    H316474   1.854   0.407  12.842 -1.9517 -0.1481 -1.9909
  139CHL1    O316475   1.834   0.566  12.707 -0.0307 -0.1655 -0.0646
  139CHL1   H3'16476   1.918   0.542  12.668 -0.4746 -1.3421 -0.3440
  139CHL1    C416477   1.699   0.537  12.906 -0.4884  0.2831 -0.5778
  139CHL1   H4A16478   1.663   0.638  12.876 -1.4312  0.7957  2.0342
  139CHL1   H4B16479   1.637   0.467  12.847 -0.6505  0.8831 -1.1231
  139CHL1    C516480   1.698   0.511  13.058  0.3711 -0.0002 -0.1333
  139CHL1    C616481   1.616   0.414  13.113 -0.7301 -0.4585 -0.2591
  139CHL1    H616482   1.546   0.354  13.054 -0.0876 -3.0466  1.4385
  139CHL1    C716483   1.619   0.384  13.259  0.3489 -0.2028 -0.0829
  139CHL1   H7A16484   1.516   0.374  13.299 -0.3663  2.4330 -1.0559
  139CHL1   H7B16485   1.669   0.287  13.278  0.5123  0.0366  0.7770
  139CHL1    C816486   1.689   0.491  13.349  0.0232  0.0637  0.5003
  139CHL1    H816487   1.628   0.584  13.343  1.1335  1.0051  2.6732
  139CHL1   C1416488   1.696   0.449  13.495 -0.6772 -0.8042  0.5129
  139CHL1   H1416489   1.750   0.352  13.497  0.2000 -0.3557 -0.3874
  139CHL1   C1516490   1.566   0.412  13.566  0.4662  0.3323  0.4847
  139CHL1  H15A16491   1.484   0.487  13.562  1.6053  1.5718 -0.5546
  139CHL1  H15B16492   1.520   0.315  13.536 -1.2818  1.3521 -0.3322
  139CHL1   C1616493   1.608   0.413  13.712 -0.4616  0.6748  0.1941
  139CHL1  H16A16494   1.536   0.478  13.764 -0.9070 -0.3208  0.8528
  139CHL1  H16B16495   1.611   0.318  13.769  0.6867  1.3607  1.3093
  139CHL1   C1716496   1.756   0.466  13.714 -0.0632 -0.4797 -0.6988
  139CHL1   H1716497   1.820   0.376  13.703  0.2720 -0.0765 -2.3134
  139CHL1   C1316498   1.778   0.543  13.573 -0.5248 -0.2614 -0.9070
  139CHL1   C1816499   1.714   0.681  13.569 -0.0058 -0.1808  0.0663
  139CHL1  H18A16500   1.769   0.756  13.629  1.0813 -1.1997  0.3747
  139CHL1  H18B16501   1.704   0.719  13.465 -0.2871 -0.6450 -0.0797
  139CHL1  H18C16502   1.610   0.681  13.607 -0.3240  1.3029 -0.7032
  139CHL1   C1216503   1.922   0.542  13.519  0.7223 -0.4094  0.0754
  139CHL1  H12A16504   1.992   0.609  13.574 -0.3184  2.0251 -1.3858
  139CHL1  H12B16505   1.966   0.440  13.526  0.3215 -1.1573 -4.9994
  139CHL1   C1116506   1.927   0.596  13.374  0.4149 -0.0128  0.6384
  139CHL1  H11A16507   1.901   0.704  13.382  0.7640 -0.0293  2.5844
  139CHL1  H11B16508   2.030   0.584  13.337 -0.0529  2.6248 -1.9324
  139CHL1    C916509   1.827   0.521  13.282  0.4756 -0.3149  0.0071
  139CHL1    H916510   1.876   0.423  13.264  0.0679 -0.3285 -1.0749
  139CHL1   C1016511   1.817   0.577  13.141 -0.2851 -0.1762 -0.5084
  139CHL1   C1916512   1.786   0.724  13.145 -0.1945 -0.1410  0.2037
  139CHL1  H19A16513   1.692   0.742  13.201 -0.3696  1.7634 -0.6022
  139CHL1  H19B16514   1.874   0.779  13.187  0.3849 -2.0756  1.6606
  139CHL1  H19C16515   1.775   0.772  13.045  1.3571  0.3132  0.2165
  139CHL1    C116516   1.949   0.554  13.058  0.2986  0.3085 -1.1295
  139CHL1   H1A16517   2.022   0.621  13.109 -0.4018  1.5395 -1.6913
  139CHL1   H1B16518   1.989   0.451  13.065 -0.0672  0.2516  0.9415
  139CHL1    C216519   1.950   0.588  12.911 -0.2168 -0.2673  0.4164
  139CHL1   H2A16520   2.041   0.541  12.867  0.0672 -0.8630  1.5856
  139CHL1   H2B16521   1.932   0.695  12.890 -1.1326 -0.6266 -0.7004
  139CHL1   C2016522   1.797   0.543  13.841  0.1541  0.2276 -0.1100
  139CHL1   H2016523   1.754   0.645  13.843 -2.2800 -0.6160  4.3027
  139CHL1   C2116524   1.945   0.562  13.853 -0.4485  0.1290 -0.6584
  139CHL1  H21A16525   2.003   0.615  13.774  2.5768 -1.7414  0.1245
  139CHL1  H21B16526   2.003   0.467  13.855  2.1556  1.5906 -1.4424
  139CHL1  H21C16527   1.973   0.605  13.952  0.1534  0.2765 -0.8844
  139CHL1   C2216528   1.747   0.480  13.974 -0.5589 -0.4111 -0.4619
  139CHL1  H22A16529   1.770   0.548  14.059  0.7404 -0.4108 -0.8018
  139CHL1  H22B16530   1.636   0.471  13.970 -0.7226  0.7556  0.7401
  139CHL1   C2316531   1.805   0.336  14.003 -0.9867 -0.4791  0.1557
  139CHL1  H23A16532   1.770   0.268  13.922  0.4159 -1.3298  0.2364
  139CHL1  H23B16533   1.915   0.332  13.988 -1.2274 -1.4257 -1.6515
  139CHL1   C2416534   1.761   0.282  14.135 -0.1045 -0.1280  0.1070
  139CHL1  H24A16535   1.805   0.182  14.150 -0.0673  0.0502  1.2768
  139CHL1  H24B16536   1.799   0.348  14.217  0.0100 -0.5403  0.3860
  139CHL1   C2516537   1.611   0.271  14.157  0.7302 -0.1317 -0.0114
  139CHL1   H2516538   1.568   0.372  14.169  1.5169  0.0387  1.6965
  139CHL1   C2616539   1.542   0.205  14.040 -0.0503 -0.0870 -0.4465
  139CHL1  H26A16540   1.443   0.170  14.077  0.0749  1.3973  1.4510
  139CHL1  H26B16541   1.533   0.280  13.958 -0.4445 -0.1215 -0.4348
  139CHL1  H26C16542   1.602   0.125  13.992 -1.2032 -0.5690 -1.1103
  139CHL1   C2716543   1.580   0.189  14.279  0.1978  0.3938 -0.2968
  139CHL1  H27A16544   1.470   0.184  14.290  0.2425 -1.9724 -0.4340
  139CHL1  H27B16545   1.624   0.087  14.271 -0.4069  0.1509 -0.6388
  139CHL1  H27C16546   1.623   0.241  14.367  0.0393  1.7316 -0.9735
  140CHL1    C316547   1.018   1.198  12.991 -0.0758 -0.3876  0.2392
  140CHL1    H316548   0.936   1.273  12.990 -0.7817 -1.0116  2.6512
  140CHL1    O316549   1.090   1.182  12.872  0.0564 -0.0102 -0.3885
  140CHL1   H3'16550   1.153   1.254  12.862  1.9700 -1.2684  1.7050
  140CHL1    C416551   1.111   1.232  13.103 -0.4236 -0.0679  0.1858
  140CHL1   H4A16552   1.195   1.158  13.103 -0.6671 -0.3599  1.0233
  140CHL1   H4B16553   1.162   1.329  13.084 -1.1641  0.9651  2.9868
  140CHL1    C516554   1.041   1.231  13.239  0.0837  0.7677  0.1368
  140CHL1    C616555   1.044   1.342  13.310 -0.8538  0.1180  0.1420
  140CHL1    H616556   1.102   1.429  13.277 -1.1715  0.0765 -0.5277
  140CHL1    C716557   0.992   1.351  13.451 -0.5026 -0.6908  0.2956
  140CHL1   H7A16558   1.068   1.396  13.519  0.0220 -2.3119  0.8325
  140CHL1   H7B16559   0.901   1.415  13.450  0.1993  0.4039  2.1631
  140CHL1    C816560   0.957   1.207  13.508 -0.1668  0.4149 -0.6557
  140CHL1    H816561   1.059   1.163  13.520  0.0134  1.4390  2.4849
  140CHL1   C1416562   0.884   1.214  13.642 -0.6323  0.2331  0.0794
  140CHL1   H1416563   0.782   1.250  13.617  0.1402  1.2690 -1.8864
  140CHL1   C1516564   0.928   1.320  13.736 -0.1519 -0.7642 -0.1569
  140CHL1  H15A16565   1.037   1.308  13.755 -0.3847 -2.8954  0.0682
  140CHL1  H15B16566   0.894   1.423  13.711 -1.2312 -0.4822  2.1875
  140CHL1   C1616567   0.845   1.275  13.860 -0.1241  0.0500  1.1522
  140CHL1  H16A16568   0.901   1.278  13.956 -0.4840 -1.5078  1.4364
  140CHL1  H16B16569   0.756   1.341  13.862 -1.1922 -1.2231 -0.8962
  140CHL1   C1716570   0.789   1.129  13.833 -0.4110  0.3608 -0.5996
  140CHL1   H1716571   0.682   1.131  13.804 -0.4914  1.1860 -0.2747
  140CHL1   C1316572   0.861   1.084  13.711  0.5128  0.5516  0.2688
  140CHL1   C1816573   0.997   1.013  13.753  0.8189 -1.2881  0.3143
  140CHL1  H18A16574   1.046   1.084  13.823  1.0542  2.2702 -3.1279
  140CHL1  H18B16575   0.973   0.913  13.795  1.6622 -1.5544  0.1844
  140CHL1  H18C16576   1.064   1.004  13.665 -0.1097  1.7189 -0.8113
  140CHL1   C1216577   0.772   0.999  13.612  0.2570 -0.2810 -0.6791
  140CHL1  H12A16578   0.760   0.900  13.661 -0.1072  0.7636  1.4724
  140CHL1  H12B16579   0.678   1.059  13.607  1.6985  2.1833  0.0571
  140CHL1   C1116580   0.832   0.990  13.468 -0.4453  0.1873 -0.0969
  140CHL1  H11A16581   0.919   0.924  13.491 -1.0568 -0.0407  1.7543
  140CHL1  H11B16582   0.771   0.928  13.400 -1.1377  0.7773 -0.0262
  140CHL1    C916583   0.884   1.121  13.405  0.2783  0.0942 -0.0959
  140CHL1    H916584   0.798   1.181  13.369  0.5570  0.9862  0.6818
  140CHL1   C1016585   0.972   1.101  13.280  0.1261 -0.1312 -0.3597
  140CHL1   C1916586   1.074   0.984  13.305  0.1310 -0.1964  0.8160
  140CHL1  H19A16587   1.120   1.001  13.404 -1.3311  0.6452  1.3906
  140CHL1  H19B16588   1.020   0.887  13.312 -1.7548  0.6843 -0.5129
  140CHL1  H19C16589   1.159   0.975  13.234 -0.6441 -2.7018  0.1253
  140CHL1    C116590   0.878   1.062  13.161  0.2774  0.3315 -0.0697
  140CHL1   H1A16591   0.843   0.959  13.184  0.4504  0.0937 -0.8661
  140CHL1   H1B16592   0.797   1.138  13.165  2.0185  2.4065 -1.5652
  140CHL1    C216593   0.948   1.061  13.019 -0.0688  0.7762 -0.4635
  140CHL1   H2A16594   0.872   1.037  12.942 -1.1119 -1.6223  1.1655
  140CHL1   H2B16595   1.027   0.984  13.006 -1.1208 -0.2694 -0.8573
  140CHL1   C2016596   0.800   1.039  13.957  0.0312  0.3225 -0.3242
  140CHL1   H2016597   0.908   1.033  13.980  0.1162  0.0184 -0.7899
  140CHL1   C2116598   0.740   0.892  13.940 -0.6667  0.0632  0.0188
  140CHL1  H21A16599   0.761   0.827  14.027  1.1740  0.4547 -0.0955
  140CHL1  H21B16600   0.782   0.837  13.853  0.5310  2.0857 -0.7456
  140CHL1  H21C16601   0.630   0.903  13.924 -0.9944 -1.4844  1.0104
  140CHL1   C2216602   0.740   1.104  14.086  0.1076 -1.2630 -0.0953
  140CHL1  H22A16603   0.802   1.194  14.104 -0.3254 -0.7660 -1.0272
  140CHL1  H22B16604   0.636   1.138  14.066  0.9047  1.0524 -0.5529
  140CHL1   C2316605   0.752   1.016  14.210 -0.3861 -0.2340  0.5344
  140CHL1  H23A16606   0.713   1.055  14.306  3.0014  3.4786  0.6820
  140CHL1  H23B16607   0.702   0.918  14.193  0.1546 -0.4737  0.2951
  140CHL1   C2416608   0.896   0.986  14.257  0.3174 -0.2901  0.6552
  140CHL1  H24A16609   0.947   0.933  14.174  1.9669  1.7624  0.2610
  140CHL1  H24B16610   0.944   1.085  14.272  0.1244  0.0789 -0.9488
  140CHL1   C2516611   0.899   0.927  14.392 -0.6098 -0.2881  0.0168
  140CHL1   H2516612   0.820   0.982  14.447 -2.2371 -0.6677 -1.8237
  140CHL1   C2616613   1.036   0.946  14.455 -0.6905  0.0416  0.0587
  140CHL1  H26A16614   1.033   1.033  14.523 -0.4114  0.9618 -1.0773
  140CHL1  H26B16615   1.076   0.858  14.510  0.3908  1.3540  1.4400
  140CHL1  H26C16616   1.118   0.966  14.382 -0.3895  1.0763  0.6683
  140CHL1   C2716617   0.858   0.777  14.385  0.5350  0.0426  0.3962
  140CHL1  H27A16618   0.913   0.732  14.300  0.0107 -0.2174  0.1926
  140CHL1  H27B16619   0.875   0.727  14.483 -0.1912  1.0300  1.0375
  140CHL1  H27C16620   0.751   0.763  14.360 -0.3307  1.0775  3.0911
  141DOPC     N16621   3.710   2.737  17.523  0.5782  0.1961  0.2390
  141DOPC   C1216622   3.771   2.872  17.556  1.0248 -0.0096 -0.3298
  141DOPC  H12A16623   3.767   2.898  17.660 -3.1520  2.0344 -0.8013
  141DOPC  H12B16624   3.714   2.955  17.516 -0.0001 -0.5373  0.0051
  141DOPC   C1316625   3.794   2.630  17.590 -0.3524 -0.8389 -0.1769
  141DOPC  H13A16626   3.741   2.536  17.578  1.3250 -1.9482  0.6426
  141DOPC  H13B16627   3.893   2.622  17.548  0.1301 -1.3093  0.9995
  141DOPC  H13C16628   3.800   2.632  17.698 -1.1462 -1.4559 -0.1139
  141DOPC   C1416629   3.707   2.698  17.381  0.0608  0.2437  0.9371
  141DOPC  H14A16630   3.802   2.727  17.337 -0.2398  1.6105  1.1237
  141DOPC  H14B16631   3.668   2.600  17.362 -1.5308  1.0617 -0.2716
  141DOPC  H14C16632   3.634   2.762  17.334 -0.1678 -0.4203  0.3735
  141DOPC   C1516633   3.562   2.740  17.573  0.5272  0.2653 -0.5009
  141DOPC  H15A16634   3.557   2.766  17.678 -2.7674  0.2822 -0.5649
  141DOPC  H15B16635   3.519   2.641  17.565  1.1979 -0.0235 -0.5669
  141DOPC  H15C16636   3.500   2.810  17.520 -0.1025  1.2765  1.4783
  141DOPC   C1116637   3.926   2.893  17.520  0.1408  0.4039  0.5551
  141DOPC  H11A16638   3.971   2.985  17.564 -0.1452  1.2514 -0.8683
  141DOPC  H11B16639   3.976   2.803  17.560 -1.6344 -1.3014 -0.8884
  141DOPC     P16640   3.927   3.034  17.289 -0.2677  0.1476 -0.1472
  141DOPC   O1316641   4.039   3.120  17.342  0.0960  0.2356 -0.0299
  141DOPC   O1416642   3.793   3.093  17.303  0.8528  0.1654 -0.3147
  141DOPC   O1216643   3.932   2.898  17.375 -0.9419  0.0817 -0.1544
  141DOPC   O1116644   3.956   2.993  17.145  0.0796  0.5099  0.3839
  141DOPC    C116645   3.882   2.885  17.079 -0.4156  0.5988  0.4042
  141DOPC    HA16646   3.804   2.841  17.145  0.1786 -0.3892  0.4659
  141DOPC    HB16647   3.949   2.804  17.042 -0.8273  0.2831  0.3470
  141DOPC    C216648   3.798   2.937  16.952 -0.2997 -0.7492 -0.1146
  141DOPC    HS16649   3.724   2.856  16.936 -0.7228 -0.3166 -0.3573
  141DOPC   O2116650   3.887   2.974  16.841  0.4081  0.5826  0.6195
  141DOPC   C2116651   3.938   2.870  16.773  0.4171 -0.0349 -0.6267
  141DOPC   O2216652   3.920   2.753  16.805  0.2202 -0.2623  0.1709
  141DOPC   C2216653   4.049   2.926  16.681 -0.0931 -0.0440 -0.1599
  141DOPC   H2R16654   4.120   2.847  16.649  1.5040  0.5877  1.5985
  141DOPC   H2S16655   4.105   2.997  16.745  1.0362 -0.9398 -0.1282
  141DOPC    C316656   3.708   3.058  16.985 -0.0617 -0.1224 -0.3462
  141DOPC    HX16657   3.771   3.150  16.992 -1.2824  0.5927  2.0421
  141DOPC    HY16658   3.653   3.048  17.081  1.6912 -1.6824  0.5598
  141DOPC   O3116659   3.617   3.073  16.876 -0.0336  0.1533 -0.8329
  141DOPC   C3116660   3.510   2.999  16.865  0.4507  0.1675  0.0274
  141DOPC   O3216661   3.470   2.922  16.952 -0.0732  0.4658 -0.2102
  141DOPC   C3216662   3.458   3.013  16.721 -0.0985  0.3223 -0.8308
  141DOPC   H2X16663   3.400   3.108  16.723 -0.1274  0.3330 -1.6624
  141DOPC   H2Y16664   3.550   3.029  16.661  0.7623 -0.4031  0.2643
  141DOPC   C2316665   3.993   2.992  16.549 -0.8373  0.0763 -0.3228
  141DOPC   H3R16666   4.072   3.058  16.509 -0.2368 -0.6334 -0.3331
  141DOPC   H3S16667   3.907   3.059  16.570 -2.0797 -1.2760 -0.9202
  141DOPC   C2416668   3.949   2.887  16.448  0.0833  0.5491  0.0011
  141DOPC   H4R16669   3.847   2.849  16.471 -0.2624 -0.7014 -3.0530
  141DOPC   H4S16670   4.006   2.794  16.432 -2.3760 -0.7555 -2.1367
  141DOPC   C2516671   3.948   2.960  16.312  0.1697  0.1730  0.2372
  141DOPC   H5R16672   4.041   3.020  16.300 -0.7286  1.6456  0.4287
  141DOPC   H5S16673   3.861   3.028  16.303 -0.3199 -0.4403  0.1980
  141DOPC   C2616674   3.947   2.857  16.196 -0.7306 -0.5042 -0.3296
  141DOPC   H6R16675   3.849   2.804  16.201 -0.5694 -1.1107 -2.5098
  141DOPC   H6S16676   4.024   2.780  16.217  0.3902  0.1425 -1.9469
  141DOPC   C2716677   3.957   2.936  16.069 -0.2197  0.8023 -0.0243
  141DOPC   H7R16678   4.034   3.013  16.092 -0.3967  0.3179  2.4421
  141DOPC   H7S16679   3.869   2.998  16.042  0.3487  1.8438  0.4356
  141DOPC   C2816680   4.002   2.848  15.955 -0.6075  0.4126  0.1114
  141DOPC   H8R16681   4.083   2.777  15.982 -0.8379 -0.7858 -2.0915
  141DOPC   H8S16682   4.052   2.906  15.875  1.5358 -1.1877  0.2061
  141DOPC   C2916683   3.876   2.775  15.909  0.1279 -0.1722 -0.1851
  141DOPC   H9R16684   3.817   2.739  15.994  2.2036 -0.3000  1.2708
  141DOPC  C21016685   3.843   2.755  15.779 -0.1015  0.6573 -0.3315
  141DOPC  H10R16686   3.744   2.721  15.747  0.9556 -2.1307 -0.9438
  141DOPC  C21116687   3.928   2.799  15.664  0.3952 -0.5421  0.3506
  141DOPC  H11R16688   4.004   2.719  15.646  0.1536 -0.5847 -0.5576
  141DOPC  H11S16689   3.980   2.894  15.688  0.4669 -0.7482  1.0373
  141DOPC  C21216690   3.863   2.800  15.527  0.3474 -0.4033  0.2300
  141DOPC  H12R16691   3.771   2.863  15.528 -2.2077 -3.7553 -1.8516
  141DOPC  H12S16692   3.826   2.697  15.511 -1.2827 -0.2812  2.6735
  141DOPC  C21316693   3.953   2.849  15.413 -0.0367 -0.2397 -0.0287
  141DOPC  H13R16694   4.033   2.775  15.393  2.0913  1.2881  2.1451
  141DOPC  H13S16695   4.001   2.937  15.462  1.1748 -1.4272  0.9746
  141DOPC  C21416696   3.866   2.897  15.291 -0.1743  0.1186 -0.5733
  141DOPC  H14R16697   3.796   2.978  15.318  1.3287  1.2279  0.1850
  141DOPC  H14S16698   3.818   2.803  15.257  1.6752 -1.3939  0.7991
  141DOPC  C21516699   3.962   2.941  15.178 -0.1531 -0.2019  0.2405
  141DOPC  H15R16700   4.043   2.867  15.164  0.0087  0.0001  0.1111
  141DOPC  H15S16701   3.999   3.044  15.199 -1.8476  0.3342  0.7509
  141DOPC  C21616702   3.900   2.942  15.036 -0.5618  0.0473  0.2902
  141DOPC  H16R16703   3.807   3.003  15.045  0.1477  0.9004  2.4672
  141DOPC  H16S16704   3.876   2.841  14.998 -0.8929  0.6435 -1.1958
  141DOPC  C21716705   3.987   3.005  14.924 -0.0133  0.3861 -0.2324
  141DOPC  H17R16706   4.076   2.941  14.903  1.5118  2.4944 -0.5189
  141DOPC  H17S16707   4.031   3.100  14.961  0.0208  0.9983 -1.7671
  141DOPC  C21816708   3.909   3.036  14.794  0.0983 -0.5379  0.4978
  141DOPC  H18R16709   3.861   2.943  14.757  0.8862 -0.3057 -1.2081
  141DOPC  H18S16710   3.979   3.073  14.716 -0.8882 -1.8608 -1.0747
  141DOPC  H18T16711   3.836   3.116  14.817  1.3726  1.0578 -0.7761
  141DOPC   C3316712   3.373   2.890  16.666  0.4191 -0.3119 -0.2086
  141DOPC   H3X16713   3.299   2.860  16.743  0.5077 -2.2432 -0.8235
  141DOPC   H3Y16714   3.442   2.803  16.654  1.8975  0.8099 -0.2495
  141DOPC   C3416715   3.297   2.921  16.531 -0.3719 -0.0192 -0.3852
  141DOPC   H4X16716   3.225   3.003  16.550 -0.4731  0.0489 -1.0603
  141DOPC   H4Y16717   3.233   2.835  16.502 -0.2112 -0.3871  0.3192
  141DOPC   C3516718   3.400   2.951  16.422 -0.2001 -0.4369 -0.1419
  141DOPC   H5X16719   3.481   2.875  16.429 -1.7432 -2.1007  0.5644
  141DOPC   H5Y16720   3.438   3.053  16.443 -2.1915  0.8580 -2.3187
  141DOPC   C3616721   3.342   2.950  16.287  0.7811 -0.1644 -0.2348
  141DOPC   H6X16722   3.293   2.852  16.270  0.5259  0.2039 -1.8114
  141DOPC   H6Y16723   3.271   3.036  16.295  1.3087  0.2398  0.1999
  141DOPC   C3716724   3.446   2.964  16.177 -1.1755  0.2993 -0.0853
  141DOPC   H7X16725   3.505   3.058  16.184 -0.0922 -0.3778  0.1350
  141DOPC   H7Y16726   3.522   2.887  16.200 -3.3462 -2.0107 -0.1679
  141DOPC   C3816727   3.378   2.946  16.038 -0.5512 -0.4993  0.2656
  141DOPC   H8X16728   3.319   3.039  16.025 -0.1792 -0.2315  0.4435
  141DOPC   H8Y16729   3.305   2.863  16.044 -0.1863 -0.7457  1.8451
  141DOPC   C3916730   3.488   2.924  15.933 -0.3449  0.5764  0.3863
  141DOPC   H9X16731   3.592   2.935  15.966  0.0707  0.5128 -0.8401
  141DOPC  C31016732   3.469   2.926  15.799  0.5448  0.7940 -0.7347
  141DOPC  H10X16733   3.546   2.901  15.725  2.8295  1.2685  1.3321
  141DOPC  C31116734   3.333   2.928  15.737  0.0447  0.4942 -0.4658
  141DOPC  H11X16735   3.280   3.021  15.767 -0.6867  0.0431 -0.3565
  141DOPC  H11Y16736   3.275   2.846  15.783  0.4810 -0.9625 -2.3680
  141DOPC  C31216737   3.312   2.887  15.598  0.6282 -0.1962 -0.4960
  141DOPC  H12X16738   3.201   2.875  15.597  0.3553  1.0820  2.6277
  141DOPC  H12Y16739   3.349   2.785  15.573 -0.4923 -1.8752  3.8022
  141DOPC  C31316740   3.367   2.987  15.492 -0.1118 -0.3359  0.6857
  141DOPC  H13X16741   3.315   3.085  15.500 -0.3887 -0.6344  3.4794
  141DOPC  H13Y16742   3.474   3.011  15.510 -0.2379  2.3259 -1.3916
  141DOPC  C31416743   3.348   2.933  15.348  0.1416 -0.1280  0.3301
  141DOPC  H14X16744   3.355   2.823  15.361  0.4693 -0.1377  0.0746
  141DOPC  H14Y16745   3.243   2.951  15.314  0.2066  0.2453  0.3231
  141DOPC  C31516746   3.443   2.986  15.230  0.8917 -0.1524 -0.3359
  141DOPC  H15X16747   3.549   2.957  15.245  1.3625 -0.2445 -3.3697
  141DOPC  H15Y16748   3.434   3.096  15.229  0.0639 -0.2191 -1.4990
  141DOPC  C31616749   3.399   2.923  15.092  0.2155 -0.3067 -0.2193
  141DOPC  H16X16750   3.477   2.851  15.058  0.7721  0.2366 -0.1010
  141DOPC  H16Y16751   3.311   2.857  15.108  2.2324 -3.7053 -1.8264
  141DOPC  C31716752   3.390   3.032  14.980 -0.1122 -0.4084 -0.4956
  141DOPC  H17X16753   3.314   3.111  15.001  0.0636 -0.5544  0.8033
  141DOPC  H17Y16754   3.486   3.088  14.984 -1.5379  2.1232  0.9764
  141DOPC  C31816755   3.368   2.982  14.838 -0.1462 -0.3200  0.0317
  141DOPC  H18X16756   3.457   2.929  14.797  0.8852  2.1256 -1.0304
  141DOPC  H18Y16757   3.288   2.905  14.835  1.3394 -1.9042 -1.0113
  141DOPC  H18Z16758   3.340   3.069  14.776 -1.0218  0.7914  1.9073
  142DOPC     N16759   4.024   3.593  17.802 -0.4893  0.2261 -0.0398
  142DOPC   C1216760   3.935   3.546  17.691 -0.3625  0.1242 -0.1782
  142DOPC  H12A16761   3.831   3.574  17.705 -0.6917 -1.2444  0.2350
  142DOPC  H12B16762   3.930   3.440  17.708 -2.0799  0.5465  2.7218
  142DOPC   C1316763   3.959   3.580  17.941  0.1315  0.1900  0.0318
  142DOPC  H13A16764   3.968   3.475  17.965  1.8695 -0.0487 -1.4254
  142DOPC  H13B16765   4.009   3.636  18.020  1.0562 -2.6071  1.5666
  142DOPC  H13C16766   3.857   3.614  17.942  0.0880  0.0524  0.3392
  142DOPC   C1416767   4.062   3.735  17.786 -0.4674  0.1390 -0.3088
  142DOPC  H14A16768   4.131   3.753  17.705 -0.7602  0.7422 -0.4289
  142DOPC  H14B16769   3.966   3.784  17.776 -0.4359  0.3549  0.4031
  142DOPC  H14C16770   4.101   3.780  17.876  0.5675 -0.7946 -0.2812
  142DOPC   C1516771   4.148   3.509  17.799 -0.4637 -0.1068 -0.1664
  142DOPC  H15A16772   4.225   3.528  17.873 -0.5243 -1.8682  0.3804
  142DOPC  H15B16773   4.197   3.522  17.703 -0.0086  1.0757  0.1982
  142DOPC  H15C16774   4.127   3.404  17.803 -2.8505  0.3331 -0.1712
  142DOPC   C1116775   3.978   3.559  17.546 -0.4674  0.0700 -0.1980
  142DOPC  H11A16776   3.907   3.498  17.487 -0.8218 -0.8545  1.1403
  142DOPC  H11B16777   3.973   3.666  17.518  0.5696 -0.0618 -0.9542
  142DOPC     P16778   4.196   3.581  17.403  0.0137  0.0746 -0.2310
  142DOPC   O1316779   4.272   3.480  17.331  0.4221  0.7223 -0.3977
  142DOPC   O1416780   4.272   3.696  17.462  0.2696  0.3654 -0.3801
  142DOPC   O1216781   4.105   3.505  17.522  0.3064  0.0286 -0.4691
  142DOPC   O1116782   4.090   3.642  17.306  0.0346  0.1260  0.1141
  142DOPC    C116783   4.013   3.551  17.219  0.5795  0.3685  0.3563
  142DOPC    HA16784   3.917   3.603  17.196  1.2848  1.7650  0.4952
  142DOPC    HB16785   3.984   3.455  17.267 -0.8365  0.6131  0.0489
  142DOPC    C216786   4.083   3.517  17.082 -0.2872  0.5391  0.5592
  142DOPC    HS16787   4.169   3.448  17.098 -0.0180 -0.3613 -3.5854
  142DOPC   O2116788   4.130   3.639  17.018  0.1068 -0.2945 -0.2185
  142DOPC   C2116789   4.241   3.631  16.944 -0.0121 -0.0547 -0.4055
  142DOPC   O2216790   4.316   3.530  16.941 -0.2975 -0.1125  0.4298
  142DOPC   C2216791   4.260   3.761  16.859  1.0089 -0.2354 -0.5780
  142DOPC   H2R16792   4.238   3.850  16.922  2.2354 -0.3510  0.0476
  142DOPC   H2S16793   4.184   3.763  16.779 -0.4198 -4.0767  0.4790
  142DOPC    C316794   3.985   3.441  16.992  0.2744 -0.2163  0.0380
  142DOPC    HX16795   3.898   3.508  16.976  1.2283  0.8563 -0.8267
  142DOPC    HY16796   3.949   3.354  17.050  1.0387 -1.9418 -1.9418
  142DOPC   O3116797   4.044   3.376  16.881  0.1959  0.8785 -0.1755
  142DOPC   C3116798   4.040   3.446  16.762 -1.4993 -0.1830  0.2947
  142DOPC   O3216799   3.991   3.560  16.749 -0.7436  0.4168  0.3608
  142DOPC   C3216800   4.100   3.364  16.644  0.3840  0.1680 -0.1560
  142DOPC   H2X16801   4.211   3.356  16.654  0.1821 -0.8791  1.7051
  142DOPC   H2Y16802   4.045   3.268  16.638 -0.9720  0.9643 -0.8116
  142DOPC   C2316803   4.406   3.759  16.798 -0.9416 -0.4038 -0.2089
  142DOPC   H3R16804   4.480   3.713  16.867 -0.5677  0.9738  0.3498
  142DOPC   H3S16805   4.456   3.855  16.775  2.2791 -2.0755 -0.7514
  142DOPC   C2416806   4.409   3.680  16.665 -0.8663 -0.6168 -0.6868
  142DOPC   H4R16807   4.323   3.711  16.601 -1.0261 -0.2738 -0.3110
  142DOPC   H4S16808   4.405   3.574  16.695  1.8608 -0.1943  1.5795
  142DOPC   C2516809   4.542   3.680  16.593 -0.6780 -0.4952 -0.4559
  142DOPC   H5R16810   4.610   3.643  16.673  1.9890  0.2091 -2.2413
  142DOPC   H5S16811   4.561   3.789  16.582  2.1380 -1.0485 -2.0216
  142DOPC   C2616812   4.539   3.595  16.466 -0.5304 -0.1330 -0.1486
  142DOPC   H6R16813   4.457   3.617  16.396  0.9815 -3.0528 -3.1225
  142DOPC   H6S16814   4.512   3.493  16.502  0.3057 -0.1371  0.5202
  142DOPC   C2716815   4.676   3.582  16.388  0.4018 -1.0978 -0.1456
  142DOPC   H7R16816   4.757   3.543  16.453  1.0653  2.5424  1.4408
  142DOPC   H7S16817   4.707   3.685  16.359 -1.4118 -0.7834 -1.0940
  142DOPC   C2816818   4.646   3.500  16.258 -0.0807 -0.4234 -0.1145
  142DOPC   H8R16819   4.570   3.561  16.205  0.6317  1.9980  1.4580
  142DOPC   H8S16820   4.606   3.402  16.292  0.9799 -0.7402  0.2451
  142DOPC   C2916821   4.766   3.486  16.167  0.1145 -0.9351 -0.0466
  142DOPC   H9R16822   4.836   3.408  16.201 -0.3080 -0.1314  2.9296
  142DOPC  C21016823   4.800   3.550  16.053 -0.2231 -0.3154 -0.9080
  142DOPC  H10R16824   4.890   3.523  15.995 -1.1901  0.1149 -2.6725
  142DOPC  C21116825   4.740   3.680  16.010  0.1238 -0.3638  0.4833
  142DOPC  H11R16826   4.822   3.746  15.973 -0.9983  1.2104  0.6829
  142DOPC  H11S16827   4.694   3.735  16.095 -0.6155  2.0415 -1.3595
  142DOPC  C21216828   4.626   3.672  15.904 -0.3001 -0.6792  1.1560
  142DOPC  H12R16829   4.591   3.773  15.875  1.0930 -0.3615  0.4730
  142DOPC  H12S16830   4.545   3.606  15.942 -0.9539 -0.9027 -0.5624
  142DOPC  C21316831   4.661   3.602  15.767  0.7473 -0.2061 -0.1507
  142DOPC  H13R16832   4.692   3.496  15.776  2.5671  0.1779 -1.3360
  142DOPC  H13S16833   4.748   3.655  15.722  1.3594  1.3457  2.6230
  142DOPC  C21416834   4.544   3.628  15.670  0.3065  0.2592  0.3712
  142DOPC  H14R16835   4.524   3.736  15.654  1.6399  0.1027 -3.2860
  142DOPC  H14S16836   4.446   3.585  15.701  0.0290  1.3427  1.0584
  142DOPC  C21516837   4.570   3.557  15.532  0.0545 -0.0609  0.3806
  142DOPC  H15R16838   4.487   3.581  15.463  2.6901  1.6829 -2.4664
  142DOPC  H15S16839   4.582   3.447  15.539  1.7960  0.1144  0.7966
  142DOPC  C21616840   4.691   3.615  15.457 -0.1104 -0.1169  0.6111
  142DOPC  H16R16841   4.781   3.607  15.521 -1.3253  3.9559  3.2473
  142DOPC  H16S16842   4.678   3.723  15.435 -1.3289 -0.5573 -1.0197
  142DOPC  C21716843   4.715   3.554  15.317 -0.1531  0.2290 -0.4401
  142DOPC  H17R16844   4.730   3.444  15.328 -0.4803  0.3253  1.2439
  142DOPC  H17S16845   4.815   3.591  15.286 -0.4000  0.3093 -1.1509
  142DOPC  C21816846   4.620   3.588  15.203  0.2211  0.0487 -0.9128
  142DOPC  H18R16847   4.645   3.535  15.108  3.0883  0.4390 -0.4700
  142DOPC  H18S16848   4.620   3.696  15.178  1.6829  0.0703 -0.9433
  142DOPC  H18T16849   4.520   3.553  15.235  0.4290 -0.2260 -0.5549
  142DOPC   C3316850   4.056   3.437  16.514  0.2911  0.0467 -0.5205
  142DOPC   H3X16851   4.085   3.542  16.535  1.0536 -0.4038  0.8011
  142DOPC   H3Y16852   3.945   3.442  16.507  0.3948  0.3830 -3.1618
  142DOPC   C3416853   4.118   3.375  16.398 -0.0276  0.0995  0.0835
  142DOPC   H4X16854   4.082   3.272  16.380  0.9525 -0.3719  0.7198
  142DOPC   H4Y16855   4.228   3.379  16.410 -0.1668  2.8740  1.5467
  142DOPC   C3516856   4.096   3.462  16.276  0.0746 -0.1693 -0.0631
  142DOPC   H5X16857   4.152   3.556  16.296  0.3246 -0.6886  1.9544
  142DOPC   H5Y16858   3.987   3.482  16.265  0.1618 -0.4550 -1.7392
  142DOPC   C3616859   4.144   3.398  16.142  0.2551 -0.3424  0.0710
  142DOPC   H6X16860   4.080   3.307  16.135 -1.0795  0.5869 -0.1965
  142DOPC   H6Y16861   4.113   3.454  16.052  0.1030 -0.1210  0.2581
  142DOPC   C3716862   4.291   3.369  16.129  0.4639 -0.3925 -0.0987
  142DOPC   H7X16863   4.335   3.470  16.142  0.2371  0.0262 -2.1676
  142DOPC   H7Y16864   4.335   3.297  16.200 -2.4375 -1.5330  0.6676
  142DOPC   C3816865   4.331   3.320  15.992 -0.1761 -0.3832  0.2696
  142DOPC   H8X16866   4.441   3.325  15.978 -0.3062  4.2591 -0.8186
  142DOPC   H8Y16867   4.290   3.400  15.926 -0.4961  1.5315  2.6597
  142DOPC   C3916868   4.281   3.182  15.958 -0.3645 -0.0875  0.1172
  142DOPC   H9X16869   4.309   3.108  16.035 -0.0647  1.2861  1.3891
  142DOPC  C31016870   4.234   3.146  15.835 -0.1178 -0.0348  0.5003
  142DOPC  H10X16871   4.213   3.039  15.823  0.4472  0.1328 -2.9820
  142DOPC  C31116872   4.205   3.228  15.711 -0.5408  0.3475 -0.0551
  142DOPC  H11X16873   4.198   3.336  15.737  0.5555  0.2435  0.7675
  142DOPC  H11Y16874   4.113   3.186  15.666  0.6908 -0.9868 -1.4515
  142DOPC  C31216875   4.324   3.212  15.618  0.1995 -0.2053 -0.0163
  142DOPC  H12X16876   4.347   3.104  15.615 -1.0602 -0.4918 -0.0284
  142DOPC  H12Y16877   4.414   3.256  15.666 -0.1264  1.9330 -1.2147
  142DOPC  C31316878   4.308   3.252  15.464 -0.7438  1.2413 -0.9287
  142DOPC  H13X16879   4.239   3.340  15.466 -3.5917 -0.8405  1.0199
  142DOPC  H13Y16880   4.408   3.293  15.439  1.0013 -2.9459 -1.6762
  142DOPC  C31416881   4.279   3.138  15.370 -0.3639 -0.4813 -0.0054
  142DOPC  H14X16882   4.361   3.065  15.391 -0.3157 -0.3764  0.1743
  142DOPC  H14Y16883   4.184   3.083  15.387 -0.5211 -0.2421 -0.1074
  142DOPC  C31516884   4.274   3.178  15.219 -0.0392  0.5051 -0.0920
  142DOPC  H15X16885   4.209   3.267  15.208  0.9145  1.2177 -0.0133
  142DOPC  H15Y16886   4.228   3.097  15.157 -0.8114  0.3230  0.6860
  142DOPC  C31616887   4.410   3.224  15.152  0.4337 -0.4991 -0.1165
  142DOPC  H16X16888   4.438   3.317  15.204 -3.7869  1.8793 -1.5613
  142DOPC  H16Y16889   4.478   3.136  15.161  0.0876 -0.7017  0.5524
  142DOPC  C31716890   4.388   3.247  15.002 -0.1488 -0.5689  0.4125
  142DOPC  H17X16891   4.338   3.163  14.948  1.9177 -0.8206 -1.2497
  142DOPC  H17Y16892   4.333   3.342  14.985  1.9607  0.9082  1.4227
  142DOPC  C31816893   4.523   3.267  14.927  0.6301  0.2694 -0.4170
  142DOPC  H18X16894   4.571   3.367  14.936 -1.1462  1.1609 -0.5396
  142DOPC  H18Y16895   4.588   3.190  14.975 -1.0204  0.2992  1.9924
  142DOPC  H18Z16896   4.512   3.235  14.821 -2.3830 -0.5568  0.0383
  143DOPC     N16897   1.561   4.084  17.409 -0.9511  0.2234 -0.8093
  143DOPC   C1216898   1.468   4.076  17.289  0.7730 -0.0297  0.0457
  143DOPC  H12A16899   1.369   4.092  17.327  1.3208  2.5251  0.5714
  143DOPC  H12B16900   1.471   3.975  17.251 -1.2196  1.2876 -4.2986
  143DOPC   C1316901   1.509   3.975  17.503 -0.6709 -0.0735 -0.2250
  143DOPC  H13A16902   1.494   3.880  17.455  2.2268 -0.9914  0.5275
  143DOPC  H13B16903   1.560   3.978  17.598  0.5413  2.4113 -0.8536
  143DOPC  H13C16904   1.403   3.995  17.516 -1.3680 -2.6146 -1.4213
  143DOPC   C1416905   1.546   4.215  17.477  0.2408  0.3050  0.3277
  143DOPC  H14A16906   1.613   4.230  17.561  1.2553  1.9825 -0.7173
  143DOPC  H14B16907   1.568   4.297  17.410  0.1111 -0.9380 -1.2787
  143DOPC  H14C16908   1.441   4.227  17.497  0.2716  2.1482 -0.3434
  143DOPC   C1516909   1.706   4.051  17.372  0.1959 -0.0169 -0.1385
  143DOPC  H15A16910   1.771   4.030  17.455  1.3212 -0.4857 -1.1139
  143DOPC  H15B16911   1.742   4.143  17.328 -0.4150  0.6018  0.6297
  143DOPC  H15C16912   1.708   3.964  17.308 -1.5238 -2.0423  2.3606
  143DOPC   C1116913   1.505   4.150  17.162 -0.2390  0.6881  0.1360
  143DOPC  H11A16914   1.594   4.098  17.121 -2.8891 -2.8378 -1.8477
  143DOPC  H11B16915   1.432   4.125  17.081  0.1540  0.4052 -0.1338
  143DOPC     P16916   1.628   4.376  17.135 -0.1249  0.4072  0.0205
  143DOPC   O1316917   1.746   4.327  17.216  0.3964  0.3092 -0.2665
  143DOPC   O1416918   1.590   4.517  17.140  0.2792  0.0669 -1.1441
  143DOPC   O1216919   1.504   4.291  17.181  0.1923  0.2268 -0.5603
  143DOPC   O1116920   1.642   4.336  16.981 -0.3185 -0.1444 -0.3571
  143DOPC    C116921   1.538   4.349  16.886 -0.1676  0.1656  0.3073
  143DOPC    HA16922   1.507   4.455  16.875  0.2291  0.0964 -2.0429
  143DOPC    HB16923   1.451   4.281  16.900 -0.1445 -0.0200 -0.4039
  143DOPC    C216924   1.587   4.298  16.746 -0.9630 -0.2407 -0.7008
  143DOPC    HS16925   1.606   4.189  16.752  0.5976 -0.1331 -2.6586
  143DOPC   O2116926   1.721   4.364  16.731  0.4227 -0.0143 -0.4979
  143DOPC   C2116927   1.806   4.293  16.658  0.1884 -0.0487  0.2773
  143DOPC   O2216928   1.778   4.191  16.594  0.0323 -0.0368  1.3974
  143DOPC   C2216929   1.936   4.362  16.649 -0.1676 -0.0538  0.5068
  143DOPC   H2R16930   1.980   4.401  16.744  1.3792  1.0507 -0.6070
  143DOPC   H2S16931   1.927   4.450  16.582  0.3518  1.3252  2.1619
  143DOPC    C316932   1.491   4.330  16.629 -0.5576 -1.1558 -0.4244
  143DOPC    HX16933   1.488   4.441  16.628  2.6361 -0.9813 -1.1476
  143DOPC    HY16934   1.393   4.284  16.654  0.2010 -2.7469 -0.2219
  143DOPC   O3116935   1.528   4.290  16.496  0.2867  0.5210  0.3576
  143DOPC   C3116936   1.607   4.374  16.423 -0.1483  0.7440 -0.0526
  143DOPC   O3216937   1.651   4.480  16.455 -0.2448  0.0152 -0.1668
  143DOPC   C3216938   1.642   4.306  16.293  0.1768  0.0327 -0.4304
  143DOPC   H2X16939   1.586   4.210  16.295  0.0175  0.1331 -0.0007
  143DOPC   H2Y16940   1.618   4.371  16.206  2.0640  0.2796 -0.8061
  143DOPC   C2316941   2.051   4.272  16.592  0.5104  0.5380 -0.6553
  143DOPC   H3R16942   2.022   4.222  16.497  1.0965  0.1111 -0.6109
  143DOPC   H3S16943   2.068   4.193  16.668 -1.6742  0.7696  0.1322
  143DOPC   C2416944   2.173   4.352  16.563 -0.4461 -0.0114  0.4073
  143DOPC   H4R16945   2.252   4.274  16.561 -1.2740 -0.8703  0.2098
  143DOPC   H4S16946   2.193   4.424  16.644 -0.8339 -0.6978  1.1273
  143DOPC   C2516947   2.175   4.415  16.420  0.3940 -0.8976  0.2474
  143DOPC   H5R16948   2.104   4.499  16.407 -1.5233 -2.0753  2.4718
  143DOPC   H5S16949   2.155   4.342  16.340 -0.4718  0.2235 -0.5955
  143DOPC   C2616950   2.305   4.494  16.382 -0.9269  0.2119  0.5870
  143DOPC   H6R16951   2.327   4.583  16.445 -1.5129  0.5134  0.3760
  143DOPC   H6S16952   2.297   4.528  16.276  2.5871 -2.5543 -0.7852
  143DOPC   C2716953   2.429   4.406  16.385 -0.1243  0.3162 -0.0556
  143DOPC   H7R16954   2.391   4.326  16.317 -2.7459  1.5013 -0.1146
  143DOPC   H7S16955   2.445   4.369  16.488 -0.5758  1.3035  0.3743
  143DOPC   C2816956   2.564   4.447  16.324  0.5525  0.6615  0.4169
  143DOPC   H8R16957   2.604   4.530  16.387  1.1151  0.2405  0.6250
  143DOPC   H8S16958   2.550   4.499  16.227 -0.1046  1.2551  0.8162
  143DOPC   C2916959   2.659   4.326  16.323 -0.5780 -0.9166  0.7937
  143DOPC   H9R16960   2.714   4.313  16.417 -0.1426  3.7999  1.3901
  143DOPC  C21016961   2.717   4.270  16.213 -0.1678 -0.4958  0.3347
  143DOPC  H10R16962   2.797   4.195  16.229 -0.5775 -0.3394  3.7865
  143DOPC  C21116963   2.676   4.287  16.066  0.0174 -0.3173 -0.4886
  143DOPC  H11R16964   2.591   4.358  16.052  2.3849  2.8766  0.1840
  143DOPC  H11S16965   2.645   4.188  16.026  1.4819 -1.1998  0.4762
  143DOPC  C21216966   2.802   4.345  15.997 -0.0585 -0.4528  0.2034
  143DOPC  H12R16967   2.886   4.272  16.001 -0.7285 -1.2593 -0.0477
  143DOPC  H12S16968   2.841   4.434  16.051 -0.6046  0.7268 -1.2828
  143DOPC  C21316969   2.777   4.395  15.855 -0.0979 -0.0133  0.1130
  143DOPC  H13R16970   2.855   4.461  15.814  1.0987 -1.5517 -0.1807
  143DOPC  H13S16971   2.684   4.455  15.844 -0.1515 -0.1641 -0.2539
  143DOPC  C21416972   2.791   4.278  15.762 -0.1087  0.1040 -0.5492
  143DOPC  H14R16973   2.714   4.203  15.793 -2.0939  1.9662 -0.7711
  143DOPC  H14S16974   2.894   4.239  15.774 -0.0526  0.6497  0.9221
  143DOPC  C21516975   2.760   4.306  15.624 -0.3272  0.1176  0.0777
  143DOPC  H15R16976   2.799   4.221  15.565  0.1588  0.6166 -0.3302
  143DOPC  H15S16977   2.802   4.402  15.586 -0.3416 -0.7544 -2.2528
  143DOPC  C21616978   2.613   4.294  15.584  0.7994 -0.2606  0.3009
  143DOPC  H16R16979   2.560   4.355  15.661  1.9955 -2.7799  3.2771
  143DOPC  H16S16980   2.572   4.191  15.591  0.2884 -0.1643 -0.9436
  143DOPC  C21716981   2.594   4.352  15.447 -0.0042  0.4310  0.7742
  143DOPC  H17R16982   2.672   4.305  15.384  1.1098  1.0010  1.6916
  143DOPC  H17S16983   2.614   4.462  15.447 -0.1648  0.4602  0.4825
  143DOPC  C21816984   2.459   4.317  15.394  0.1197  0.7127  0.4977
  143DOPC  H18R16985   2.429   4.211  15.408 -4.2504  1.8897  1.2898
  143DOPC  H18S16986   2.442   4.343  15.287 -3.1837  2.1665  1.2724
  143DOPC  H18T16987   2.380   4.365  15.455  0.5195 -0.9136  2.3919
  143DOPC   C3316988   1.790   4.267  16.283 -0.0455  0.2123  0.2138
  143DOPC   H3X16989   1.804   4.158  16.271  2.3029  0.6160 -1.4745
  143DOPC   H3Y16990   1.851   4.292  16.373 -0.8082 -2.1598  1.4718
  143DOPC   C3416991   1.845   4.321  16.142  0.1969 -0.3004 -0.3664
  143DOPC   H4X16992   1.859   4.430  16.160  0.9768 -0.7290  1.9238
  143DOPC   H4Y16993   1.764   4.311  16.067 -2.1801  0.8521  1.8531
  143DOPC   C3516994   1.978   4.257  16.098  0.0895  0.7122 -0.2861
  143DOPC   H5X16995   1.962   4.158  16.051 -0.9289  1.6758 -2.0500
  143DOPC   H5Y16996   2.037   4.250  16.192 -2.0919 -0.8261  1.0600
  143DOPC   C3616997   2.048   4.336  15.990 -0.3845  0.4000 -0.3182
  143DOPC   H6X16998   1.998   4.299  15.897  2.3359 -0.8939 -1.3886
  143DOPC   H6Y16999   2.007   4.439  15.994 -1.4177 -0.0297  3.4422
  143DOPC   C3717000   2.204   4.331  15.978  0.2331  0.1781  0.8602
  143DOPC   H7X17001   2.233   4.429  15.935 -1.2430  0.3240  0.1351
  143DOPC   H7Y17002   2.254   4.330  16.077 -0.5599  1.8924  1.3124
  143DOPC   C3817003   2.246   4.218  15.879 -0.0767  0.4819 -0.4776
  143DOPC   H8X17004   2.175   4.137  15.901  1.4396 -0.8007 -0.1379
  143DOPC   H8Y17005   2.348   4.182  15.905 -0.1296 -0.2393 -1.2530
  143DOPC   C3917006   2.248   4.257  15.730  0.1406  0.6599  0.1767
  143DOPC   H9X17007   2.320   4.335  15.702 -1.8322  1.9615 -1.6310
  143DOPC  C31017008   2.162   4.211  15.636 -0.9643 -0.3607 -0.0663
  143DOPC  H10X17009   2.183   4.244  15.533  0.7013  2.9706  1.1572
  143DOPC  C31117010   2.046   4.125  15.652  0.0149  0.2529  0.2452
  143DOPC  H11X17011   2.034   4.111  15.762  0.0329 -0.0543  0.2090
  143DOPC  H11Y17012   2.072   4.024  15.613  1.9489  0.7628  0.1068
  143DOPC  C31217013   1.916   4.175  15.589 -0.9929 -0.2827  0.7506
  143DOPC  H12X17014   1.900   4.281  15.620 -0.0412  0.2293 -0.4398
  143DOPC  H12Y17015   1.834   4.111  15.628  1.4597 -2.4208  2.7899
  143DOPC  C31317016   1.919   4.175  15.433  0.2694 -0.4470 -0.0843
  143DOPC  H13X17017   1.828   4.217  15.385  0.3708 -0.4086 -0.2467
  143DOPC  H13Y17018   1.993   4.253  15.405 -0.9760  1.3102  1.3120
  143DOPC  C31417019   1.966   4.053  15.367  0.7615  0.3541  0.2815
  143DOPC  H14X17020   2.076   4.038  15.370  0.8741  1.0127 -0.3418
  143DOPC  H14Y17021   1.925   3.961  15.413  0.7062  0.1240 -0.2265
  143DOPC  C31517022   1.925   4.059  15.221  0.4294  0.9297  0.4217
  143DOPC  H15X17023   1.962   4.158  15.187 -0.6223  0.6647 -1.6579
  143DOPC  H15Y17024   1.815   4.044  15.215  0.7785 -1.7836 -0.5424
  143DOPC  C31617025   1.975   3.951  15.122  0.6240 -0.0234 -0.5563
  143DOPC  H16X17026   1.946   3.855  15.170  2.3850 -0.6242 -0.6452
  143DOPC  H16Y17027   1.917   3.972  15.029  1.2970  0.6264 -0.8387
  143DOPC  C31717028   2.123   3.955  15.090  0.6567 -0.3117  0.4172
  143DOPC  H17X17029   2.133   4.048  15.029  1.6490 -1.3950 -1.1550
  143DOPC  H17Y17030   2.180   3.974  15.183  1.8789 -0.2317 -0.3205
  143DOPC  C31817031   2.170   3.831  15.010 -0.0896  0.1034 -0.5785
  143DOPC  H18X17032   2.145   3.736  15.062 -1.1367 -0.0306 -1.2948
  143DOPC  H18Y17033   2.122   3.828  14.910 -0.5442  2.4360 -0.4825
  143DOPC  H18Z17034   2.280   3.837  14.999 -0.2106  2.1977 -1.0438
  144DOPC     N17035   2.481   4.671  17.129  0.5473  0.0013  0.3443
  144DOPC   C1217036   2.369   4.567  17.139 -0.1392 -0.5036 -0.0971
  144DOPC  H12A17037   2.302   4.586  17.056  0.9765 -1.0840 -1.1600
  144DOPC  H12B17038   2.313   4.576  17.231  0.9850 -1.4043  0.7088
  144DOPC   C1317039   2.581   4.658  17.245  0.7631  0.1951  0.4838
  144DOPC  H13A17040   2.658   4.731  17.230  1.1413  0.4203  3.1316
  144DOPC  H13B17041   2.521   4.682  17.331  0.2860  0.8413 -0.0170
  144DOPC  H13C17042   2.635   4.564  17.245  0.1935 -0.2577 -3.0032
  144DOPC   C1417043   2.423   4.805  17.155  0.2011  0.3966  0.5396
  144DOPC  H14A17044   2.499   4.875  17.125 -1.2884  1.1990 -1.6174
  144DOPC  H14B17045   2.332   4.820  17.098  0.8708 -4.0211 -2.1443
  144DOPC  H14C17046   2.415   4.834  17.259  2.0704  0.3525  0.7352
  144DOPC   C1517047   2.555   4.656  17.005 -0.2566 -0.1529  0.0432
  144DOPC  H15A17048   2.598   4.557  17.001  2.5112  0.8823  1.5407
  144DOPC  H15B17049   2.636   4.727  17.010 -0.4359 -0.0082  1.3956
  144DOPC  H15C17050   2.497   4.678  16.917  0.0084  1.8123  0.3044
  144DOPC   C1117051   2.407   4.412  17.135 -0.4235 -0.7307  0.5383
  144DOPC  H11A17052   2.482   4.382  17.211 -0.5338 -1.5565  0.3285
  144DOPC  H11B17053   2.320   4.348  17.163 -0.9946 -0.4660 -0.5842
  144DOPC     P17054   2.351   4.358  16.893  0.0024 -0.0965  0.5218
  144DOPC   O1317055   2.426   4.339  16.770  0.0696 -0.3298  0.7811
  144DOPC   O1417056   2.241   4.459  16.905 -0.3218 -0.0688  0.1888
  144DOPC   O1217057   2.460   4.386  17.005 -0.0634 -0.2060 -0.0423
  144DOPC   O1117058   2.293   4.227  16.935  0.4077 -0.2813 -0.0338
  144DOPC    C117059   2.369   4.119  16.991 -0.6631 -0.6851 -0.4452
  144DOPC    HA17060   2.307   4.055  17.058  1.6916 -1.5131  1.0832
  144DOPC    HB17061   2.451   4.153  17.058  0.1929 -0.1410 -1.7291
  144DOPC    C217062   2.436   4.027  16.886  0.3235  0.2254  0.0729
  144DOPC    HS17063   2.514   4.092  16.842  0.6071 -0.2536 -0.1453
  144DOPC   O2117064   2.332   3.973  16.797 -0.2089  0.3042 -0.3104
  144DOPC   C2117065   2.377   3.955  16.677 -0.2711  0.0918  0.5818
  144DOPC   O2217066   2.494   3.976  16.638 -0.3761 -0.0431 -0.3003
  144DOPC   C2217067   2.269   3.907  16.583  0.6008 -0.2540  0.2858
  144DOPC   H2R17068   2.179   3.972  16.591 -1.1026 -2.5647  0.8143
  144DOPC   H2S17069   2.232   3.809  16.618  2.0233 -0.2628  1.8692
  144DOPC    C317070   2.533   3.913  16.954 -0.4930 -0.5461 -0.3052
  144DOPC    HX17071   2.474   3.839  17.012  1.0890 -0.5720  1.3606
  144DOPC    HY17072   2.599   3.961  17.030 -1.2394 -1.4101  0.9311
  144DOPC   O3117073   2.622   3.855  16.859 -0.2097  0.3167 -0.5769
  144DOPC   C3117074   2.578   3.741  16.805  0.2298 -0.4486 -1.2432
  144DOPC   O3217075   2.464   3.694  16.815 -0.0721  0.4145  0.1466
  144DOPC   C3217076   2.673   3.667  16.712  0.6646  0.0140 -0.1211
  144DOPC   H2X17077   2.767   3.726  16.706  0.0349  1.0319 -0.1674
  144DOPC   H2Y17078   2.698   3.567  16.753  1.8524  0.2508 -0.2277
  144DOPC   C2317079   2.309   3.899  16.435 -0.3169  0.3082 -0.3630
  144DOPC   H3R17080   2.243   3.820  16.391 -2.0658  0.7917  1.2387
  144DOPC   H3S17081   2.415   3.866  16.434 -0.0458  0.9695 -3.2646
  144DOPC   C2417082   2.293   4.034  16.360  0.1440  0.0678 -0.3413
  144DOPC   H4R17083   2.316   4.115  16.433 -4.6214 -0.1973  1.7841
  144DOPC   H4S17084   2.190   4.062  16.330  0.5766  3.3070  0.8042
  144DOPC   C2517085   2.401   4.030  16.252  0.2569  0.9003  0.2181
  144DOPC   H5R17086   2.498   4.006  16.301 -0.7479 -1.4208  1.2175
  144DOPC   H5S17087   2.413   4.127  16.199  1.6856  1.2305  1.0807
  144DOPC   C2617088   2.363   3.934  16.138  0.2175  0.0858  0.2519
  144DOPC   H6R17089   2.274   3.971  16.083 -0.4415 -0.9271  0.6046
  144DOPC   H6S17090   2.334   3.838  16.187 -0.2805  0.2486  0.2822
  144DOPC   C2717091   2.478   3.908  16.045 -0.5505 -0.4657  0.1018
  144DOPC   H7R17092   2.559   3.875  16.113  0.0599 -1.1888 -0.9366
  144DOPC   H7S17093   2.527   4.001  16.009  0.4839 -0.6851  0.9030
  144DOPC   C2817094   2.448   3.796  15.940  0.8346  0.9474  0.4425
  144DOPC   H8R17095   2.435   3.705  16.002 -1.8575  1.7717  1.2083
  144DOPC   H8S17096   2.539   3.774  15.880  0.4147  1.3596 -0.3513
  144DOPC   C2917097   2.323   3.820  15.855 -0.1205 -0.2289 -0.6072
  144DOPC   H9R17098   2.231   3.847  15.909 -0.0631 -1.0890 -0.0567
  144DOPC  C21017099   2.318   3.817  15.718 -0.0046  0.4082 -0.4503
  144DOPC  H10R17100   2.231   3.848  15.657  1.2520 -0.1824 -2.6506
  144DOPC  C21117101   2.434   3.781  15.624 -0.1623  0.0679 -0.1402
  144DOPC  H11R17102   2.444   3.671  15.630 -4.0092 -0.3548  1.1490
  144DOPC  H11S17103   2.530   3.821  15.664 -1.7651  1.8568  2.1787
  144DOPC  C21217104   2.425   3.832  15.482  0.1125  0.0409  0.7911
  144DOPC  H12R17105   2.427   3.943  15.488 -2.0271  0.0636  1.8484
  144DOPC  H12S17106   2.323   3.807  15.448  0.5119  1.0875 -1.3788
  144DOPC  C21317107   2.531   3.763  15.396  0.1442  0.6364  0.0252
  144DOPC  H13R17108   2.524   3.655  15.418 -1.6300  1.1055  2.2389
  144DOPC  H13S17109   2.632   3.802  15.420  0.3976 -0.6464  1.1618
  144DOPC  C21417110   2.494   3.758  15.250 -0.1715 -0.2283  0.8303
  144DOPC  H14R17111   2.390   3.721  15.248 -0.3519  0.3018 -0.3670
  144DOPC  H14S17112   2.564   3.691  15.195 -0.8215 -0.7477  0.6223
  144DOPC  C21517113   2.508   3.899  15.181 -0.4246  0.2414  0.1008
  144DOPC  H15R17114   2.434   3.973  15.218  1.9242  2.5130  0.5528
  144DOPC  H15S17115   2.474   3.880  15.077 -2.5718 -0.9482  0.9452
  144DOPC  C21617116   2.648   3.960  15.172 -0.9636 -0.4772  0.6137
  144DOPC  H16R17117   2.712   3.880  15.129 -1.2746 -0.3490 -0.0954
  144DOPC  H16S17118   2.690   3.982  15.273  0.3488  0.5625 -0.1321
  144DOPC  C21717119   2.661   4.094  15.105 -0.7387  0.7821  0.0304
  144DOPC  H17R17120   2.630   4.168  15.181  0.3739  0.5008  0.7679
  144DOPC  H17S17121   2.595   4.101  15.015 -0.3111  2.3722 -0.1798
  144DOPC  C21817122   2.800   4.121  15.052  0.2487 -0.4876  0.1924
  144DOPC  H18R17123   2.817   4.046  14.972  0.6197 -0.5672  0.3461
  144DOPC  H18S17124   2.883   4.111  15.125  0.9682  0.2852 -0.5099
  144DOPC  H18T17125   2.802   4.220  15.002  1.6156 -0.6593 -0.1414
  144DOPC   C3317126   2.597   3.633  16.588 -0.4302  0.1761  0.4426
  144DOPC   H3X17127   2.582   3.728  16.533  2.6709  0.4376 -0.1092
  144DOPC   H3Y17128   2.499   3.584  16.605 -0.6643 -0.2098 -1.7065
  144DOPC   C3417129   2.679   3.548  16.486  0.1015 -0.2798  0.1092
  144DOPC   H4X17130   2.710   3.446  16.520 -1.2643 -0.5313  0.6657
  144DOPC   H4Y17131   2.775   3.599  16.466  0.4843 -0.0987  2.1737
  144DOPC   C3517132   2.608   3.529  16.350 -1.0863  0.4393 -1.1303
  144DOPC   H5X17133   2.616   3.623  16.291 -1.3645  1.8258  0.9252
  144DOPC   H5Y17134   2.512   3.478  16.371 -0.8463  1.0510  2.0398
  144DOPC   C3617135   2.688   3.436  16.259 -0.0919  0.0359  0.6988
  144DOPC   H6X17136   2.795   3.464  16.262 -0.0368 -0.2754  2.7867
  144DOPC   H6Y17137   2.685   3.338  16.312 -3.0491 -1.3571 -1.6763
  144DOPC   C3717138   2.614   3.429  16.126  0.7907  0.0447 -0.0095
  144DOPC   H7X17139   2.508   3.403  16.151 -0.1005  0.6595 -2.8367
  144DOPC   H7Y17140   2.607   3.527  16.073 -0.9552 -0.8354 -1.5306
  144DOPC   C3817141   2.680   3.326  16.023  0.1675 -0.3173 -0.4456
  144DOPC   H8X17142   2.601   3.298  15.950 -1.6010  1.4725  0.6855
  144DOPC   H8Y17143   2.701   3.233  16.081  0.1642  0.0535  0.1551
  144DOPC   C3917144   2.800   3.393  15.955  0.2491  0.7464  0.2635
  144DOPC   H9X17145   2.899   3.360  15.988  0.5070  1.3682  0.1145
  144DOPC  C31017146   2.803   3.465  15.842  0.3015  0.1343 -0.2075
  144DOPC  H10X17147   2.902   3.492  15.803  0.0276  0.4169 -0.7210
  144DOPC  C31117148   2.688   3.502  15.749  0.3286 -0.5911  0.0950
  144DOPC  H11X17149   2.684   3.610  15.722 -3.0013 -0.9435 -1.3735
  144DOPC  H11Y17150   2.589   3.495  15.799 -0.0214  2.0872 -0.1005
  144DOPC  C31217151   2.679   3.425  15.607  0.3675 -0.3138 -0.5648
  144DOPC  H12X17152   2.579   3.454  15.567  0.1797 -0.8596 -0.4916
  144DOPC  H12Y17153   2.681   3.317  15.629 -0.4247 -0.1057  0.5744
  144DOPC  C31317154   2.792   3.461  15.518 -0.0667 -0.0801 -0.5890
  144DOPC  H13X17155   2.785   3.570  15.500  1.5134  0.3786  1.2613
  144DOPC  H13Y17156   2.891   3.444  15.566 -0.3006  1.9308  0.7100
  144DOPC  C31417157   2.785   3.381  15.390  0.2455 -0.4708  0.1322
  144DOPC  H14X17158   2.878   3.408  15.337 -0.3481  0.9147 -0.2344
  144DOPC  H14Y17159   2.781   3.271  15.409  3.0953 -1.1599 -2.3476
  144DOPC  C31517160   2.664   3.413  15.306 -0.6198 -0.2243  0.3952
  144DOPC  H15X17161   2.652   3.523  15.293  2.8701  0.1680 -0.4987
  144DOPC  H15Y17162   2.568   3.382  15.353 -0.7596  0.4409  0.5584
  144DOPC  C31617163   2.662   3.355  15.166 -0.3584 -0.9432  0.5397
  144DOPC  H16X17164   2.686   3.246  15.164  2.8850 -0.3170 -0.6431
  144DOPC  H16Y17165   2.557   3.368  15.135 -0.5100  2.6029  2.1301
  144DOPC  C31717166   2.742   3.436  15.061 -0.0538 -0.5361  0.0394
  144DOPC  H17X17167   2.674   3.502  15.002 -0.2688  1.5584  2.4189
  144DOPC  H17Y17168   2.795   3.508  15.127 -0.9782  0.6030 -0.4058
  144DOPC  C31817169   2.844   3.360  14.982  0.7163 -0.3936 -0.8960
  144DOPC  H18X17170   2.891   3.410  14.894  0.2663 -2.0139 -2.1070
  144DOPC  H18Y17171   2.933   3.333  15.041 -0.4780 -4.2033 -0.5980
  144DOPC  H18Z17172   2.788   3.272  14.944  2.7870 -2.0289 -0.3271
  145DOPC     N17173   3.023   6.662  16.788 -0.2277 -0.2693  0.3779
  145DOPC   C1217174   3.036   6.615  16.646 -0.1994  0.3688  0.2090
  145DOPC  H12A17175   3.114   6.663  16.588 -0.6444  1.8457  0.8083
  145DOPC  H12B17176   2.948   6.649  16.594 -1.1958 -0.5808  1.2334
  145DOPC   C1317177   3.144   6.626  16.863  0.4164  0.0429 -0.5495
  145DOPC  H13A17178   3.226   6.688  16.831 -1.3362  2.3122 -0.9184
  145DOPC  H13B17179   3.135   6.641  16.970  0.9338  2.0263 -0.7424
  145DOPC  H13C17180   3.171   6.524  16.840  0.4069  0.0060 -0.4028
  145DOPC   C1417181   2.898   6.605  16.847 -0.1035  0.1580  0.3251
  145DOPC  H14A17182   2.874   6.661  16.936  0.6592  1.5163 -0.3020
  145DOPC  H14B17183   2.814   6.601  16.780  1.5323 -2.6378 -1.7453
  145DOPC  H14C17184   2.921   6.505  16.881  0.2773 -0.5165 -1.7698
  145DOPC   C1517185   2.993   6.807  16.778 -0.4743 -0.1423  0.3971
  145DOPC  H15A17186   2.967   6.849  16.874 -1.0288  1.4708 -0.4223
  145DOPC  H15B17187   2.905   6.818  16.717  0.2788 -0.4601 -0.7721
  145DOPC  H15C17188   3.071   6.863  16.729  0.0765 -0.9031  0.3868
  145DOPC   C1117189   3.046   6.457  16.630 -0.4695 -0.5436 -0.5208
  145DOPC  H11A17190   2.967   6.409  16.692 -0.2474 -0.8871 -0.5002
  145DOPC  H11B17191   3.035   6.429  16.523  0.8184 -1.2616 -0.4783
  145DOPC     P17192   3.296   6.387  16.577 -0.2673  0.1784  0.2103
  145DOPC   O1317193   3.396   6.316  16.657  0.1731 -0.8927 -0.5094
  145DOPC   O1417194   3.332   6.520  16.533  0.2667 -0.4568 -0.1060
  145DOPC   O1217195   3.170   6.398  16.676  0.4111 -1.1637  0.1002
  145DOPC   O1117196   3.230   6.297  16.464  0.2987 -0.2819 -0.1956
  145DOPC    C117197   3.153   6.178  16.491 -0.0873  1.3769  0.2128
  145DOPC    HA17198   3.046   6.201  16.474 -0.4950 -0.1401  0.6088
  145DOPC    HB17199   3.164   6.147  16.598 -0.9519  1.9269  0.4660
  145DOPC    C217200   3.185   6.057  16.400 -0.5296  0.1077 -0.1362
  145DOPC    HS17201   3.280   6.011  16.434  0.8550  1.2605 -2.2355
  145DOPC   O2117202   3.178   6.084  16.267 -0.4363 -0.3949  0.4419
  145DOPC   C2117203   3.242   6.012  16.178  0.0377 -0.5836 -0.8258
  145DOPC   O2217204   3.327   5.927  16.200  0.4366  0.3650  0.1984
  145DOPC   C2217205   3.196   6.063  16.039 -0.2822 -0.1334 -0.0338
  145DOPC   H2R17206   3.126   6.148  16.054  0.6171  0.6410 -0.1756
  145DOPC   H2S17207   3.150   5.972  15.995 -0.8379 -0.8298  1.8593
  145DOPC    C317208   3.084   5.940  16.425  0.5249  0.0521  0.4710
  145DOPC    HX17209   2.986   5.988  16.407  1.1327  0.3993 -2.2994
  145DOPC    HY17210   3.089   5.916  16.533 -0.1625  2.4156  1.0951
  145DOPC   O3117211   3.090   5.833  16.329 -0.1036 -0.4734 -0.3509
  145DOPC   C3117212   3.133   5.712  16.383  0.1463 -0.2027  0.7218
  145DOPC   O3217213   3.175   5.694  16.492 -0.4550 -0.0108 -0.3431
  145DOPC   C3217214   3.122   5.601  16.279 -0.4722 -0.6671 -0.2561
  145DOPC   H2X17215   3.177   5.521  16.333  1.4349  1.2812  0.8599
  145DOPC   H2Y17216   3.017   5.570  16.262 -0.2061 -2.0226  0.4400
  145DOPC   C2317217   3.310   6.101  15.947 -0.1177  0.2908 -0.8371
  145DOPC   H3R17218   3.389   6.024  15.958 -0.3131  0.0864 -0.8733
  145DOPC   H3S17219   3.347   6.204  15.968 -0.1611  0.0390  0.6069
  145DOPC   C2417220   3.262   6.116  15.806 -0.0175  0.0860  0.4048
  145DOPC   H4R17221   3.180   6.192  15.803  0.1432  0.2382 -1.4594
  145DOPC   H4S17222   3.219   6.021  15.768 -1.0272  1.0759 -1.0547
  145DOPC   C2517223   3.377   6.137  15.715 -0.0761  0.8714  0.0725
  145DOPC   H5R17224   3.470   6.091  15.754 -0.6904  2.2916  3.6217
  145DOPC   H5S17225   3.396   6.246  15.714 -2.5909  1.4235  1.7129
  145DOPC   C2617226   3.353   6.087  15.572 -0.3512  0.2385  1.2667
  145DOPC   H6R17227   3.261   6.137  15.533 -0.0558  0.0423  0.2749
  145DOPC   H6S17228   3.334   5.977  15.574  0.4852  0.0129 -0.7756
  145DOPC   C2717229   3.475   6.118  15.481  0.1813 -0.4769 -0.1546
  145DOPC   H7R17230   3.568   6.093  15.537  1.2856 -0.6182 -1.9635
  145DOPC   H7S17231   3.493   6.227  15.466 -2.2083  0.0364  0.3288
  145DOPC   C2817232   3.464   6.059  15.340  0.4176 -0.1222  0.1911
  145DOPC   H8R17233   3.466   5.950  15.356 -0.0350 -0.2827 -0.7548
  145DOPC   H8S17234   3.552   6.081  15.276 -0.3356  1.0053 -0.5068
  145DOPC   C2917235   3.345   6.108  15.269 -0.0502 -0.0304 -0.0810
  145DOPC   H9R17236   3.255   6.063  15.313  0.9496  0.9464  3.2824
  145DOPC  C21017237   3.335   6.170  15.147 -0.1666  0.4561 -0.0343
  145DOPC  H10R17238   3.241   6.202  15.099 -0.0820  0.2681 -0.3301
  145DOPC  C21117239   3.451   6.223  15.071 -0.2873 -0.6245 -0.1249
  145DOPC  H11R17240   3.536   6.242  15.140  0.6508  0.9429 -1.6415
  145DOPC  H11S17241   3.418   6.324  15.040 -0.5911  0.2403  2.6726
  145DOPC  C21217242   3.499   6.141  14.950  0.3436 -0.8588 -0.8342
  145DOPC  H12R17243   3.529   6.039  14.984 -0.4167 -0.6148  0.6470
  145DOPC  H12S17244   3.582   6.202  14.909 -0.7352  0.6625 -0.8423
  145DOPC  C21317245   3.391   6.113  14.851 -0.1485  0.1636  0.2254
  145DOPC  H13R17246   3.400   6.196  14.777 -0.8925  0.2689  0.2461
  145DOPC  H13S17247   3.292   6.093  14.896 -0.2374 -1.0660 -0.4784
  145DOPC  C21417248   3.413   5.974  14.777 -0.1184  0.0222  0.5611
  145DOPC  H14R17249   3.400   5.877  14.831 -1.5700 -1.2928 -1.9310
  145DOPC  H14S17250   3.518   5.975  14.740  1.5759  2.1902  4.7335
  145DOPC  C21517251   3.325   5.959  14.651 -0.5416  0.3175  0.0107
  145DOPC  H15R17252   3.361   6.034  14.577 -2.8841  1.1033 -0.3977
  145DOPC  H15S17253   3.224   5.996  14.678 -1.6423 -3.2679  1.3533
  145DOPC  C21617254   3.310   5.813  14.578  0.4177 -0.1862  0.4161
  145DOPC  H16R17255   3.278   5.742  14.657 -0.7350 -2.4595 -1.9377
  145DOPC  H16S17256   3.411   5.787  14.538 -0.3107  1.2463 -2.6213
  145DOPC  C21717257   3.212   5.811  14.459  0.1572 -0.2531 -0.3623
  145DOPC  H17R17258   3.267   5.842  14.368 -0.5681 -1.8634 -1.4058
  145DOPC  H17S17259   3.127   5.882  14.472  0.1962 -0.5204  1.6071
  145DOPC  C21817260   3.166   5.666  14.439  0.5206 -0.3162 -0.0246
  145DOPC  H18R17261   3.258   5.603  14.436  0.5328 -0.3712  1.1938
  145DOPC  H18S17262   3.120   5.656  14.339  2.9079  0.3492 -1.2753
  145DOPC  H18T17263   3.095   5.629  14.516  2.0236 -0.6801  1.2244
  145DOPC   C3317264   3.185   5.632  16.137  0.1747 -0.0170  0.3411
  145DOPC   H3X17265   3.292   5.659  16.150 -0.3628  2.2498  0.3735
  145DOPC   H3Y17266   3.145   5.725  16.092 -1.5605 -0.5288  0.7648
  145DOPC   C3417267   3.177   5.527  16.033 -0.2547  0.3551 -0.0485
  145DOPC   H4X17268   3.067   5.513  16.020 -0.5371  2.2203  0.0359
  145DOPC   H4Y17269   3.235   5.439  16.067  1.0471  0.1855 -2.5118
  145DOPC   C3517270   3.230   5.574  15.905  0.4477 -0.5590  1.4272
  145DOPC   H5X17271   3.318   5.640  15.919  0.7493 -0.2795 -1.1876
  145DOPC   H5Y17272   3.150   5.628  15.850  0.8079 -0.6165  0.8369
  145DOPC   C3617273   3.278   5.462  15.804  0.2969 -0.0346  0.3226
  145DOPC   H6X17274   3.346   5.403  15.868  1.8583  0.3668 -0.9133
  145DOPC   H6Y17275   3.190   5.401  15.774  0.0209 -0.4610  1.9189
  145DOPC   C3717276   3.347   5.507  15.677 -0.8599 -0.2223  0.7998
  145DOPC   H7X17277   3.281   5.553  15.600 -0.6877  1.7821  1.7860
  145DOPC   H7Y17278   3.423   5.586  15.694  1.6470 -2.2145 -0.3806
  145DOPC   C3817279   3.435   5.389  15.609 -0.7874 -0.2609 -0.1762
  145DOPC   H8X17280   3.510   5.352  15.682  1.0925  1.5454 -1.0869
  145DOPC   H8Y17281   3.496   5.442  15.533 -0.5473  0.3935  0.4577
  145DOPC   C3917282   3.342   5.277  15.559 -0.6943 -0.1972 -0.4580
  145DOPC   H9X17283   3.290   5.219  15.636  1.2685  0.7114  1.6707
  145DOPC  C31017284   3.334   5.244  15.428 -0.1444 -0.0090 -0.1583
  145DOPC  H10X17285   3.263   5.164  15.401 -0.1796  0.2381 -0.8215
  145DOPC  C31117286   3.398   5.320  15.317  0.2182 -0.6642 -0.3484
  145DOPC  H11X17287   3.428   5.424  15.340  3.0003 -1.6447  0.8497
  145DOPC  H11Y17288   3.320   5.329  15.238 -1.2999 -2.3150  0.8893
  145DOPC  C31217289   3.522   5.257  15.256 -0.3159 -0.6541  0.5318
  145DOPC  H12X17290   3.509   5.148  15.240 -4.8160 -0.0914 -0.9863
  145DOPC  H12Y17291   3.606   5.278  15.325 -1.3903 -0.6234  1.8536
  145DOPC  C31317292   3.569   5.311  15.115  0.2015  0.5361 -0.3515
  145DOPC  H13X17293   3.610   5.413  15.132  0.0785 -0.0205  4.9451
  145DOPC  H13Y17294   3.659   5.249  15.093  2.6984  3.8741 -0.4288
  145DOPC  C31417295   3.478   5.297  15.004 -0.4193 -0.6728 -0.4374
  145DOPC  H14X17296   3.419   5.203  15.009 -0.2705 -0.8645 -1.9672
  145DOPC  H14Y17297   3.406   5.380  15.014  2.6848  1.9529  3.3216
  145DOPC  C31517298   3.556   5.299  14.871  0.3828 -0.1726 -0.1055
  145DOPC  H15X17299   3.614   5.206  14.855  0.9114  0.0627  0.4047
  145DOPC  H15Y17300   3.630   5.382  14.879 -1.2399  1.2448  0.8706
  145DOPC  C31617301   3.462   5.321  14.752  0.6168  0.0682  0.7860
  145DOPC  H16X17302   3.486   5.269  14.657 -1.2493  0.5274  0.0118
  145DOPC  H16Y17303   3.363   5.278  14.777 -0.2643  2.0584  0.8736
  145DOPC  C31717304   3.426   5.469  14.722 -0.3411 -0.7995 -0.9187
  145DOPC  H17X17305   3.363   5.475  14.630  0.0964 -0.5954 -1.2095
  145DOPC  H17Y17306   3.375   5.516  14.809  2.1983 -1.7081  1.1702
  145DOPC  C31817307   3.552   5.548  14.689 -0.6103  0.2620  0.0705
  145DOPC  H18X17308   3.595   5.606  14.774  2.4187  0.1591 -1.2420
  145DOPC  H18Y17309   3.625   5.474  14.649  0.4621  2.3067 -2.0495
  145DOPC  H18Z17310   3.533   5.631  14.617 -0.4615 -0.4173 -0.7642
  146DOPC     N17311   4.720   2.591  17.379  0.2073  0.3513  0.0050
  146DOPC   C1217312   4.732   2.571  17.226 -0.0515  0.4438 -0.1968
  146DOPC  H12A17313   4.805   2.492  17.216  0.8617  1.2577 -0.0878
  146DOPC  H12B17314   4.782   2.653  17.179  0.5133  0.4865  0.4623
  146DOPC   C1317315   4.640   2.475  17.438 -0.0730  0.0527  0.4865
  146DOPC  H13A17316   4.645   2.472  17.546  1.1908  2.2766  0.5591
  146DOPC  H13B17317   4.536   2.495  17.413 -0.0633  0.4812  0.7703
  146DOPC  H13C17318   4.682   2.390  17.387 -0.0516  0.1451  0.3478
  146DOPC   C1417319   4.644   2.723  17.401 -0.4917  0.5371 -0.6258
  146DOPC  H14A17320   4.618   2.733  17.506  0.6876 -1.9661 -0.0206
  146DOPC  H14B17321   4.711   2.805  17.377  1.7557 -1.0075  0.0201
  146DOPC  H14C17322   4.553   2.711  17.345 -2.0230 -1.6455  2.0630
  146DOPC   C1517323   4.849   2.603  17.449  0.0137 -0.6553 -0.5051
  146DOPC  H15A17324   4.916   2.523  17.421  1.0795  0.4283 -1.1785
  146DOPC  H15B17325   4.837   2.606  17.556  1.1378  0.0981 -0.3810
  146DOPC  H15C17326   4.905   2.690  17.419 -2.4579  1.8662  1.6224
  146DOPC   C1117327   4.598   2.537  17.154  0.8232 -0.0640  0.2080
  146DOPC  H11A17328   4.591   2.581  17.052 -1.0435 -1.4921 -0.3392
  146DOPC  H11B17329   4.600   2.426  17.143  1.1751 -0.0682  0.2991
  146DOPC     P17330   4.340   2.509  17.202 -0.4802 -0.0531  0.2468
  146DOPC   O1317331   4.236   2.595  17.258 -0.3360 -0.1313 -0.4755
  146DOPC   O1417332   4.353   2.372  17.252  0.4459 -0.0711 -0.1936
  146DOPC   O1217333   4.476   2.585  17.218 -0.3941  0.7938  0.2957
  146DOPC   O1117334   4.335   2.501  17.044  0.0190  0.1443  0.3275
  146DOPC    C117335   4.264   2.610  16.985  0.3506  0.0195  0.1897
  146DOPC    HA17336   4.307   2.710  17.005 -0.6579  1.1627 -2.7985
  146DOPC    HB17337   4.160   2.620  17.024  0.7414  1.1417  0.9753
  146DOPC    C217338   4.267   2.612  16.825  0.0534  0.4031  0.2011
  146DOPC    HS17339   4.210   2.703  16.799 -1.5592 -0.1907  1.4781
  146DOPC   O2117340   4.218   2.486  16.772 -0.6068  0.0850  0.5831
  146DOPC   C2117341   4.152   2.495  16.658 -0.4604  0.3489 -0.1302
  146DOPC   O2217342   4.134   2.602  16.599 -0.6317  0.8849 -0.8849
  146DOPC   C2217343   4.101   2.357  16.612 -0.3432 -0.0561 -0.1289
  146DOPC   H2R17344   4.063   2.308  16.705 -2.4011  1.7362  0.0447
  146DOPC   H2S17345   4.182   2.294  16.571 -0.4545  0.4502 -1.1465
  146DOPC    C317346   4.416   2.630  16.780  0.2831 -0.3073 -0.0565
  146DOPC    HX17347   4.465   2.536  16.814 -1.2043 -0.6821  1.1878
  146DOPC    HY17348   4.452   2.721  16.833  1.0115 -0.5237 -0.1685
  146DOPC   O3117349   4.420   2.634  16.635  0.1146 -0.0997 -0.1245
  146DOPC   C3117350   4.393   2.755  16.578 -0.3885 -0.0242  0.4329
  146DOPC   O3217351   4.374   2.860  16.638 -0.2162 -0.5470  0.1540
  146DOPC   C3217352   4.390   2.740  16.426  0.8214  0.1937  0.5254
  146DOPC   H2X17353   4.482   2.696  16.384 -1.2517 -1.6430 -2.4444
  146DOPC   H2Y17354   4.310   2.664  16.409 -0.3177  1.4314  0.2000
  146DOPC   C2317355   3.986   2.365  16.508 -0.2113 -0.3774  0.5141
  146DOPC   H3R17356   3.911   2.445  16.522 -0.8604 -1.2507  2.3780
  146DOPC   H3S17357   3.930   2.268  16.507  1.1671 -1.2466  2.1176
  146DOPC   C2417358   4.047   2.373  16.362 -0.3545  0.1473 -0.0040
  146DOPC   H4R17359   4.101   2.277  16.346 -2.2861 -0.8243 -0.9886
  146DOPC   H4S17360   4.123   2.454  16.356  0.0670 -0.2819 -0.5654
  146DOPC   C2517361   3.936   2.401  16.247  0.1449  0.5336  0.4728
  146DOPC   H5R17362   3.884   2.499  16.250 -4.6668 -1.7406  1.9146
  146DOPC   H5S17363   3.852   2.332  16.270  0.0172 -0.0310 -1.5185
  146DOPC   C2617364   3.982   2.360  16.100 -0.5808  0.3547 -0.1045
  146DOPC   H6R17365   3.901   2.374  16.025  0.1414 -0.1336 -0.9943
  146DOPC   H6S17366   4.000   2.250  16.102 -0.1909  0.4297  1.0049
  146DOPC   C2717367   4.116   2.427  16.058  0.2005  0.0193  0.9673
  146DOPC   H7R17368   4.193   2.384  16.125 -0.4642 -0.7663  1.2424
  146DOPC   H7S17369   4.106   2.537  16.075 -1.3751  0.0945 -0.2074
  146DOPC   C2817370   4.157   2.399  15.907  0.0468  0.7911  0.2812
  146DOPC   H8R17371   4.153   2.289  15.898  0.9235  0.6753  1.1496
  146DOPC   H8S17372   4.263   2.429  15.900  0.6890 -1.3187  0.3500
  146DOPC   C2917373   4.073   2.474  15.803  0.5262  0.3403  0.0499
  146DOPC   H9R17374   4.032   2.572  15.834 -2.5246 -0.8472  0.1185
  146DOPC  C21017375   4.042   2.427  15.680 -0.2229  0.1041  0.3026
  146DOPC  H10R17376   3.972   2.483  15.617  0.3123  0.3842 -0.0558
  146DOPC  C21117377   4.112   2.308  15.610 -0.2936  0.2207  0.4033
  146DOPC  H11R17378   4.037   2.228  15.600 -0.2326  0.2000  0.0934
  146DOPC  H11S17379   4.196   2.270  15.672  1.3570  1.9196 -0.6732
  146DOPC  C21217380   4.172   2.339  15.474  0.3529 -0.3579  0.1214
  146DOPC  H12R17381   4.228   2.251  15.435  1.0661 -0.0985  0.5470
  146DOPC  H12S17382   4.258   2.409  15.474  1.2150 -1.3344 -1.6438
  146DOPC  C21317383   4.076   2.400  15.371  0.4744 -0.3762 -0.2382
  146DOPC  H13R17384   4.130   2.398  15.274 -0.2930  0.5487 -0.7123
  146DOPC  H13S17385   4.065   2.509  15.394  0.6646 -0.3670 -0.1856
  146DOPC  C21417386   3.929   2.345  15.367  0.1468  0.1481 -0.5477
  146DOPC  H14R17387   3.885   2.347  15.469  1.5069 -0.7348  0.0958
  146DOPC  H14S17388   3.934   2.241  15.328 -1.8360 -1.0081  1.9763
  146DOPC  C21517389   3.838   2.432  15.285  0.6257  0.5677 -0.4493
  146DOPC  H15R17390   3.830   2.539  15.313 -0.7339  0.1282  0.9763
  146DOPC  H15S17391   3.736   2.389  15.290  0.5006  0.9981  0.9451
  146DOPC  C21617392   3.881   2.427  15.138  0.2895  0.4032  0.6025
  146DOPC  H16R17393   3.857   2.328  15.092 -1.2328  1.6455 -1.4766
  146DOPC  H16S17394   3.988   2.456  15.134  1.1514 -2.4742  0.7733
  146DOPC  C21717395   3.807   2.529  15.051  0.3548 -0.5444  0.8713
  146DOPC  H17R17396   3.833   2.629  15.090 -0.6539  1.3251 -2.8329
  146DOPC  H17S17397   3.696   2.520  15.048  0.0166  2.6489 -2.3412
  146DOPC  C21817398   3.850   2.529  14.907  0.1273 -0.1087 -0.3730
  146DOPC  H18R17399   3.960   2.545  14.900 -0.0515  3.2389  1.9965
  146DOPC  H18S17400   3.806   2.616  14.854  1.3437 -0.4003 -1.9421
  146DOPC  H18T17401   3.828   2.433  14.857  0.5232 -0.8605  0.8531
  146DOPC   C3317402   4.356   2.879  16.360  0.0224 -0.2815  0.5501
  146DOPC   H3X17403   4.441   2.951  16.360 -2.1230  2.4511  1.4683
  146DOPC   H3Y17404   4.274   2.930  16.415 -1.5808 -1.2901 -0.8204
  146DOPC   C3417405   4.302   2.863  16.215  0.2310 -0.7877 -0.3110
  146DOPC   H4X17406   4.242   2.954  16.195  1.0557 -0.2156 -0.1871
  146DOPC   H4Y17407   4.235   2.774  16.209  0.9433 -1.4211  0.8218
  146DOPC   C3517408   4.416   2.841  16.123 -0.0360  0.0937  0.7748
  146DOPC   H5X17409   4.475   2.749  16.143  1.5697  0.2170 -2.6592
  146DOPC   H5Y17410   4.482   2.930  16.115 -1.7867  1.5426  1.7034
  146DOPC   C3617411   4.363   2.813  15.981 -0.2330  0.3043  0.4804
  146DOPC   H6X17412   4.325   2.709  15.988 -0.5208  0.4347  0.8862
  146DOPC   H6Y17413   4.277   2.879  15.958 -0.6513  0.7925  3.1518
  146DOPC   C3717414   4.469   2.840  15.871  0.5349 -0.5448  0.3288
  146DOPC   H7X17415   4.468   2.951  15.866 -0.7259 -0.5467  0.2578
  146DOPC   H7Y17416   4.569   2.806  15.907  1.5277 -0.5334 -2.1873
  146DOPC   C3817417   4.447   2.771  15.736  0.4457 -0.2617  0.8263
  146DOPC   H8X17418   4.411   2.668  15.753 -1.5501  0.3049  0.2702
  146DOPC   H8Y17419   4.549   2.767  15.691  0.5898 -1.1094  1.2189
  146DOPC   C3917420   4.345   2.839  15.642 -0.0554  0.2325  0.2168
  146DOPC   H9X17421   4.313   2.939  15.674 -1.0435 -0.4190  1.3298
  146DOPC  C31017422   4.311   2.796  15.526 -1.2309 -0.6254  0.2623
  146DOPC  H10X17423   4.259   2.863  15.457 -0.1974 -0.1228 -0.0453
  146DOPC  C31117424   4.358   2.667  15.462 -0.0592 -0.8592 -0.1349
  146DOPC  H11X17425   4.266   2.617  15.425 -1.7133  1.9789 -0.2157
  146DOPC  H11Y17426   4.412   2.606  15.537 -0.1012  0.6755  1.1987
  146DOPC  C31217427   4.450   2.689  15.338  0.2257  0.0368  0.5197
  146DOPC  H12X17428   4.436   2.592  15.286  0.7439 -0.4197  1.2144
  146DOPC  H12Y17429   4.559   2.698  15.356  0.5557  1.7865 -1.8085
  146DOPC  C31317430   4.402   2.801  15.242  0.1104 -0.1322  0.2531
  146DOPC  H13X17431   4.291   2.805  15.236 -0.0557 -1.9961  1.3993
  146DOPC  H13Y17432   4.426   2.901  15.283 -1.2763  0.5662 -0.5369
  146DOPC  C31417433   4.459   2.769  15.104 -0.1846 -0.1287 -0.1843
  146DOPC  H14X17434   4.569   2.764  15.097 -0.2039  0.3495 -0.9091
  146DOPC  H14Y17435   4.427   2.667  15.072  0.5155 -0.0681 -1.1052
  146DOPC  C31517436   4.415   2.870  14.996 -0.5763  0.1265  0.1491
  146DOPC  H15X17437   4.469   2.965  15.014  1.1731 -0.7348 -0.2619
  146DOPC  H15Y17438   4.304   2.872  14.993 -0.6802 -2.3361 -2.7233
  146DOPC  C31617439   4.449   2.818  14.857  0.4239  0.3318  0.2752
  146DOPC  H16X17440   4.558   2.799  14.846  1.0048  2.1711  2.2716
  146DOPC  H16Y17441   4.393   2.725  14.833  1.4783 -0.4665  0.8133
  146DOPC  C31717442   4.418   2.920  14.741 -0.1093 -0.2366 -0.1684
  146DOPC  H17X17443   4.479   3.012  14.748 -0.7538  0.1649  0.2707
  146DOPC  H17Y17444   4.443   2.874  14.643 -1.8868 -1.4885 -0.0942
  146DOPC  C31817445   4.279   2.974  14.735 -0.3924  0.4951  0.2966
  146DOPC  H18X17446   4.268   3.041  14.822 -0.9482 -0.3458  0.8881
  146DOPC  H18Y17447   4.272   3.040  14.646  1.0579 -0.1543 -0.3341
  146DOPC  H18Z17448   4.199   2.896  14.733  1.1804 -1.2137 -1.9701
  147DOPC     N17449   1.714   2.897  17.338 -1.1103  0.2921 -0.3404
  147DOPC   C1217450   1.661   3.004  17.249 -0.0252  0.5013  0.3262
  147DOPC  H12A17451   1.625   3.085  17.310 -0.3227 -0.9428  2.1486
  147DOPC  H12B17452   1.568   2.971  17.205 -0.9233  1.3349  1.5521
  147DOPC   C1317453   1.628   2.871  17.458 -0.4801 -0.4970  0.8036
  147DOPC  H13A17454   1.688   2.826  17.536 -1.0731 -0.6892  1.1535
  147DOPC  H13B17455   1.589   2.963  17.498 -0.6311 -0.0048 -0.4274
  147DOPC  H13C17456   1.548   2.805  17.428  0.2000  0.1341 -2.8445
  147DOPC   C1417457   1.845   2.942  17.385 -0.1952  0.0300 -0.3711
  147DOPC  H14A17458   1.907   2.982  17.306  1.4176 -2.5227 -0.5254
  147DOPC  H14B17459   1.833   3.025  17.453  0.3618  0.7429 -1.1325
  147DOPC  H14C17460   1.913   2.864  17.417  1.0472  1.0018 -0.5427
  147DOPC   C1517461   1.728   2.770  17.265  0.0120 -0.0656 -0.0643
  147DOPC  H15A17462   1.770   2.789  17.167 -0.1958 -0.6043 -0.2603
  147DOPC  H15B17463   1.633   2.724  17.245  0.5446 -1.1227 -0.2240
  147DOPC  H15C17464   1.800   2.703  17.310  0.6021  0.3343 -0.3856
  147DOPC   C1117465   1.740   3.057  17.126  0.6991 -0.1339  0.2034
  147DOPC  H11A17466   1.782   2.969  17.072  1.9709 -0.1540  1.1722
  147DOPC  H11B17467   1.678   3.107  17.049  2.1205 -1.1419 -1.6636
  147DOPC     P17468   1.806   3.291  17.182 -0.2855  0.0171  0.5041
  147DOPC   O1317469   1.934   3.351  17.231  0.4749 -0.0449 -0.0169
  147DOPC   O1417470   1.674   3.314  17.252 -0.3306  0.4901  0.3646
  147DOPC   O1217471   1.840   3.143  17.178  0.0379 -0.0028  0.6211
  147DOPC   O1117472   1.783   3.329  17.030 -0.2499  0.1219 -0.0966
  147DOPC    C117473   1.745   3.466  17.010 -0.2850  0.0090  0.5433
  147DOPC    HA17474   1.826   3.530  17.051  1.7076 -1.4111 -1.0069
  147DOPC    HB17475   1.655   3.503  17.065  0.8636  1.5018  1.5346
  147DOPC    C217476   1.711   3.482  16.860  0.0298  0.3893  0.3232
  147DOPC    HS17477   1.673   3.586  16.847  0.2458  0.3975 -0.3363
  147DOPC   O2117478   1.632   3.368  16.815  0.4496 -0.6958 -0.0808
  147DOPC   C2117479   1.513   3.372  16.874 -0.4145  0.8581 -0.2687
  147DOPC   O2217480   1.457   3.464  16.928 -0.2699 -0.9951 -0.6010
  147DOPC   C2217481   1.451   3.232  16.872 -0.2529  0.3623  0.0836
  147DOPC   H2R17482   1.475   3.186  16.971  0.4138  1.3519  0.3945
  147DOPC   H2S17483   1.509   3.176  16.796  1.7061  0.5575  1.3616
  147DOPC    C317484   1.848   3.468  16.782  0.3166  0.4371  0.4359
  147DOPC    HX17485   1.861   3.362  16.753  0.1892 -0.0248  1.9601
  147DOPC    HY17486   1.925   3.486  16.860  0.1380 -0.5610  0.8617
  147DOPC   O3117487   1.861   3.553  16.667  0.7148  0.0107  0.0421
  147DOPC   C3117488   1.905   3.677  16.695  0.4109  1.5695 -0.6285
  147DOPC   O3217489   1.950   3.706  16.800  0.5294 -0.2862 -0.2748
  147DOPC   C3217490   1.905   3.753  16.564 -0.0815 -0.1138 -0.0342
  147DOPC   H2X17491   1.799   3.762  16.533  0.9089  3.0883 -3.0857
  147DOPC   H2Y17492   1.944   3.855  16.583 -1.3218  0.4950 -0.6016
  147DOPC   C2317493   1.296   3.240  16.846  0.2275 -0.3504 -0.4521
  147DOPC   H3R17494   1.267   3.317  16.920  1.1121 -0.8476  0.4422
  147DOPC   H3S17495   1.239   3.150  16.874 -0.5563  0.3171  0.1354
  147DOPC   C2417496   1.268   3.275  16.697 -0.2294  0.2100 -0.5250
  147DOPC   H4R17497   1.317   3.209  16.622 -2.1979 -2.7656  0.6148
  147DOPC   H4S17498   1.302   3.380  16.689  0.6959 -0.0549 -0.2059
  147DOPC   C2517499   1.119   3.264  16.668  0.5871  0.0530  0.1488
  147DOPC   H5R17500   1.054   3.320  16.738 -2.0620 -1.7530 -0.7031
  147DOPC   H5S17501   1.098   3.156  16.677  0.0527  0.1594  0.1847
  147DOPC   C2617502   1.079   3.314  16.525 -0.3143  0.2953  0.4513
  147DOPC   H6R17503   1.139   3.256  16.451 -1.8994 -0.4206 -0.3318
  147DOPC   H6S17504   1.112   3.420  16.525 -1.5916  0.7511  2.8210
  147DOPC   C2717505   0.924   3.315  16.494  1.3968 -0.1705  0.5453
  147DOPC   H7R17506   0.869   3.365  16.577  0.3806  1.2721 -0.9293
  147DOPC   H7S17507   0.891   3.209  16.505 -0.9379  0.7069  3.5375
  147DOPC   C2817508   0.901   3.362  16.348  0.4695  1.1516  0.5536
  147DOPC   H8R17509   0.957   3.283  16.294  0.4446  1.3583  0.2244
  147DOPC   H8S17510   0.964   3.451  16.328  0.3224  1.0641 -0.3607
  147DOPC   C2917511   0.766   3.372  16.279  0.4608 -0.5444 -0.3476
  147DOPC   H9R17512   0.692   3.425  16.341 -0.1097 -1.4169 -0.2695
  147DOPC  C21017513   0.723   3.330  16.157  0.9626  0.1205 -0.1810
  147DOPC  H10R17514   0.614   3.342  16.147  1.1438  3.8605  0.9760
  147DOPC  C21117515   0.797   3.249  16.053  0.5235 -0.5435  0.9897
  147DOPC  H11R17516   0.756   3.147  16.034  0.0670 -0.1252 -0.4712
  147DOPC  H11S17517   0.904   3.240  16.081  1.3318 -1.0698 -1.9542
  147DOPC  C21217518   0.787   3.309  15.906  0.0188  0.6869 -0.2074
  147DOPC  H12R17519   0.803   3.419  15.908  1.4302  0.5502 -1.9672
  147DOPC  H12S17520   0.683   3.295  15.871  0.1981 -0.2801 -0.4063
  147DOPC  C21317521   0.872   3.232  15.806  0.2871 -0.0277  0.3372
  147DOPC  H13R17522   0.832   3.129  15.803 -0.6740  0.3482 -1.1049
  147DOPC  H13S17523   0.976   3.231  15.844 -0.3982 -1.6052  2.3615
  147DOPC  C21417524   0.877   3.297  15.660 -0.1246  0.1247 -0.2724
  147DOPC  H14R17525   0.942   3.240  15.591 -1.9424 -1.5787 -0.6748
  147DOPC  H14S17526   0.926   3.396  15.664  0.7584 -0.3240  0.2640
  147DOPC  C21517527   0.734   3.323  15.591  0.0358 -0.1469  0.4873
  147DOPC  H15R17528   0.686   3.406  15.647  2.6957  1.1232  1.0509
  147DOPC  H15S17529   0.669   3.232  15.594 -0.8025  0.4620  1.9679
  147DOPC  C21617530   0.745   3.368  15.441  0.0216 -0.0383  0.1652
  147DOPC  H16R17531   0.805   3.461  15.434 -0.7233  0.4183 -0.1330
  147DOPC  H16S17532   0.645   3.400  15.406  0.0984 -0.5854 -0.5829
  147DOPC  C21717533   0.797   3.261  15.346  0.0055  0.7990  0.2218
  147DOPC  H17R17534   0.902   3.232  15.367  0.8814  2.2470 -1.8316
  147DOPC  H17S17535   0.805   3.302  15.243  2.0480 -2.7821 -1.2685
  147DOPC  C21817536   0.706   3.135  15.330 -0.6346  0.2071  0.1367
  147DOPC  H18R17537   0.749   3.079  15.244  0.4615  1.5675 -0.2281
  147DOPC  H18S17538   0.605   3.167  15.296 -0.4071  1.1616  0.3433
  147DOPC  H18T17539   0.694   3.068  15.418 -2.2059 -0.7118 -0.7217
  147DOPC   C3317540   1.980   3.674  16.450 -0.2273  0.5597 -0.0409
  147DOPC   H3X17541   1.926   3.579  16.430 -2.2601  1.7413 -0.4498
  147DOPC   H3Y17542   2.082   3.648  16.485  0.3936  2.0689 -0.6616
  147DOPC   C3417543   1.984   3.756  16.318  0.0348  0.4498 -0.1472
  147DOPC   H4X17544   2.023   3.859  16.324  0.3577  0.2941  0.4626
  147DOPC   H4Y17545   1.876   3.774  16.296 -0.1904 -1.6896 -1.0613
  147DOPC   C3517546   2.038   3.674  16.194  0.0448 -0.5903 -0.3985
  147DOPC   H5X17547   1.987   3.575  16.198 -2.2903  0.5415 -0.6725
  147DOPC   H5Y17548   2.144   3.652  16.220 -0.2637 -2.7732 -0.7783
  147DOPC   C3617549   2.024   3.735  16.059  0.3412 -0.0711  0.6123
  147DOPC   H6X17550   2.035   3.844  16.074  0.3974 -0.0855  0.6772
  147DOPC   H6Y17551   2.095   3.689  15.988  0.8818  0.2101  0.9698
  147DOPC   C3717552   1.878   3.716  16.002  0.2388 -0.1429 -0.7971
  147DOPC   H7X17553   1.839   3.620  15.962 -1.6133  0.1599  0.1721
  147DOPC   H7Y17554   1.806   3.737  16.084  1.2998  1.2586 -0.1751
  147DOPC   C3817555   1.857   3.811  15.887  0.0838 -0.0719  0.6189
  147DOPC   H8X17556   1.895   3.761  15.796 -1.9968 -2.7553  1.1073
  147DOPC   H8Y17557   1.923   3.900  15.897  1.5341 -0.7703 -1.8871
  147DOPC   C3917558   1.708   3.846  15.873 -0.2622  0.1678  0.1574
  147DOPC   H9X17559   1.677   3.928  15.939  1.8125  0.6921  0.5544
  147DOPC  C31017560   1.620   3.769  15.809  0.2122 -0.0569 -0.0855
  147DOPC  H10X17561   1.518   3.808  15.801  0.8545  1.3672 -2.2755
  147DOPC  C31117562   1.642   3.638  15.739 -0.4143 -0.2944  1.0657
  147DOPC  H11X17563   1.572   3.557  15.770  0.4146 -1.6883 -0.5543
  147DOPC  H11Y17564   1.743   3.596  15.757  0.4648  1.2313 -0.0584
  147DOPC  C31217565   1.628   3.646  15.593 -0.5052  0.0478  0.0073
  147DOPC  H12X17566   1.527   3.685  15.568 -1.1035 -0.2914  1.7468
  147DOPC  H12Y17567   1.621   3.540  15.558  1.2571 -0.9184  2.3487
  147DOPC  C31317568   1.741   3.711  15.516 -0.0494 -0.1729  0.0678
  147DOPC  H13X17569   1.760   3.802  15.577 -0.8199  0.0296  0.0058
  147DOPC  H13Y17570   1.835   3.651  15.521  0.6358  0.7815 -0.8829
  147DOPC  C31417571   1.699   3.754  15.376 -0.1000  0.2739  1.6817
  147DOPC  H14X17572   1.613   3.824  15.386 -1.3602 -0.7399 -1.0746
  147DOPC  H14Y17573   1.779   3.805  15.318  0.7163 -1.2824  1.3913
  147DOPC  C31517574   1.653   3.642  15.276 -0.1055 -0.0533 -0.1964
  147DOPC  H15X17575   1.633   3.694  15.180  1.4168 -0.9645 -1.0711
  147DOPC  H15Y17576   1.555   3.613  15.319  0.1876 -0.8517 -0.0353
  147DOPC  C31617577   1.745   3.514  15.261  0.0501  0.7720  0.9171
  147DOPC  H16X17578   1.843   3.540  15.215  0.0974 -0.7002  0.1372
  147DOPC  H16Y17579   1.766   3.479  15.365 -0.4214  0.5733  0.9449
  147DOPC  C31717580   1.673   3.406  15.183  0.6932 -0.8924 -0.1842
  147DOPC  H17X17581   1.734   3.313  15.177 -0.7130 -1.8655 -0.1497
  147DOPC  H17Y17582   1.586   3.375  15.246  0.5477  0.1342  0.1359
  147DOPC  C31817583   1.621   3.445  15.045 -0.8453  0.2471 -0.2493
  147DOPC  H18X17584   1.701   3.507  14.998 -0.4987  0.8807  1.1169
  147DOPC  H18Y17585   1.608   3.350  14.989  0.4870 -0.1092  0.0078
  147DOPC  H18Z17586   1.532   3.512  15.051  0.1823  1.6625 -0.3270
  148DOPC     N17587   1.706   6.080  17.198  0.3518 -0.4346 -0.2118
  148DOPC   C1217588   1.746   6.065  17.049 -0.6857 -0.0348  0.1691
  148DOPC  H12A17589   1.709   6.146  16.988  0.5257 -0.5466 -1.2973
  148DOPC  H12B17590   1.694   5.978  17.012 -2.0120 -0.6364  3.1547
  148DOPC   C1317591   1.560   6.118  17.202 -0.1531  0.0758  0.3633
  148DOPC  H13A17592   1.528   6.149  17.300 -1.1947 -0.4597  0.2165
  148DOPC  H13B17593   1.535   6.205  17.142  2.2477  0.6717  0.1538
  148DOPC  H13C17594   1.502   6.030  17.175  0.6753 -1.2894  2.7931
  148DOPC   C1417595   1.789   6.191  17.265  0.0865 -0.1929 -0.3187
  148DOPC  H14A17596   1.773   6.192  17.372 -2.1101  0.8856 -0.5984
  148DOPC  H14B17597   1.894   6.173  17.246 -0.2012 -3.3344  0.4904
  148DOPC  H14C17598   1.753   6.282  17.220  0.2344 -0.7032 -1.5179
  148DOPC   C1517599   1.722   5.943  17.260 -0.5335  0.4332 -0.2526
  148DOPC  H15A17600   1.686   5.863  17.197  4.8873 -3.5701  1.0869
  148DOPC  H15B17601   1.671   5.938  17.355  0.8496 -1.8377  0.4551
  148DOPC  H15C17602   1.825   5.914  17.263 -1.4644 -3.7925 -1.9016
  148DOPC   C1117603   1.896   6.039  17.026  0.0684 -0.0029 -0.7972
  148DOPC  H11A17604   1.931   5.948  17.078 -1.5543  1.0691  2.5333
  148DOPC  H11B17605   1.913   6.006  16.922 -1.2633 -1.3957 -0.5991
  148DOPC     P17606   2.130   6.133  17.092  0.1164 -0.2044  0.5449
  148DOPC   O1317607   2.157   6.044  17.210  0.1278 -0.2883 -0.2483
  148DOPC   O1417608   2.190   6.267  17.104 -0.0279 -0.3335 -0.2917
  148DOPC   O1217609   1.977   6.152  17.057 -0.5660  0.0866 -0.0879
  148DOPC   O1117610   2.184   6.063  16.962  0.0074  0.9439  0.0101
  148DOPC    C117611   2.152   6.141  16.841  0.3695  0.3289 -0.8281
  148DOPC    HA17612   2.197   6.242  16.850 -0.5738  0.5948  1.8293
  148DOPC    HB17613   2.045   6.169  16.826 -0.2116 -0.9728  0.6546
  148DOPC    C217614   2.196   6.067  16.706 -0.2997 -0.4854 -0.6404
  148DOPC    HS17615   2.134   5.975  16.699 -0.5245 -0.2250 -2.4977
  148DOPC   O2117616   2.341   6.040  16.719  0.1970 -0.2863 -0.0991
  148DOPC   C2117617   2.384   5.935  16.644 -0.1732 -0.4724  0.3081
  148DOPC   O2217618   2.314   5.855  16.588 -0.1284 -0.1907  0.3409
  148DOPC   C2217619   2.537   5.930  16.651  0.1043 -0.0393  0.4609
  148DOPC   H2R17620   2.565   5.875  16.744 -3.1699  0.7275  2.0680
  148DOPC   H2S17621   2.581   6.031  16.661  0.4259 -0.2622  1.3896
  148DOPC    C317622   2.163   6.151  16.584 -0.3255 -0.9338 -0.2056
  148DOPC    HX17623   2.229   6.240  16.591 -1.1760 -0.3418  0.4374
  148DOPC    HY17624   2.058   6.184  16.594  0.1545  0.8313 -0.6919
  148DOPC   O3117625   2.173   6.081  16.459 -0.4108 -0.0237  0.0211
  148DOPC   C3117626   2.268   6.117  16.376  0.1753 -0.1481  0.9247
  148DOPC   O3217627   2.345   6.208  16.393  0.2724 -0.3089 -0.2315
  148DOPC   C3217628   2.264   6.034  16.247 -0.6489  0.8396 -0.3872
  148DOPC   H2X17629   2.289   5.929  16.270  0.6403  1.4227  1.0933
  148DOPC   H2Y17630   2.156   6.042  16.222 -1.3368 -0.4143  1.8643
  148DOPC   C2317631   2.617   5.852  16.543  0.0733  0.4596  0.1907
  148DOPC   H3R17632   2.583   5.747  16.529  1.5266  0.1263 -1.1123
  148DOPC   H3S17633   2.720   5.860  16.583  0.4276 -2.4656  0.0766
  148DOPC   C2417634   2.612   5.902  16.395 -0.0614  0.1459 -0.2121
  148DOPC   H4R17635   2.634   6.011  16.385  1.7900 -0.2088 -0.4988
  148DOPC   H4S17636   2.510   5.881  16.358 -0.7173 -1.4966  2.2925
  148DOPC   C2517637   2.719   5.829  16.302  1.0761 -0.1724  0.3010
  148DOPC   H5R17638   2.690   5.727  16.269 -0.1297  0.5733 -1.0532
  148DOPC   H5S17639   2.810   5.827  16.365 -0.1591 -1.0113  2.1107
  148DOPC   C2617640   2.739   5.913  16.180 -0.5061 -0.9456 -0.4129
  148DOPC   H6R17641   2.764   6.017  16.211 -1.9298 -1.0164  1.1171
  148DOPC   H6S17642   2.647   5.928  16.121 -0.4014  1.4027 -0.0801
  148DOPC   C2717643   2.848   5.860  16.080  0.0707  1.1558  0.7986
  148DOPC   H7R17644   2.944   5.849  16.136 -0.0976 -1.5673  0.6830
  148DOPC   H7S17645   2.865   5.929  15.995 -2.8755 -1.2353 -1.9857
  148DOPC   C2817646   2.812   5.719  16.024 -0.3338  0.6397  1.1924
  148DOPC   H8R17647   2.763   5.656  16.101 -0.0418  0.2534  1.0650
  148DOPC   H8S17648   2.906   5.673  15.987 -2.0989  0.2529 -3.5301
  148DOPC   C2917649   2.712   5.741  15.912 -0.0487  0.6011 -0.0957
  148DOPC   H9R17650   2.603   5.739  15.928 -0.1215  0.5367 -0.5845
  148DOPC  C21017651   2.745   5.761  15.783 -0.1506 -0.0003 -0.3575
  148DOPC  H10R17652   2.666   5.767  15.706  0.6909 -0.0612 -1.2402
  148DOPC  C21117653   2.886   5.773  15.730 -0.1263  0.5695  0.5138
  148DOPC  H11R17654   2.952   5.768  15.819 -0.8684 -0.8682  1.0201
  148DOPC  H11S17655   2.914   5.874  15.693  1.2099  1.1902  2.9546
  148DOPC  C21217656   2.920   5.667  15.622 -0.8050 -0.0584 -0.3658
  148DOPC  H12R17657   2.830   5.664  15.557 -0.0446  1.7429 -1.5672
  148DOPC  H12S17658   2.939   5.568  15.668 -2.3092 -0.2373 -0.0841
  148DOPC  C21317659   3.044   5.709  15.549  0.2353 -0.0190 -0.0968
  148DOPC  H13R17660   3.140   5.709  15.606  2.1861 -1.9624 -3.0808
  148DOPC  H13S17661   3.025   5.814  15.519 -2.2459 -0.7864 -1.5673
  148DOPC  C21417662   3.081   5.607  15.432  0.1917 -0.0211  0.4622
  148DOPC  H14R17663   2.992   5.589  15.367  1.5138 -0.2220 -1.3740
  148DOPC  H14S17664   3.113   5.512  15.479  0.3416 -0.3764 -0.3358
  148DOPC  C21517665   3.196   5.651  15.338  0.6506 -0.0533  0.1877
  148DOPC  H15R17666   3.242   5.559  15.296  1.2109  0.3434 -0.0729
  148DOPC  H15S17667   3.264   5.708  15.405 -3.2214  1.8779  2.9136
  148DOPC  C21617668   3.130   5.737  15.222  0.4972  0.9467  0.0545
  148DOPC  H16R17669   3.072   5.822  15.265 -1.9225 -0.6128  0.0296
  148DOPC  H16S17670   3.054   5.676  15.169  1.3408 -2.1232  2.0898
  148DOPC  C21717671   3.242   5.788  15.129  0.0530  0.0818  0.1185
  148DOPC  H17R17672   3.314   5.831  15.201  1.2711 -1.4261 -0.1418
  148DOPC  H17S17673   3.204   5.858  15.052 -0.7353 -1.7483 -1.2422
  148DOPC  C21817674   3.303   5.665  15.054  0.3786 -1.1685  0.0270
  148DOPC  H18R17675   3.215   5.617  15.005  0.8523 -1.9544 -0.0770
  148DOPC  H18S17676   3.359   5.592  15.117  3.6235  1.6055  0.6289
  148DOPC  H18T17677   3.372   5.701  14.974 -1.9472 -1.0054 -2.0349
  148DOPC   C3317678   2.349   6.080  16.131  0.1225  0.0480 -0.2284
  148DOPC   H3X17679   2.457   6.075  16.155  0.9245  1.1854 -3.1165
  148DOPC   H3Y17680   2.329   6.185  16.100  0.0644  0.2059  0.3293
  148DOPC   C3417681   2.330   5.996  16.004 -0.5741  0.1553  0.0633
  148DOPC   H4X17682   2.223   5.991  15.976 -0.4066  1.7597 -0.9801
  148DOPC   H4Y17683   2.379   5.897  16.019 -0.3159  0.4010  0.8885
  148DOPC   C3517684   2.419   6.057  15.889  0.2718 -0.0549  0.3510
  148DOPC   H5X17685   2.527   6.048  15.910  0.4872  0.1980 -0.5680
  148DOPC   H5Y17686   2.393   6.165  15.878  0.2827  0.0032  0.8803
  148DOPC   C3617687   2.385   5.975  15.762  0.3264 -0.4481  0.5072
  148DOPC   H6X17688   2.418   5.871  15.785 -1.6123 -0.8369  1.7733
  148DOPC   H6Y17689   2.274   5.969  15.760  0.3832 -1.5432 -0.9662
  148DOPC   C3717690   2.425   6.026  15.623 -0.6553  0.9042 -0.4957
  148DOPC   H7X17691   2.404   6.136  15.623  2.4232  1.6298  1.7633
  148DOPC   H7Y17692   2.535   6.022  15.612 -0.6283  1.8735 -0.6749
  148DOPC   C3817693   2.363   5.945  15.510  0.3547 -0.2228  0.3380
  148DOPC   H8X17694   2.254   5.965  15.515  0.1384 -0.8538 -1.2740
  148DOPC   H8Y17695   2.381   5.836  15.525 -1.3929 -0.5475  0.2210
  148DOPC   C3917696   2.413   5.995  15.376 -0.0545 -0.1982 -0.0781
  148DOPC   H9X17697   2.346   6.063  15.322 -1.1976 -1.1074  0.1387
  148DOPC  C31017698   2.526   5.945  15.312  0.4920 -0.4814  0.4174
  148DOPC  H10X17699   2.558   5.991  15.218  0.2547 -1.8074 -0.3458
  148DOPC  C31117700   2.632   5.852  15.364 -0.1437  0.3044  0.2238
  148DOPC  H11X17701   2.620   5.836  15.474  1.5505  1.5538  0.6186
  148DOPC  H11Y17702   2.735   5.887  15.343  0.1311  0.3631  1.5623
  148DOPC  C31217703   2.622   5.707  15.305  0.4880 -0.3632 -0.0828
  148DOPC  H12X17704   2.519   5.670  15.324 -0.2660  1.9079  0.5564
  148DOPC  H12Y17705   2.692   5.646  15.366 -0.5299 -2.0194 -0.5187
  148DOPC  C31317706   2.661   5.699  15.156 -0.3464  0.6483 -0.2981
  148DOPC  H13X17707   2.582   5.743  15.091 -0.7682 -1.0431 -0.9969
  148DOPC  H13Y17708   2.758   5.751  15.160 -0.5753  1.0227  2.6599
  148DOPC  C31417709   2.704   5.559  15.100 -0.3744 -0.2758 -0.1085
  148DOPC  H14X17710   2.784   5.517  15.164  1.0026 -2.3726 -2.9788
  148DOPC  H14Y17711   2.620   5.486  15.096 -0.6367  0.0539 -2.4266
  148DOPC  C31517712   2.749   5.566  14.953 -0.0809  0.3646 -0.0050
  148DOPC  H15X17713   2.823   5.646  14.932 -0.5456  0.3530 -1.9728
  148DOPC  H15Y17714   2.655   5.589  14.898 -0.7200  2.8552  1.9508
  148DOPC  C31617715   2.802   5.433  14.905 -0.1211  1.1284  0.0588
  148DOPC  H16X17716   2.861   5.377  14.980  0.1425  0.9513 -0.2826
  148DOPC  H16Y17717   2.717   5.362  14.891 -0.8926  2.4615 -2.8205
  148DOPC  C31717718   2.893   5.436  14.776  0.6514  0.1504  0.5667
  148DOPC  H17X17719   2.885   5.336  14.729 -1.5128 -0.3460  1.8337
  148DOPC  H17Y17720   2.851   5.506  14.700 -1.4149 -0.4982  1.0504
  148DOPC  C31817721   3.038   5.467  14.816 -0.2031  0.5159 -0.0523
  148DOPC  H18X17722   3.082   5.371  14.852 -2.9994 -0.7160  0.3361
  148DOPC  H18Y17723   3.085   5.493  14.718 -2.5062  1.2557 -1.0274
  148DOPC  H18Z17724   3.059   5.547  14.889  2.6744  0.6270 -0.8799
  149DOPC     N17725   0.852   4.145  17.517 -0.1205 -0.2295  0.4498
  149DOPC   C1217726   0.985   4.193  17.462 -0.0643  0.2777  0.5191
  149DOPC  H12A17727   1.062   4.134  17.511  0.6747 -0.7858 -1.7494
  149DOPC  H12B17728   1.005   4.299  17.474  0.3328  0.2535  0.1268
  149DOPC   C1317729   0.831   3.998  17.509  0.8650  0.0910 -0.0516
  149DOPC  H13A17730   0.738   3.966  17.553  0.7906 -0.8334 -0.8504
  149DOPC  H13B17731   0.833   3.962  17.407  2.1805  1.1699 -0.4404
  149DOPC  H13C17732   0.905   3.940  17.563 -0.9911 -2.5242 -0.1562
  149DOPC   C1417733   0.731   4.210  17.452 -0.3122  0.1803  0.9099
  149DOPC  H14A17734   0.745   4.315  17.428 -0.5147  0.1399  0.6118
  149DOPC  H14B17735   0.696   4.155  17.366 -2.7678  1.8763  0.7148
  149DOPC  H14C17736   0.651   4.204  17.524 -0.4394  1.2975  0.8843
  149DOPC   C1517737   0.845   4.176  17.658  0.1991  0.2795 -0.3703
  149DOPC  H15A17738   0.745   4.155  17.694  0.1041  0.4991 -0.5021
  149DOPC  H15B17739   0.848   4.283  17.676 -2.6158  0.0398  2.4037
  149DOPC  H15C17740   0.911   4.120  17.722  1.4997  1.1511 -0.9112
  149DOPC   C1117741   1.011   4.162  17.305  0.0976  0.3049 -0.0256
  149DOPC  H11A17742   1.116   4.179  17.274  0.8170 -2.7961  0.3880
  149DOPC  H11B17743   1.002   4.052  17.306  2.7718  0.0084 -1.1811
  149DOPC     P17744   0.946   4.380  17.179  0.0642  0.1050  0.1676
  149DOPC   O1317745   1.086   4.396  17.119  0.2372  0.4871  0.5951
  149DOPC   O1417746   0.921   4.467  17.296  0.6559 -0.3006  0.2978
  149DOPC   O1217747   0.922   4.232  17.220  0.0964 -0.3777  0.4369
  149DOPC   O1117748   0.845   4.418  17.060 -0.2282  0.5186 -0.3384
  149DOPC    C117749   0.732   4.327  17.037  0.2209  0.3702  0.2649
  149DOPC    HA17750   0.646   4.376  16.986 -0.7241 -0.6372  0.8495
  149DOPC    HB17751   0.698   4.288  17.135  1.9374  0.0941  0.7848
  149DOPC    C217752   0.776   4.203  16.955  0.5803  0.0703  0.8658
  149DOPC    HS17753   0.837   4.135  17.018  0.5127  0.7480  1.6817
  149DOPC   O2117754   0.857   4.249  16.850 -0.1761  0.1504  0.5860
  149DOPC   C2117755   0.938   4.166  16.794  0.1206  0.2131  0.7065
  149DOPC   O2217756   0.961   4.053  16.840 -0.3322 -0.1157 -0.0611
  149DOPC   C2217757   1.002   4.226  16.668 -0.2859  0.8768 -0.2533
  149DOPC   H2R17758   1.036   4.330  16.690 -0.5930  1.7158 -3.3121
  149DOPC   H2S17759   0.918   4.224  16.596 -2.2191 -0.5713  1.8979
  149DOPC    C317760   0.663   4.108  16.903  0.0348  0.3586  0.4701
  149DOPC    HX17761   0.607   4.084  16.995 -2.1125  1.4952 -0.4616
  149DOPC    HY17762   0.682   4.012  16.850 -3.2718  1.0397 -2.3327
  149DOPC   O3117763   0.588   4.195  16.820 -0.2817  0.0402  0.2082
  149DOPC   C3117764   0.595   4.178  16.685 -0.2757  0.1274 -0.4989
  149DOPC   O3217765   0.670   4.090  16.639 -0.1671  0.1591  0.7624
  149DOPC   C3217766   0.522   4.296  16.618 -0.0766  0.0473  0.0365
  149DOPC   H2X17767   0.415   4.292  16.648  0.1402  1.6710  1.1839
  149DOPC   H2Y17768   0.559   4.387  16.671 -1.2630  0.1707  0.6851
  149DOPC   C2317769   1.116   4.143  16.604 -0.3261 -0.0350 -0.2501
  149DOPC   H3R17770   1.075   4.042  16.580  2.0209 -1.1228  0.0316
  149DOPC   H3S17771   1.205   4.121  16.667  0.9900 -0.7311 -2.2516
  149DOPC   C2417772   1.171   4.200  16.472 -0.0346 -0.2405  0.0670
  149DOPC   H4R17773   1.224   4.297  16.482  0.0262 -0.0156 -1.9529
  149DOPC   H4S17774   1.081   4.224  16.411 -0.6574  0.0250  1.0641
  149DOPC   C2517775   1.250   4.097  16.389  0.0177 -0.6446  0.7905
  149DOPC   H5R17776   1.205   3.997  16.369  0.8282 -0.6799 -1.1075
  149DOPC   H5S17777   1.339   4.090  16.455 -0.5233  1.1251  1.7693
  149DOPC   C2617778   1.275   4.144  16.241  0.3048 -0.5178 -0.1718
  149DOPC   H6R17779   1.331   4.239  16.258  1.5916 -1.6823  2.8866
  149DOPC   H6S17780   1.179   4.175  16.194  0.6045  1.1107  0.2134
  149DOPC   C2717781   1.345   4.042  16.153  0.0307 -0.2337 -0.1045
  149DOPC   H7R17782   1.272   3.958  16.153  0.0052 -0.2130  0.5994
  149DOPC   H7S17783   1.438   3.995  16.191 -2.2165 -3.4048  2.0447
  149DOPC   C2817784   1.371   4.081  16.003 -0.4402 -0.5658 -0.3031
  149DOPC   H8R17785   1.274   4.105  15.954 -1.2517 -0.0673  1.4634
  149DOPC   H8S17786   1.384   3.978  15.964 -0.9409 -1.6642  2.1760
  149DOPC   C2917787   1.471   4.192  15.967  0.4416 -0.5074  0.4373
  149DOPC   H9R17788   1.490   4.271  16.041  1.0003 -0.5806  0.3765
  149DOPC  C21017789   1.525   4.203  15.848  0.1070 -0.0695  0.0422
  149DOPC  H10R17790   1.621   4.257  15.839  1.3790 -2.4781 -2.5171
  149DOPC  C21117791   1.492   4.117  15.726 -0.4562  0.9018  0.2212
  149DOPC  H11R17792   1.418   4.037  15.744  0.8623  0.0604  2.1524
  149DOPC  H11S17793   1.587   4.075  15.685 -0.7996  1.2086 -0.9198
  149DOPC  C21217794   1.422   4.199  15.616 -1.0998  0.0931  0.0273
  149DOPC  H12R17795   1.484   4.290  15.597 -0.4485  0.1497  2.2069
  149DOPC  H12S17796   1.330   4.241  15.662  0.0624  1.4391  1.2387
  149DOPC  C21317797   1.374   4.123  15.494  0.2356  0.3631 -0.4694
  149DOPC  H13R17798   1.288   4.180  15.451  0.1286 -0.6541 -1.6457
  149DOPC  H13S17799   1.338   4.023  15.526 -0.9712  0.0551 -2.5919
  149DOPC  C21417800   1.474   4.112  15.377 -0.2970  0.5332 -0.1980
  149DOPC  H14R17801   1.549   4.032  15.395  0.3016  1.0214 -0.5026
  149DOPC  H14S17802   1.536   4.203  15.368  1.1194 -0.3935 -0.0845
  149DOPC  C21517803   1.415   4.061  15.250  0.3676 -0.2467  0.1913
  149DOPC  H15R17804   1.339   4.134  15.214  0.7389 -0.8629 -1.9735
  149DOPC  H15S17805   1.366   3.964  15.271 -0.2689  0.1325  0.5137
  149DOPC  C21617806   1.518   4.046  15.142  0.4702 -0.2668 -0.2375
  149DOPC  H16R17807   1.476   3.990  15.056  0.0671  2.2130 -1.7520
  149DOPC  H16S17808   1.605   3.990  15.182 -0.3111 -2.1262 -1.0078
  149DOPC  C21717809   1.573   4.178  15.090 -0.2904 -0.2827 -0.5838
  149DOPC  H17R17810   1.641   4.214  15.170  0.4466 -0.4359 -1.1294
  149DOPC  H17S17811   1.497   4.255  15.066  1.8796  2.3752  0.5656
  149DOPC  C21817812   1.663   4.150  14.960  0.4019  0.1369  0.4950
  149DOPC  H18R17813   1.596   4.124  14.875  0.8060  0.7810 -0.0352
  149DOPC  H18S17814   1.730   4.067  14.991 -0.0926 -0.2470  0.5331
  149DOPC  H18T17815   1.722   4.237  14.921 -0.1387  0.7948  1.1191
  149DOPC   C3317816   0.550   4.320  16.466 -0.0519 -0.3017  0.3674
  149DOPC   H3X17817   0.476   4.393  16.425 -0.6067 -0.8333  0.3995
  149DOPC   H3Y17818   0.540   4.224  16.411  0.3978 -0.1934  0.0951
  149DOPC   C3417819   0.685   4.389  16.447  0.6413  1.2283  0.1897
  149DOPC   H4X17820   0.761   4.310  16.464 -0.3230 -0.0871 -1.3715
  149DOPC   H4Y17821   0.694   4.464  16.529  0.4492  0.3813  1.0090
  149DOPC   C3517822   0.706   4.453  16.312  0.0304  0.6247 -0.6618
  149DOPC   H5X17823   0.812   4.487  16.305  0.5246 -1.0619 -2.2506
  149DOPC   H5Y17824   0.639   4.538  16.290 -0.5776  0.4486  0.4020
  149DOPC   C3617825   0.691   4.358  16.195  0.4464  0.2300 -0.6791
  149DOPC   H6X17826   0.752   4.266  16.205 -0.5314 -0.5404 -1.5508
  149DOPC   H6Y17827   0.585   4.327  16.188  0.3165  0.7019 -0.8600
  149DOPC   C3717828   0.709   4.428  16.064  0.2975  0.4379 -0.2278
  149DOPC   H7X17829   0.673   4.376  15.973  0.3282  0.8700 -0.4926
  149DOPC   H7Y17830   0.643   4.517  16.073  1.7855  1.5483  0.1953
  149DOPC   C3817831   0.856   4.474  16.039  0.2395  0.1873 -0.1850
  149DOPC   H8X17832   0.884   4.543  16.121  1.0772  0.4795 -0.7059
  149DOPC   H8Y17833   0.852   4.538  15.948  1.8293  0.6919  0.0811
  149DOPC   C3917834   0.950   4.358  16.021 -0.2585 -0.2595  0.4704
  149DOPC   H9X17835   0.997   4.325  16.115 -0.5393  0.1963  0.7760
  149DOPC  C31017836   0.986   4.306  15.906 -0.3250 -0.2407  0.4724
  149DOPC  H10X17837   1.064   4.229  15.912 -0.4211 -0.2777  1.3720
  149DOPC  C31117838   0.944   4.344  15.769 -0.1517 -0.6727 -0.3769
  149DOPC  H11X17839   0.991   4.440  15.740 -0.9175 -0.4129 -0.7948
  149DOPC  H11Y17840   0.835   4.364  15.761 -0.0934 -0.7250 -1.4504
  149DOPC  C31217841   0.967   4.236  15.660  0.4095 -0.2136 -0.5855
  149DOPC  H12X17842   0.905   4.145  15.675 -1.1607  0.7839 -0.7209
  149DOPC  H12Y17843   1.074   4.211  15.675  1.9341  4.6988 -1.4105
  149DOPC  C31317844   0.950   4.285  15.519  0.2903  0.2721  0.5644
  149DOPC  H13X17845   0.850   4.332  15.513  0.9789  1.8041  0.4180
  149DOPC  H13Y17846   1.012   4.375  15.498 -2.4152  1.9185 -0.9474
  149DOPC  C31417847   0.975   4.177  15.419  0.1822 -0.0296 -0.6047
  149DOPC  H14X17848   1.065   4.119  15.449 -0.0024 -0.1529 -0.2855
  149DOPC  H14Y17849   0.880   4.119  15.423 -1.0887  1.9837 -0.0819
  149DOPC  C31517850   0.989   4.236  15.276  0.3253  0.2440  0.8118
  149DOPC  H15X17851   1.061   4.321  15.285 -0.0079  0.7885 -1.1059
  149DOPC  H15Y17852   0.891   4.276  15.242  0.9352  1.5751  0.5454
  149DOPC  C31617853   1.038   4.128  15.186  0.0531 -0.6610 -0.4854
  149DOPC  H16X17854   1.109   4.055  15.232 -0.5255 -1.4348 -0.7906
  149DOPC  H16Y17855   0.942   4.076  15.166 -1.1121  1.5098 -0.8344
  149DOPC  C31717856   1.102   4.181  15.056 -0.3885 -0.3753  0.1180
  149DOPC  H17X17857   1.040   4.266  15.020  2.9949  2.5642  0.7492
  149DOPC  H17Y17858   1.198   4.232  15.081 -0.8343  0.9265 -0.7215
  149DOPC  C31817859   1.151   4.088  14.943  0.3888  0.6271  0.2622
  149DOPC  H18X17860   1.238   4.029  14.979 -1.0184 -1.0144  1.0989
  149DOPC  H18Y17861   1.076   4.012  14.911  2.1340 -1.0429 -0.0621
  149DOPC  H18Z17862   1.178   4.149  14.853  1.5181 -1.1866 -0.6874
  150DOPC     N17863   3.669   4.983  16.977  0.4730  0.1641 -0.1244
  150DOPC   C1217864   3.810   4.943  16.984 -0.6642  0.2508 -0.6087
  150DOPC  H12A17865   3.812   4.835  16.989 -1.7948  0.2515  3.6045
  150DOPC  H12B17866   3.864   4.967  17.075  0.1803 -2.3577 -0.3501
  150DOPC   C1317867   3.596   4.924  16.855  0.4275 -0.7032 -0.4086
  150DOPC  H13A17868   3.637   4.961  16.762 -0.3384 -0.1214 -0.5257
  150DOPC  H13B17869   3.614   4.818  16.856  1.3019 -0.5620  0.1662
  150DOPC  H13C17870   3.492   4.951  16.860  0.4837  0.0904 -2.4254
  150DOPC   C1417871   3.649   5.132  16.978  0.1582  0.5368 -0.0463
  150DOPC  H14A17872   3.694   5.183  17.062  3.2729  1.4062 -2.0668
  150DOPC  H14B17873   3.687   5.173  16.886  0.8858  0.1177  0.0588
  150DOPC  H14C17874   3.543   5.154  16.986  0.2000  0.1823  2.1414
  150DOPC   C1517875   3.603   4.929  17.103  0.3658  0.1121  0.0821
  150DOPC  H15A17876   3.610   4.822  17.109  2.4400  0.2455  0.9396
  150DOPC  H15B17877   3.496   4.944  17.106  0.2485 -0.7132  0.3163
  150DOPC  H15C17878   3.643   4.984  17.188 -2.8645 -0.0950  1.8916
  150DOPC   C1117879   3.908   4.984  16.864  1.0464 -0.4016 -0.0018
  150DOPC  H11A17880   4.007   4.940  16.890  0.1792 -1.8458  0.9949
  150DOPC  H11B17881   3.878   4.946  16.765 -0.2862 -2.0645  0.9856
  150DOPC     P17882   4.005   5.212  16.944  0.9978  0.4174 -0.1382
  150DOPC   O1317883   4.023   5.163  17.085  0.1765  0.6224  0.1495
  150DOPC   O1417884   3.964   5.354  16.928 -0.2372  0.0716  0.0761
  150DOPC   O1217885   3.907   5.130  16.856 -0.0040  0.8281 -0.1887
  150DOPC   O1117886   4.138   5.180  16.878  0.5978 -0.6116 -0.5126
  150DOPC    C117887   4.168   5.219  16.743 -0.0067 -0.0821  0.8666
  150DOPC    HA17888   4.244   5.298  16.755  1.8634 -1.9807  2.4543
  150DOPC    HB17889   4.086   5.266  16.686  0.6932  0.7334  0.5245
  150DOPC    C217890   4.226   5.102  16.651  0.4818 -0.0859 -0.2115
  150DOPC    HS17891   4.279   5.149  16.565 -1.5828  2.0133 -0.4066
  150DOPC   O2117892   4.119   5.011  16.607 -0.6454 -0.0049  0.0291
  150DOPC   C2117893   4.058   5.048  16.493 -0.2591  0.5357 -0.6377
  150DOPC   O2217894   4.093   5.151  16.432 -0.1851 -0.2919  0.3671
  150DOPC   C2217895   3.969   4.933  16.439 -0.2835 -0.1891 -0.5975
  150DOPC   H2R17896   3.876   4.982  16.402  0.7620  0.2988 -2.7027
  150DOPC   H2S17897   3.950   4.868  16.527 -0.4392  1.8724  0.9898
  150DOPC    C317898   4.329   5.016  16.717  1.0120 -0.3005  0.5015
  150DOPC    HX17899   4.284   4.968  16.806  1.4806 -0.9903  0.3682
  150DOPC    HY17900   4.420   5.077  16.735 -0.6876  2.3983  0.5033
  150DOPC   O3117901   4.385   4.919  16.622  0.0099  0.0874  0.1115
  150DOPC   C3117902   4.387   4.798  16.663 -0.3143 -0.6459 -0.0874
  150DOPC   O3217903   4.356   4.753  16.773  0.6362 -0.0094 -0.5872
  150DOPC   C3217904   4.461   4.720  16.547  0.5260  0.3662  0.0899
  150DOPC   H2X17905   4.548   4.781  16.515  1.7504 -1.6946 -0.7107
  150DOPC   H2Y17906   4.495   4.627  16.597 -0.0238  1.1610  2.0791
  150DOPC   C2317907   4.042   4.850  16.331 -0.2208 -0.4260 -0.4161
  150DOPC   H3R17908   3.992   4.751  16.323  0.4934 -0.6395 -3.2085
  150DOPC   H3S17909   4.146   4.830  16.365 -1.0632 -0.8394  2.1613
  150DOPC   C2417910   4.032   4.917  16.193  0.7002  1.0399  0.1575
  150DOPC   H4R17911   4.091   5.011  16.198  3.0193 -0.1327 -2.6907
  150DOPC   H4S17912   3.927   4.933  16.161  0.8281  2.0977  0.2306
  150DOPC   C2517913   4.110   4.827  16.096 -0.8397  0.4075  0.3682
  150DOPC   H5R17914   4.077   4.721  16.105  2.2707 -0.9897 -2.4429
  150DOPC   H5S17915   4.218   4.819  16.120 -0.3425  0.2817 -1.7304
  150DOPC   C2617916   4.086   4.872  15.953  0.0069  0.6311 -0.2791
  150DOPC   H6R17917   4.083   4.983  15.946 -0.5834  0.6481  0.1713
  150DOPC   H6S17918   3.979   4.853  15.927  0.2625 -1.6552  0.1128
  150DOPC   C2717919   4.178   4.813  15.846  0.0786 -0.3864  0.0295
  150DOPC   H7R17920   4.195   4.703  15.855 -0.7676 -0.6154 -1.0048
  150DOPC   H7S17921   4.274   4.859  15.876  1.0872 -2.4196  0.0928
  150DOPC   C2817922   4.154   4.842  15.703  0.4289  0.8092  0.4199
  150DOPC   H8R17923   4.138   4.951  15.685  0.3421  0.4308 -2.3320
  150DOPC   H8S17924   4.058   4.791  15.681  1.4594 -1.8885  1.7827
  150DOPC   C2917925   4.273   4.806  15.620  0.0180  0.2942 -0.4030
  150DOPC   H9R17926   4.345   4.887  15.605 -0.3136  0.9526  1.3304
  150DOPC  C21017927   4.299   4.686  15.570 -0.0611 -0.0636  0.2056
  150DOPC  H10R17928   4.396   4.672  15.521  0.3426  4.0645 -0.5311
  150DOPC  C21117929   4.212   4.559  15.591 -0.2070  0.1311  0.3444
  150DOPC  H11R17930   4.108   4.587  15.620 -0.3767  0.4783 -0.5657
  150DOPC  H11S17931   4.260   4.502  15.673 -0.2563  0.9357  0.9441
  150DOPC  C21217932   4.208   4.472  15.462  0.4339 -0.7379  0.2178
  150DOPC  H12R17933   4.140   4.385  15.474 -2.6749  1.2438 -1.7399
  150DOPC  H12S17934   4.313   4.440  15.444  0.0275 -1.3322 -1.2320
  150DOPC  C21317935   4.144   4.553  15.347 -0.0735 -0.0394  0.7675
  150DOPC  H13R17936   4.196   4.651  15.334 -2.6397  1.3881  0.4787
  150DOPC  H13S17937   4.036   4.573  15.364  0.1677  0.4559  1.7595
  150DOPC  C21417938   4.154   4.490  15.214 -0.0439 -0.1464 -0.0001
  150DOPC  H14R17939   4.104   4.391  15.218 -1.2978  0.4913  3.0449
  150DOPC  H14S17940   4.262   4.479  15.191  0.4509 -2.1236  2.8088
  150DOPC  C21517941   4.088   4.574  15.102 -0.1854  0.2686  0.0004
  150DOPC  H15R17942   4.136   4.674  15.109  1.8004 -0.6729  0.4766
  150DOPC  H15S17943   3.978   4.576  15.117 -0.3379 -0.9465 -0.7964
  150DOPC  C21617944   4.134   4.514  14.969  0.6325 -0.0747  0.0559
  150DOPC  H16R17945   4.085   4.414  14.969  0.3574  0.0602  0.2277
  150DOPC  H16S17946   4.242   4.488  14.972  0.6624  0.1079  0.5067
  150DOPC  C21717947   4.104   4.596  14.850 -0.7126 -0.2804 -0.4598
  150DOPC  H17R17948   4.166   4.688  14.854 -1.9591  0.7419 -2.6513
  150DOPC  H17S17949   4.001   4.636  14.865 -0.7055 -0.8284  1.3313
  150DOPC  C21817950   4.135   4.530  14.719 -0.2061  0.0028 -0.2773
  150DOPC  H18R17951   4.245   4.522  14.709 -0.4092 -0.8552 -2.4557
  150DOPC  H18S17952   4.111   4.594  14.631 -1.2653 -1.8481 -1.4099
  150DOPC  H18T17953   4.093   4.428  14.706  1.4110 -0.3277 -7.2222
  150DOPC   C3317954   4.379   4.694  16.420  0.0541  0.4353  0.6753
  150DOPC   H3X17955   4.342   4.791  16.381 -1.4994  1.5254  4.4110
  150DOPC   H3Y17956   4.295   4.631  16.456  0.9032 -0.6304  0.8457
  150DOPC   C3417957   4.463   4.628  16.315  0.5922  0.8897  0.3127
  150DOPC   H4X17958   4.537   4.555  16.353  0.3663  0.4307 -0.1093
  150DOPC   H4Y17959   4.511   4.713  16.261 -0.1266 -0.3896 -2.5603
  150DOPC   C3517960   4.380   4.532  16.229  0.0022  0.1364 -0.2594
  150DOPC   H5X17961   4.289   4.581  16.188  1.5944  1.2071 -2.7323
  150DOPC   H5Y17962   4.345   4.454  16.301  0.9513  0.5896  0.7175
  150DOPC   C3617963   4.436   4.456  16.107  0.0315 -0.0057  0.7394
  150DOPC   H6X17964   4.525   4.402  16.147 -0.8723 -2.6119 -0.5434
  150DOPC   H6Y17965   4.362   4.380  16.075  0.3717  0.3548 -1.0315
  150DOPC   C3717966   4.470   4.554  15.991  0.0126  0.1024 -0.5724
  150DOPC   H7X17967   4.380   4.612  15.960  0.0763 -0.2097 -1.3669
  150DOPC   H7Y17968   4.538   4.633  16.030 -0.0518 -0.6079  1.0722
  150DOPC   C3817969   4.542   4.482  15.877  0.1439 -0.3653  1.3223
  150DOPC   H8X17970   4.476   4.407  15.828  0.3812 -0.6266  1.3965
  150DOPC   H8Y17971   4.615   4.414  15.927 -0.9669 -0.8637  2.3204
  150DOPC   C3917972   4.605   4.572  15.777  0.4552 -0.4889  0.4216
  150DOPC   H9X17973   4.605   4.681  15.797 -1.1145 -0.3879  0.0474
  150DOPC  C31017974   4.627   4.532  15.655 -0.0327 -0.0399  0.1408
  150DOPC  H10X17975   4.671   4.601  15.581 -0.5177  0.4666  0.3144
  150DOPC  C31117976   4.615   4.391  15.596  0.2333  0.9603  0.3374
  150DOPC  H11X17977   4.510   4.374  15.564  0.4319 -1.5508  0.8128
  150DOPC  H11Y17978   4.636   4.310  15.669 -0.9122  0.3280 -0.0077
  150DOPC  C31217979   4.694   4.380  15.470  0.6774 -0.1444  0.2514
  150DOPC  H12X17980   4.711   4.272  15.448  0.9481 -0.3105  1.2274
  150DOPC  H12Y17981   4.786   4.441  15.480  0.1943  0.4963  0.8792
  150DOPC  C31317982   4.616   4.445  15.348  0.1039  0.3014  0.1373
  150DOPC  H13X17983   4.510   4.412  15.359 -0.2411  1.2893 -0.0594
  150DOPC  H13Y17984   4.611   4.554  15.366 -1.5388  0.4710 -1.1139
  150DOPC  C31417985   4.681   4.410  15.210  0.4624 -0.6799 -0.4877
  150DOPC  H14X17986   4.786   4.445  15.220  0.5230 -1.2052  0.9100
  150DOPC  H14Y17987   4.689   4.299  15.207 -0.3654 -0.8352  1.6221
  150DOPC  C31517988   4.599   4.462  15.094 -0.2744 -0.2992  0.2140
  150DOPC  H15X17989   4.592   4.572  15.094  0.4866 -0.2257 -1.8256
  150DOPC  H15Y17990   4.493   4.429  15.107  0.0997 -2.3866 -1.4790
  150DOPC  C31617991   4.652   4.412  14.955 -0.4340  0.2199 -0.6402
  150DOPC  H16X17992   4.756   4.447  14.938 -0.9615  2.0618 -0.3006
  150DOPC  H16Y17993   4.664   4.302  14.968  0.6481  0.2883 -0.9629
  150DOPC  C31717994   4.565   4.449  14.836  0.2779 -0.4479 -1.0581
  150DOPC  H17X17995   4.470   4.394  14.852  0.4400 -0.4286  0.0717
  150DOPC  H17Y17996   4.547   4.559  14.842 -1.4106 -0.6548 -1.8094
  150DOPC  C31817997   4.615   4.413  14.699 -0.4860  0.2559 -0.4799
  150DOPC  H18X17998   4.606   4.305  14.676  0.4654  0.0963 -0.1554
  150DOPC  H18Y17999   4.559   4.474  14.624  1.4752 -0.5022 -2.7102
  150DOPC  H18Z18000   4.716   4.457  14.681 -0.8931  3.8174  4.0689
  151DOPC     N18001   1.689   4.996  17.379  0.1042  0.3030  0.2202
  151DOPC   C1218002   1.794   4.929  17.300 -0.0888  0.1251 -0.3850
  151DOPC  H12A18003   1.845   4.860  17.366 -0.5772 -1.2363 -1.4062
  151DOPC  H12B18004   1.865   4.995  17.253  0.8892  0.0160  0.8646
  151DOPC   C1318005   1.752   5.074  17.494 -0.0356  0.3401  0.8918
  151DOPC  H13A18006   1.810   5.001  17.548 -1.0816 -0.4814  0.9529
  151DOPC  H13B18007   1.812   5.157  17.460  2.3310 -1.0798  1.3720
  151DOPC  H13C18008   1.669   5.104  17.557  0.4399  1.6076  0.9548
  151DOPC   C1418009   1.589   4.899  17.444  0.4545 -0.2109 -0.0243
  151DOPC  H14A18010   1.643   4.836  17.512 -0.5379  1.0419  2.0127
  151DOPC  H14B18011   1.522   4.957  17.506 -1.0728 -1.9642  0.0736
  151DOPC  H14C18012   1.531   4.848  17.368  1.8835 -2.1576  0.1326
  151DOPC   C1518013   1.606   5.085  17.305  0.0551 -0.5020  0.9811
  151DOPC  H15A18014   1.563   5.025  17.226 -0.0220  0.4470  0.2837
  151DOPC  H15B18015   1.661   5.167  17.261  0.0982  0.0361  2.0098
  151DOPC  H15C18016   1.520   5.125  17.357  1.8933  1.0196  3.0390
  151DOPC   C1118017   1.739   4.839  17.190 -0.5769 -0.0115 -0.0220
  151DOPC  H11A18018   1.829   4.778  17.170 -1.0422 -0.9713  0.7221
  151DOPC  H11B18019   1.665   4.762  17.223 -0.1317 -0.0504  0.9143
  151DOPC     P18020   1.781   4.961  16.965  0.3762  0.2360  0.4896
  151DOPC   O1318021   1.784   4.863  16.853  0.4057 -0.2622  0.3750
  151DOPC   O1418022   1.906   5.005  17.033  0.3424 -0.0909  0.2217
  151DOPC   O1218023   1.685   4.905  17.080 -0.4960 -0.5190 -0.1892
  151DOPC   O1118024   1.706   5.087  16.913 -0.3407  0.2693 -0.2593
  151DOPC    C118025   1.766   5.186  16.832  0.1541  1.1896 -0.0954
  151DOPC    HA18026   1.876   5.188  16.845  0.4476  0.0230 -1.9832
  151DOPC    HB18027   1.711   5.281  16.848 -0.5414  0.5209  1.8641
  151DOPC    C218028   1.756   5.158  16.676 -0.6264  0.2333 -0.7224
  151DOPC    HS18029   1.802   5.059  16.660 -2.3407 -0.4928 -1.3650
  151DOPC   O2118030   1.813   5.271  16.602 -0.4195 -0.3638  0.6191
  151DOPC   C2118031   1.885   5.232  16.500  0.0429 -0.2681  0.1096
  151DOPC   O2218032   1.926   5.116  16.479 -0.4355  0.3511  0.3104
  151DOPC   C2218033   1.904   5.348  16.405  0.1526 -0.0842 -0.5790
  151DOPC   H2R18034   1.954   5.433  16.455  0.7632 -1.2133  0.7946
  151DOPC   H2S18035   1.813   5.396  16.362  0.1079  0.0127 -0.3768
  151DOPC    C318036   1.615   5.130  16.625  0.6604  0.1953 -0.2140
  151DOPC    HX18037   1.551   5.218  16.647 -1.2368 -0.7452 -1.6514
  151DOPC    HY18038   1.576   5.045  16.685  1.6883 -0.7592 -0.8723
  151DOPC   O3118039   1.609   5.098  16.485  0.0995 -0.1178  0.5476
  151DOPC   C3118040   1.640   4.974  16.452 -0.0952  0.6758  0.2533
  151DOPC   O3218041   1.676   4.892  16.533 -0.4423  0.4089  0.1659
  151DOPC   C3218042   1.602   4.950  16.312  0.0217  0.2306 -0.0344
  151DOPC   H2X18043   1.502   4.903  16.300  0.0150  0.0871  0.5733
  151DOPC   H2Y18044   1.601   5.052  16.268  0.6559  1.6478  3.0280
  151DOPC   C2318045   1.981   5.318  16.271 -0.4325  0.1178 -0.1340
  151DOPC   H3R18046   2.085   5.287  16.294  0.0107 -2.6601 -4.6131
  151DOPC   H3S18047   1.993   5.417  16.223  0.1717 -0.1292 -0.5072
  151DOPC   C2418048   1.923   5.220  16.172 -0.5253  0.1848 -0.5723
  151DOPC   H4R18049   1.814   5.242  16.164 -1.6053 -3.1671  2.4376
  151DOPC   H4S18050   1.933   5.117  16.211  1.6781  0.3967 -0.4384
  151DOPC   C2518051   2.005   5.218  16.034  0.3974 -0.6673  0.2623
  151DOPC   H5R18052   2.108   5.177  16.041  0.4338 -0.5597  0.3613
  151DOPC   H5S18053   2.030   5.325  16.018 -1.3320  0.2403  2.9739
  151DOPC   C2618054   1.930   5.163  15.916 -0.6602  0.5218 -0.4590
  151DOPC   H6R18055   1.828   5.207  15.907  0.4148  3.1496 -1.0474
  151DOPC   H6S18056   1.922   5.054  15.935  1.8195  0.8164  3.0836
  151DOPC   C2718057   2.004   5.180  15.778  0.4827  0.3035 -0.4452
  151DOPC   H7R18058   2.094   5.115  15.778  1.1415  1.1893 -0.9853
  151DOPC   H7S18059   2.023   5.288  15.762  0.0057  0.4328 -0.1581
  151DOPC   C2818060   1.914   5.136  15.657  0.5275  0.2077 -0.6592
  151DOPC   H8R18061   1.921   5.207  15.572  2.3820 -0.0651 -0.7790
  151DOPC   H8S18062   1.811   5.156  15.693  0.8277  0.4780  0.0819
  151DOPC   C2918063   1.935   4.992  15.621  0.0719  0.2539  0.6151
  151DOPC   H9R18064   1.919   4.908  15.690  0.6598  1.6616  2.5284
  151DOPC  C21018065   1.987   4.959  15.497  0.2330 -0.8283 -0.3914
  151DOPC  H10R18066   2.007   4.852  15.487  1.0169 -0.8706  1.2415
  151DOPC  C21118067   2.013   5.038  15.367 -0.3174  0.1837  0.3661
  151DOPC  H11R18068   2.122   5.038  15.344 -0.5143 -1.1537 -0.7175
  151DOPC  H11S18069   1.994   5.147  15.374 -0.4106  0.2397 -0.6015
  151DOPC  C21218070   1.949   4.981  15.235 -0.2856 -0.7863 -0.0347
  151DOPC  H12R18071   1.839   4.979  15.242 -0.2301  0.2202  1.5012
  151DOPC  H12S18072   1.978   4.876  15.212  0.8245  0.1947 -3.9998
  151DOPC  C21318073   1.989   5.069  15.116  0.7057 -0.8616 -0.1002
  151DOPC  H13R18074   2.100   5.065  15.116  0.8962  1.7967 -1.8707
  151DOPC  H13S18075   1.957   5.173  15.136 -0.1449 -0.7089 -2.0489
  151DOPC  C21418076   1.926   5.017  14.984  0.5721  0.4428  0.6162
  151DOPC  H14R18077   1.818   5.040  14.975  0.5866 -0.2680 -2.1295
  151DOPC  H14S18078   1.934   4.906  14.984  0.8095  0.4460 -0.9100
  151DOPC  C21518079   1.995   5.067  14.856 -0.1193 -0.5295  0.1589
  151DOPC  H15R18080   1.947   5.029  14.764 -0.3499  2.1034 -0.9034
  151DOPC  H15S18081   2.099   5.028  14.857 -0.0180 -0.2952 -0.6944
  151DOPC  C21618082   2.010   5.220  14.833  0.3115  0.4819 -0.6059
  151DOPC  H16R18083   2.106   5.255  14.876 -1.0163  0.9390  2.3121
  151DOPC  H16S18084   1.921   5.266  14.882 -0.2016  0.0474 -1.1109
  151DOPC  C21718085   1.991   5.250  14.688 -0.7019 -0.3605  0.7970
  151DOPC  H17R18086   1.898   5.200  14.652  0.0139 -0.3239 -1.2214
  151DOPC  H17S18087   2.075   5.198  14.638  0.3877  0.2338  1.9708
  151DOPC  C21818088   1.984   5.399  14.665 -0.1485  1.0824  0.3331
  151DOPC  H18R18089   1.949   5.421  14.562  1.0103  3.4254  0.3765
  151DOPC  H18S18090   2.084   5.445  14.682  0.7753 -0.7942  0.2699
  151DOPC  H18T18091   1.904   5.450  14.723 -2.0994 -0.5474 -0.8081
  151DOPC   C3318092   1.711   4.868  16.239  0.2207 -0.2266 -0.2176
  151DOPC   H3X18093   1.711   4.766  16.282  1.7083  0.9353  2.7840
  151DOPC   H3Y18094   1.819   4.897  16.245  0.3378  0.3785 -3.3613
  151DOPC   C3418095   1.677   4.856  16.085 -0.0104  0.0481 -0.1333
  151DOPC   H4X18096   1.688   4.955  16.037 -1.4938  1.6754  2.6217
  151DOPC   H4Y18097   1.568   4.840  16.075  0.3981 -2.4139 -1.3527
  151DOPC   C3518098   1.746   4.739  16.012 -0.1985 -0.0652 -0.5161
  151DOPC   H5X18099   1.725   4.652  16.077 -1.8959  1.1904  0.7027
  151DOPC   H5Y18100   1.853   4.767  16.011 -0.6579  1.9089 -0.0703
  151DOPC   C3618101   1.692   4.727  15.871 -0.2393  0.9096  0.1662
  151DOPC   H6X18102   1.582   4.710  15.878 -0.1072 -2.8818 -3.2034
  151DOPC   H6Y18103   1.712   4.816  15.808  2.6766  0.2415 -0.0080
  151DOPC   C3718104   1.760   4.609  15.813 -0.1151 -0.4189 -0.9765
  151DOPC   H7X18105   1.869   4.623  15.831 -0.1952 -1.3078  0.3081
  151DOPC   H7Y18106   1.737   4.511  15.860 -0.0287 -1.5931 -3.2462
  151DOPC   C3818107   1.735   4.594  15.661 -0.4609  0.2759 -0.4130
  151DOPC   H8X18108   1.629   4.558  15.658  0.1825 -2.2041  1.8700
  151DOPC   H8Y18109   1.797   4.507  15.629 -2.6522 -1.4763 -0.1940
  151DOPC   C3918110   1.737   4.701  15.555  0.4446 -0.1038 -0.2976
  151DOPC   H9X18111   1.734   4.804  15.595  0.5697 -0.1646 -0.1324
  151DOPC  C31018112   1.759   4.693  15.424  0.5872 -0.2817 -0.5831
  151DOPC  H10X18113   1.768   4.785  15.364 -0.9266  3.0600  3.8316
  151DOPC  C31118114   1.771   4.562  15.358 -0.1686 -0.2804 -0.1533
  151DOPC  H11X18115   1.724   4.481  15.418  2.3073 -0.0848  2.2687
  151DOPC  H11Y18116   1.879   4.537  15.351  0.2581  1.5062 -0.4371
  151DOPC  C31218117   1.720   4.548  15.213 -0.2996  0.0516 -0.5874
  151DOPC  H12X18118   1.610   4.562  15.211  0.0155  3.9030  0.6284
  151DOPC  H12Y18119   1.753   4.447  15.181  1.1963 -0.1098  1.2665
  151DOPC  C31318120   1.794   4.639  15.113  0.2402  0.5115  0.5070
  151DOPC  H13X18121   1.752   4.741  15.118  2.1700  1.3978 -0.1603
  151DOPC  H13Y18122   1.905   4.648  15.122  0.1383  1.8402  0.5312
  151DOPC  C31418123   1.774   4.590  14.970  0.5545 -0.0261  0.0565
  151DOPC  H14X18124   1.828   4.497  14.943 -1.8539 -1.0760 -1.5603
  151DOPC  H14Y18125   1.667   4.565  14.951  0.6152  0.5142 -1.0663
  151DOPC  C31518126   1.805   4.689  14.860  0.0717  0.0462  0.8484
  151DOPC  H15X18127   1.912   4.721  14.857 -0.0470  0.4749  1.1035
  151DOPC  H15Y18128   1.755   4.784  14.887  1.3216  0.4602  1.8301
  151DOPC  C31618129   1.774   4.648  14.717 -0.6203 -0.0400 -0.0198
  151DOPC  H16X18130   1.822   4.553  14.685  0.6287  1.0226 -1.4426
  151DOPC  H16Y18131   1.666   4.630  14.703 -0.3331 -2.6296  0.6298
  151DOPC  C31718132   1.819   4.751  14.613  0.8429 -0.0294  0.3188
  151DOPC  H17X18133   1.914   4.803  14.637  1.3165  0.3206 -2.0610
  151DOPC  H17Y18134   1.844   4.689  14.525  0.7262  0.5631 -0.1371
  151DOPC  C31818135   1.705   4.849  14.574 -0.0437  0.4590 -0.4548
  151DOPC  H18X18136   1.667   4.884  14.673  2.1253  0.6263  0.3873
  151DOPC  H18Y18137   1.760   4.927  14.517  0.6062  0.6382  0.3975
  151DOPC  H18Z18138   1.637   4.792  14.508 -1.4894  0.7118  0.7657
  152DOPC     N18139   3.024   3.781  17.254 -0.1669 -0.9092 -0.2799
  152DOPC   C1218140   2.920   3.773  17.143 -0.5485 -0.3436  0.3593
  152DOPC  H12A18141   2.945   3.835  17.057 -0.6055 -0.2491  0.4102
  152DOPC  H12B18142   2.832   3.822  17.182 -0.2053  0.7284 -0.1628
  152DOPC   C1318143   3.058   3.920  17.288 -0.2931 -0.0421  1.1938
  152DOPC  H13A18144   2.971   3.984  17.295  0.0065  0.5524 -0.1943
  152DOPC  H13B18145   3.106   3.922  17.385  2.1302 -1.7918  0.1063
  152DOPC  H13C18146   3.126   3.951  17.211 -1.3461 -0.8617 -0.1263
  152DOPC   C1418147   3.148   3.709  17.225  0.5744 -0.0935  0.5843
  152DOPC  H14A18148   3.200   3.747  17.138  0.5911 -1.9232 -0.2562
  152DOPC  H14B18149   3.219   3.720  17.305 -0.4715 -1.1264  1.6900
  152DOPC  H14C18150   3.126   3.604  17.213 -1.5540  0.3111  0.5154
  152DOPC   C1518151   2.968   3.712  17.378 -0.6014 -0.5502  0.2199
  152DOPC  H15A18152   2.878   3.765  17.405  1.5934  4.3915 -1.0575
  152DOPC  H15B18153   3.032   3.719  17.465  1.0146  0.4589 -0.9774
  152DOPC  H15C18154   2.953   3.606  17.365 -0.2394 -0.7514  1.3702
  152DOPC   C1118155   2.873   3.633  17.083 -0.6671  0.6364 -0.3289
  152DOPC  H11A18156   2.795   3.659  17.008 -0.1560  3.2992 -0.0641
  152DOPC  H11B18157   2.958   3.576  17.041 -0.3897  1.6346 -1.1839
  152DOPC     P18158   2.876   3.407  17.217  0.1458 -0.2449  0.1691
  152DOPC   O1318159   2.793   3.351  17.319 -0.1740  0.2255 -0.0500
  152DOPC   O1418160   3.016   3.428  17.249 -0.5462  0.5977  0.8488
  152DOPC   O1218161   2.814   3.549  17.188 -0.1971 -0.2402  0.1384
  152DOPC   O1118162   2.862   3.323  17.085  0.0432 -0.4358 -0.3047
  152DOPC    C118163   2.757   3.343  16.988  0.2680  0.4402  0.3086
  152DOPC    HA18164   2.793   3.316  16.887 -4.0041  0.8054 -1.5370
  152DOPC    HB18165   2.724   3.449  16.980 -0.8897  0.3376  2.7783
  152DOPC    C218166   2.632   3.259  17.019  0.0163  0.4282  0.2122
  152DOPC    HS18167   2.595   3.265  17.124 -3.0729  0.2463 -0.7571
  152DOPC   O2118168   2.653   3.120  16.983  0.0892 -0.1279  0.0371
  152DOPC   C2118169   2.578   3.032  17.056  0.3545 -0.4855  0.1232
  152DOPC   O2218170   2.502   3.066  17.145 -0.8030  0.7810  0.2993
  152DOPC   C2218171   2.586   2.890  16.999 -1.0398 -0.7410 -0.6657
  152DOPC   H2R18172   2.580   2.812  17.078  1.1624 -2.1043 -1.7429
  152DOPC   H2S18173   2.690   2.878  16.962 -0.5831  1.1996 -0.1550
  152DOPC    C318174   2.516   3.320  16.928 -0.7294 -0.3167 -0.8292
  152DOPC    HX18175   2.511   3.429  16.947  4.3782 -0.1523  1.1572
  152DOPC    HY18176   2.417   3.279  16.959  0.2873 -1.0710  1.7103
  152DOPC   O3118177   2.544   3.287  16.793 -0.0107 -0.0031  0.5559
  152DOPC   C3118178   2.433   3.298  16.710 -1.0839  0.0313  0.2197
  152DOPC   O3218179   2.323   3.335  16.749  0.1935 -0.1715 -0.2741
  152DOPC   C3218180   2.461   3.275  16.562 -0.0120  0.0817 -0.6230
  152DOPC   H2X18181   2.406   3.352  16.504  1.0037  0.3018 -1.3113
  152DOPC   H2Y18182   2.570   3.279  16.543  0.0744 -1.7436 -0.6986
  152DOPC   C2318183   2.479   2.853  16.894  0.4555  0.5372  0.2959
  152DOPC   H3R18184   2.411   2.941  16.882 -0.2146 -0.1848 -1.4437
  152DOPC   H3S18185   2.422   2.771  16.942  1.4063 -1.6677 -2.1041
  152DOPC   C2418186   2.526   2.809  16.755  0.2618 -0.3588  0.6857
  152DOPC   H4R18187   2.590   2.891  16.715  1.4865 -1.4698  0.3192
  152DOPC   H4S18188   2.443   2.798  16.683  0.6709  0.0138  0.1472
  152DOPC   C2518189   2.610   2.680  16.760 -0.0817 -0.0791 -0.5844
  152DOPC   H5R18190   2.574   2.618  16.845 -1.1986  3.1937  1.5117
  152DOPC   H5S18191   2.718   2.699  16.775 -0.1102 -0.7386  0.5920
  152DOPC   C2618192   2.606   2.598  16.628  0.4921  0.1913 -0.3535
  152DOPC   H6R18193   2.497   2.586  16.609  0.1848  1.6718  0.2821
  152DOPC   H6S18194   2.649   2.497  16.638  0.1704  0.1311  0.4955
  152DOPC   C2718195   2.676   2.671  16.515  0.6839 -0.0902 -0.0721
  152DOPC   H7R18196   2.776   2.701  16.553  0.9834 -0.8110 -0.2719
  152DOPC   H7S18197   2.619   2.765  16.496 -1.4323 -1.0773  1.0326
  152DOPC   C2818198   2.692   2.576  16.395  0.6136  0.0088  0.0875
  152DOPC   H8R18199   2.730   2.479  16.434 -1.4683 -0.6467  0.6239
  152DOPC   H8S18200   2.770   2.634  16.340  1.2306 -2.2328 -1.5052
  152DOPC   C2918201   2.571   2.551  16.309 -0.1159 -0.1351 -0.8558
  152DOPC   H9R18202   2.475   2.551  16.364  0.9730  1.6147  1.2143
  152DOPC  C21018203   2.568   2.552  16.180  0.1278  0.0044  0.9716
  152DOPC  H10R18204   2.467   2.539  16.136 -0.4165 -1.6246  2.5751
  152DOPC  C21118205   2.696   2.568  16.092  0.3139 -0.2837  0.4823
  152DOPC  H11R18206   2.723   2.463  16.070 -0.8390 -0.1351 -1.9478
  152DOPC  H11S18207   2.782   2.609  16.150  0.9777  0.2900 -0.8438
  152DOPC  C21218208   2.682   2.650  15.964 -0.2194 -0.3791 -0.6018
  152DOPC  H12R18209   2.784   2.664  15.922 -0.3576 -0.6705 -1.0449
  152DOPC  H12S18210   2.626   2.744  15.984 -1.6391 -1.2819 -0.1423
  152DOPC  C21318211   2.597   2.577  15.860 -0.6539 -0.0736 -0.7630
  152DOPC  H13R18212   2.497   2.554  15.902 -0.2421 -0.0020  0.3003
  152DOPC  H13S18213   2.653   2.483  15.842  0.6831  0.7962 -1.3711
  152DOPC  C21418214   2.593   2.655  15.726 -0.3628  0.6794 -0.7876
  152DOPC  H14R18215   2.697   2.655  15.686 -0.3248 -1.8782 -0.8575
  152DOPC  H14S18216   2.554   2.756  15.749 -0.6748  0.6378 -1.1224
  152DOPC  C21518217   2.498   2.589  15.625 -0.1127 -0.7858  0.4586
  152DOPC  H15R18218   2.400   2.588  15.678 -0.4396 -0.7818 -0.1299
  152DOPC  H15S18219   2.519   2.480  15.618  1.7043 -0.4646  0.4439
  152DOPC  C21618220   2.503   2.647  15.479 -0.0571 -0.0324 -0.6514
  152DOPC  H16R18221   2.458   2.748  15.473 -0.5717 -0.0946  1.3518
  152DOPC  H16S18222   2.433   2.590  15.415  1.2760 -2.0668 -0.3962
  152DOPC  C21718223   2.642   2.635  15.421 -0.0157 -0.6729 -0.4465
  152DOPC  H17R18224   2.682   2.532  15.434 -0.6784 -0.8110  0.6817
  152DOPC  H17S18225   2.700   2.720  15.463 -1.0057  0.5571 -1.4758
  152DOPC  C21818226   2.625   2.664  15.272  0.2894 -0.4639 -0.1845
  152DOPC  H18R18227   2.624   2.774  15.253  0.3890 -0.1207  1.6315
  152DOPC  H18S18228   2.541   2.607  15.229  0.9311 -2.3715  0.9900
  152DOPC  H18T18229   2.711   2.624  15.213  0.4886 -0.3963  0.0596
  152DOPC   C3318230   2.409   3.137  16.520  0.0217  0.7451 -0.5741
  152DOPC   H3X18231   2.299   3.146  16.536 -0.1990 -0.5381 -1.2607
  152DOPC   H3Y18232   2.448   3.052  16.580 -0.0190  0.6177 -0.7279
  152DOPC   C3418233   2.447   3.103  16.370  0.3737  0.2443 -0.3931
  152DOPC   H4X18234   2.557   3.115  16.360  0.2863  1.9815  0.3581
  152DOPC   H4Y18235   2.400   3.175  16.301 -0.5662  1.6117  1.5849
  152DOPC   C3518236   2.395   2.963  16.336 -0.2871 -0.7521  0.5353
  152DOPC   H5X18237   2.285   2.968  16.350 -0.3277 -0.2567  0.0208
  152DOPC   H5Y18238   2.442   2.890  16.406  2.5614  0.6243  0.2104
  152DOPC   C3618239   2.427   2.909  16.191 -0.1250  0.2885  0.0553
  152DOPC   H6X18240   2.530   2.944  16.165  1.2798 -2.2955  1.6428
  152DOPC   H6Y18241   2.413   2.799  16.180 -0.5068  0.3605 -0.1930
  152DOPC   C3718242   2.337   2.977  16.094  0.2261  0.0146  0.1734
  152DOPC   H7X18243   2.233   2.952  16.123 -0.2593 -0.1705 -1.5765
  152DOPC   H7Y18244   2.349   3.087  16.103 -1.5400  0.2391  0.2116
  152DOPC   C3818245   2.350   2.946  15.949 -0.6487  0.5973  0.5416
  152DOPC   H8X18246   2.275   2.998  15.886  1.2686  1.2234 -1.3311
  152DOPC   H8Y18247   2.322   2.839  15.943  0.7621  0.1864  0.9188
  152DOPC   C3918248   2.489   2.972  15.893 -0.6105  0.4562 -0.4011
  152DOPC   H9X18249   2.570   2.921  15.948 -1.2048 -0.0436  0.0180
  152DOPC  C31018250   2.525   3.030  15.778 -0.0316 -0.3171 -0.5038
  152DOPC  H10X18251   2.629   3.035  15.743 -0.0843  1.2817 -0.4674
  152DOPC  C31118252   2.420   3.076  15.675 -0.5944 -0.2972  0.0161
  152DOPC  H11X18253   2.418   3.186  15.688 -0.4987 -0.1851 -0.8515
  152DOPC  H11Y18254   2.318   3.033  15.679 -1.8375  1.9706 -3.0685
  152DOPC  C31218255   2.479   3.043  15.536 -0.1725  0.8089  0.4880
  152DOPC  H12X18256   2.490   2.933  15.524 -1.6747  0.5678  1.0233
  152DOPC  H12Y18257   2.580   3.088  15.528  0.9756 -1.4425  1.4359
  152DOPC  C31318258   2.395   3.080  15.414  0.3357  0.5403  0.0342
  152DOPC  H13X18259   2.290   3.044  15.424  0.1620  1.2109  0.7327
  152DOPC  H13Y18260   2.388   3.191  15.407 -2.0695  0.3774 -1.4056
  152DOPC  C31418261   2.465   3.028  15.292  0.4116  0.0225  0.2132
  152DOPC  H14X18262   2.561   3.079  15.268 -0.1631  0.2785 -1.7323
  152DOPC  H14Y18263   2.482   2.919  15.306  1.4913  0.4390  2.6256
  152DOPC  C31518264   2.392   3.052  15.157  0.3352 -0.2462  0.1821
  152DOPC  H15X18265   2.415   3.160  15.141 -0.9039 -0.1071 -0.8424
  152DOPC  H15Y18266   2.282   3.036  15.159  0.4183 -0.9162 -0.2651
  152DOPC  C31618267   2.447   2.966  15.047  0.0711 -0.4165  0.6863
  152DOPC  H16X18268   2.555   2.954  15.069  0.1008 -3.2609 -0.5724
  152DOPC  H16Y18269   2.399   2.867  15.050 -0.6551 -0.0587  1.0603
  152DOPC  C31718270   2.419   3.025  14.914  0.2536  0.7424  0.1517
  152DOPC  H17X18271   2.310   3.020  14.894  0.1330  1.2599  0.6594
  152DOPC  H17Y18272   2.446   3.132  14.925  1.8644  0.3641  0.0974
  152DOPC  C31818273   2.507   2.965  14.803  0.0462  0.4273  0.4360
  152DOPC  H18X18274   2.473   3.008  14.706 -0.6266  0.6895  0.7771
  152DOPC  H18Y18275   2.613   2.993  14.820  0.4987 -0.2071 -1.1136
  152DOPC  H18Z18276   2.498   2.854  14.805 -0.3750  0.3983 -1.1363
  153DOPC     N18277   3.714   6.505  16.596  0.0164  0.2807  0.3519
  153DOPC   C1218278   3.606   6.596  16.548 -0.0018 -0.0815 -0.4221
  153DOPC  H12A18279   3.517   6.571  16.604  1.4660 -0.3649  1.9222
  153DOPC  H12B18280   3.576   6.578  16.446 -1.4769 -0.4529  0.0505
  153DOPC   C1318281   3.720   6.516  16.749 -0.2391  0.0064 -0.1842
  153DOPC  H13A18282   3.781   6.440  16.795 -2.2861 -0.6766  1.5968
  153DOPC  H13B18283   3.754   6.616  16.774 -0.2685  0.1967 -0.8894
  153DOPC  H13C18284   3.626   6.507  16.800  0.2354  2.9292  1.4463
  153DOPC   C1418285   3.843   6.551  16.544 -0.2525  1.0541  0.0543
  153DOPC  H14A18286   3.867   6.652  16.573  1.1474  0.6460  0.3752
  153DOPC  H14B18287   3.927   6.492  16.577 -0.5515  0.2088 -0.6512
  153DOPC  H14C18288   3.841   6.561  16.436 -1.1535  4.0572  0.2587
  153DOPC   C1518289   3.689   6.360  16.550  0.4387  0.0269  1.4072
  153DOPC  H15A18290   3.781   6.307  16.567  1.9743  2.3500  0.6647
  153DOPC  H15B18291   3.661   6.357  16.445  0.5808  0.6046  1.3487
  153DOPC  H15C18292   3.610   6.313  16.607  0.7069 -0.8617  1.0743
  153DOPC   C1118293   3.622   6.753  16.565  0.1765  0.0542  0.3754
  153DOPC  H11A18294   3.708   6.787  16.503 -0.4691 -0.0493 -0.5808
  153DOPC  H11B18295   3.530   6.804  16.529  2.1140  1.4174 -3.1250
  153DOPC     P18296   3.538   6.845  16.805  0.4670 -0.0755  0.1911
  153DOPC   O1318297   3.609   6.910  16.921 -0.3019  0.6400  0.5714
  153DOPC   O1418298   3.426   6.753  16.828  0.6412 -0.1500 -0.1835
  153DOPC   O1218299   3.641   6.781  16.704  0.3548 -0.0937 -0.4870
  153DOPC   O1118300   3.493   6.965  16.708  0.7761  0.1323 -0.1102
  153DOPC    C118301   3.572   7.081  16.685 -0.3533  0.4295  0.4411
  153DOPC    HA18302   3.659   7.090  16.752  0.1322  0.9302 -0.2463
  153DOPC    HB18303   3.509   7.168  16.711 -1.8885 -0.7406  0.8068
  153DOPC    C218304   3.619   7.102  16.537  0.0413 -0.3687  0.3187
  153DOPC    HS18305   3.685   7.016  16.511  0.1465 -0.2595  0.2245
  153DOPC   O2118306   3.702   7.222  16.543 -0.0882 -0.3238 -0.2793
  153DOPC   C2118307   3.787   7.229  16.449  0.2159 -0.3469 -0.1300
  153DOPC   O2218308   3.810   7.142  16.367 -0.0110 -0.3355  0.0040
  153DOPC   C2218309   3.862   7.362  16.465 -0.6546  0.0277  0.0473
  153DOPC   H2R18310   3.969   7.335  16.480 -0.4024  1.1148  0.2842
  153DOPC   H2S18311   3.841   7.413  16.562 -0.8508  0.7291 -0.3550
  153DOPC    C318312   3.495   7.106  16.436 -0.3202  0.6337 -0.0088
  153DOPC    HX18313   3.417   7.174  16.474 -1.1743 -0.2144 -0.2072
  153DOPC    HY18314   3.442   7.008  16.435  1.6995 -0.5649 -2.4250
  153DOPC   O3118315   3.527   7.150  16.303  0.3425 -0.2142 -0.4609
  153DOPC   C3118316   3.586   7.056  16.223  0.1255 -0.9871 -0.1554
  153DOPC   O3218317   3.607   6.946  16.264  0.0788  0.1452 -0.4485
  153DOPC   C3218318   3.613   7.124  16.087 -0.1863 -0.6338 -0.1014
  153DOPC   H2X18319   3.529   7.194  16.065  0.4964  0.4550  0.6278
  153DOPC   H2Y18320   3.706   7.185  16.098 -0.7914  0.1374  0.9219
  153DOPC   C2318321   3.860   7.459  16.346 -0.0001  0.4210  0.3584
  153DOPC   H3R18322   3.924   7.548  16.363  0.4136 -0.0035  1.0472
  153DOPC   H3S18323   3.756   7.495  16.332  0.0910  1.0831  1.3037
  153DOPC   C2418324   3.903   7.399  16.212 -0.3740 -0.3369 -0.0124
  153DOPC   H4R18325   3.869   7.293  16.213 -2.8673  0.3751  2.9067
  153DOPC   H4S18326   4.013   7.397  16.194 -0.3804 -0.3969 -0.0482
  153DOPC   C2518327   3.842   7.460  16.085  0.3247  0.0526  0.2669
  153DOPC   H5R18328   3.851   7.570  16.101 -0.0432 -0.0002  0.8869
  153DOPC   H5S18329   3.733   7.436  16.085 -0.1971  2.1701  1.6081
  153DOPC   C2618330   3.919   7.419  15.969  0.1649  0.0299  0.1516
  153DOPC   H6R18331   3.931   7.308  15.971 -2.0836 -0.2448  1.3788
  153DOPC   H6S18332   4.019   7.466  15.981  2.3069 -3.7469 -1.0256
  153DOPC   C2718333   3.849   7.477  15.848  0.5322  0.1547 -0.0939
  153DOPC   H7R18334   3.862   7.587  15.837  0.1930  0.2153  0.0619
  153DOPC   H7S18335   3.739   7.460  15.857  0.8328 -1.3963  1.2029
  153DOPC   C2818336   3.895   7.414  15.713 -0.9866  0.0687  0.2897
  153DOPC   H8R18337   3.853   7.311  15.712  0.1965 -0.4354 -1.8631
  153DOPC   H8S18338   4.005   7.399  15.717 -1.2657 -2.6722  0.0243
  153DOPC   C2918339   3.845   7.476  15.590 -0.4445 -0.1373  0.4303
  153DOPC   H9R18340   3.766   7.552  15.605 -0.0167  1.2173 -3.0874
  153DOPC  C21018341   3.876   7.449  15.458  0.4714  0.3003 -0.4368
  153DOPC  H10R18342   3.827   7.505  15.377 -0.4095  0.2643  0.0600
  153DOPC  C21118343   3.973   7.354  15.400 -0.3848 -0.5047  0.1329
  153DOPC  H11R18344   3.949   7.345  15.292 -0.0510 -2.2700  0.1811
  153DOPC  H11S18345   3.956   7.256  15.449 -3.3415  0.2395  0.7552
  153DOPC  C21218346   4.115   7.411  15.415  0.1120  0.3027  0.5502
  153DOPC  H12R18347   4.123   7.405  15.525  0.9901 -1.4535  0.4348
  153DOPC  H12S18348   4.130   7.512  15.372 -1.5039 -0.2287 -1.4693
  153DOPC  C21318349   4.219   7.322  15.350  0.2460  1.0879  0.4206
  153DOPC  H13R18350   4.198   7.220  15.389  0.6396  1.5276  1.8710
  153DOPC  H13S18351   4.317   7.351  15.396  0.0675  0.2905  1.3468
  153DOPC  C21418352   4.223   7.310  15.194 -0.4742 -0.1531 -0.1333
  153DOPC  H14R18353   4.237   7.412  15.152  1.2833 -0.8037 -1.2313
  153DOPC  H14S18354   4.121   7.280  15.161 -0.1489  0.6142 -1.9173
  153DOPC  C21518355   4.338   7.222  15.141 -0.3614 -0.1424  0.0706
  153DOPC  H15R18356   4.319   7.128  15.197 -0.4156 -0.4115 -0.3943
  153DOPC  H15S18357   4.441   7.251  15.171 -0.1246 -0.2074 -0.6739
  153DOPC  C21618358   4.323   7.196  14.988 -0.1973 -0.6668  0.4870
  153DOPC  H16R18359   4.214   7.181  14.969 -0.4344 -0.1801  1.4225
  153DOPC  H16S18360   4.376   7.102  14.961 -1.0764 -1.5446  1.6654
  153DOPC  C21718361   4.378   7.302  14.894  0.5024  0.2375  0.6217
  153DOPC  H17R18362   4.489   7.293  14.894  0.6586 -0.2617 -3.8111
  153DOPC  H17S18363   4.341   7.400  14.930 -0.5594 -0.5310  1.7027
  153DOPC  C21818364   4.329   7.283  14.739  0.5187 -0.0126  0.1923
  153DOPC  H18R18365   4.364   7.184  14.702 -1.3942 -1.1273  1.1950
  153DOPC  H18S18366   4.369   7.364  14.674 -2.5358  1.3885 -0.1106
  153DOPC  H18T18367   4.219   7.289  14.734  0.4929 -0.5155  0.1212
  153DOPC   C3318368   3.632   7.022  15.976 -0.4372 -0.6448 -0.3934
  153DOPC   H3X18369   3.578   6.926  15.990 -0.9713 -0.2764  0.1316
  153DOPC   H3Y18370   3.737   6.989  15.969 -0.5113 -0.9699  0.0459
  153DOPC   C3418371   3.606   7.090  15.842  0.1476  0.2082  0.3485
  153DOPC   H4X18372   3.680   7.172  15.825  0.3965 -0.1153 -0.1606
  153DOPC   H4Y18373   3.501   7.125  15.830  0.4124  0.3851 -2.0677
  153DOPC   C3518374   3.617   6.986  15.725  0.5298 -0.0797  0.1243
  153DOPC   H5X18375   3.560   6.892  15.740  1.2559 -0.2801  1.8082
  153DOPC   H5Y18376   3.722   6.952  15.721  1.6573  2.7326  2.4689
  153DOPC   C3618377   3.583   7.050  15.587  0.2524 -0.7239 -0.5509
  153DOPC   H6X18378   3.477   7.083  15.587  1.1626  2.7143  1.6930
  153DOPC   H6Y18379   3.636   7.148  15.588 -0.2348 -0.4317 -1.6908
  153DOPC   C3718380   3.633   6.964  15.461  0.3767 -0.4563 -0.8235
  153DOPC   H7X18381   3.688   6.875  15.499  1.1982  0.1321 -0.6326
  153DOPC   H7Y18382   3.543   6.908  15.427  0.5357  0.3272 -2.6799
  153DOPC   C3818383   3.699   7.053  15.360 -0.3365  0.5049 -0.3694
  153DOPC   H8X18384   3.763   6.989  15.296  1.1159  1.5663 -0.0222
  153DOPC   H8Y18385   3.768   7.126  15.407 -0.0926  0.3502 -0.4843
  153DOPC   C3918386   3.602   7.128  15.273  0.2932  0.2112  0.1120
  153DOPC   H9X18387   3.536   7.193  15.332  0.7863  0.8715 -0.0595
  153DOPC  C31018388   3.592   7.147  15.141  0.1944 -0.0850 -0.8335
  153DOPC  H10X18389   3.506   7.198  15.095  1.4135  2.1691 -0.7284
  153DOPC  C31118390   3.672   7.078  15.037 -0.9876 -0.0450  0.1412
  153DOPC  H11X18391   3.621   7.066  14.939  2.9608 -0.7986 -2.0226
  153DOPC  H11Y18392   3.690   6.971  15.062 -0.4558 -0.6060 -2.3653
  153DOPC  C31218393   3.817   7.129  15.015 -0.8096 -0.6861 -0.2889
  153DOPC  H12X18394   3.861   7.057  14.943 -0.9868 -0.4877 -0.5974
  153DOPC  H12Y18395   3.879   7.127  15.107 -0.9985  3.7086  0.1703
  153DOPC  C31318396   3.814   7.269  14.945 -0.1867  0.1089 -1.0744
  153DOPC  H13X18397   3.765   7.235  14.851 -2.1605 -2.9043  0.8654
  153DOPC  H13Y18398   3.745   7.336  15.000 -0.8887 -2.0435  0.8166
  153DOPC  C31418399   3.947   7.339  14.911 -0.3173 -0.1417 -0.4331
  153DOPC  H14X18400   3.976   7.394  15.003 -0.4066  0.9478 -1.0436
  153DOPC  H14Y18401   4.017   7.257  14.884  2.1268  1.6294  0.2801
  153DOPC  C31518402   3.940   7.435  14.795 -0.9520 -0.0453  0.1608
  153DOPC  H15X18403   3.908   7.369  14.711 -1.4237 -1.2654  1.2561
  153DOPC  H15Y18404   4.049   7.455  14.789 -0.5041 -1.7654  1.4728
  153DOPC  C31618405   3.850   7.557  14.817 -0.5592 -0.4345  0.3042
  153DOPC  H16X18406   3.750   7.530  14.858 -0.6692  0.6836  0.8084
  153DOPC  H16Y18407   3.896   7.627  14.890 -1.4589 -0.9447  1.3853
  153DOPC  C31718408   3.834   7.639  14.692  0.4678  0.2294 -0.4474
  153DOPC  H17X18409   3.931   7.683  14.659 -0.0127  0.4190 -1.6984
  153DOPC  H17Y18410   3.813   7.557  14.620  1.0407 -0.1503 -0.1904
  153DOPC  C31818411   3.718   7.744  14.711 -0.0847  0.5287  0.4156
  153DOPC  H18X18412   3.724   7.825  14.635  0.8443  0.4136  0.3609
  153DOPC  H18Y18413   3.619   7.695  14.699 -0.6229  1.5314  0.6915
  153DOPC  H18Z18414   3.716   7.792  14.811  0.1505  0.0774  0.6397
  154DOPC     N18415   5.427   4.597  17.257  0.3187  0.4190  0.3239
  154DOPC   C1218416   5.377   4.599  17.116 -0.0090 -0.1690  0.2699
  154DOPC  H12A18417   5.282   4.649  17.112  0.0558 -0.0956 -0.5565
  154DOPC  H12B18418   5.363   4.496  17.084 -1.6971  0.2618 -0.4981
  154DOPC   C1318419   5.569   4.550  17.272 -0.3862  0.4432 -0.1743
  154DOPC  H13A18420   5.601   4.565  17.374  1.3476 -2.7238 -0.1192
  154DOPC  H13B18421   5.585   4.445  17.256  0.9331 -0.3745  4.6323
  154DOPC  H13C18422   5.639   4.601  17.207  1.5525 -0.0011  1.4376
  154DOPC   C1418423   5.332   4.526  17.347 -0.6297 -0.0223  0.2634
  154DOPC  H14A18424   5.308   4.430  17.302 -0.2761  0.6777 -1.4932
  154DOPC  H14B18425   5.382   4.507  17.441  0.4247 -0.6482 -0.3904
  154DOPC  H14C18426   5.251   4.592  17.375  1.4728  3.1914 -0.7363
  154DOPC   C1518427   5.441   4.732  17.300 -0.3892 -0.2862  0.1530
  154DOPC  H15A18428   5.347   4.781  17.282 -0.2254  0.3005  0.8425
  154DOPC  H15B18429   5.509   4.792  17.242 -0.1204  1.1905  1.9034
  154DOPC  H15C18430   5.460   4.735  17.406  0.9819  0.1176 -0.0873
  154DOPC   C1118431   5.457   4.673  16.999  0.0956  0.7593 -0.7173
  154DOPC  H11A18432   5.558   4.628  16.990  0.2001  1.1556 -1.7554
  154DOPC  H11B18433   5.409   4.647  16.902 -3.6076 -1.6439  1.5129
  154DOPC     P18434   5.588   4.883  16.951  0.5827  0.1394 -0.4435
  154DOPC   O1318435   5.710   4.816  16.992  0.4482  0.2569 -0.1176
  154DOPC   O1418436   5.577   5.028  16.981  0.3310  0.6070 -0.5403
  154DOPC   O1218437   5.462   4.813  17.019  0.1816  0.3247 -0.4482
  154DOPC   O1118438   5.567   4.870  16.794  0.2569  0.2933  0.4193
  154DOPC    C118439   5.446   4.916  16.734 -0.2279  0.0221 -0.0232
  154DOPC    HA18440   5.409   5.012  16.777  3.2297  0.8191  1.5226
  154DOPC    HB18441   5.370   4.837  16.752 -0.5158  0.3388  0.1541
  154DOPC    C218442   5.460   4.956  16.582  0.2759  0.5847 -0.1293
  154DOPC    HS18443   5.371   5.014  16.549 -1.2114 -1.0144  0.9096
  154DOPC   O2118444   5.476   4.845  16.483  0.4280 -0.7771  0.2018
  154DOPC   C2118445   5.365   4.784  16.436 -0.2988 -0.1662  0.1097
  154DOPC   O2218446   5.256   4.800  16.478  0.7702  0.1388  0.0554
  154DOPC   C2218447   5.402   4.668  16.343 -0.2108 -0.7294 -0.7208
  154DOPC   H2R18448   5.309   4.629  16.297 -1.5517  0.8485  0.5517
  154DOPC   H2S18449   5.442   4.590  16.412 -0.9778  0.2501  0.8693
  154DOPC    C318450   5.586   5.044  16.565  0.6206 -0.4849  0.5323
  154DOPC    HX18451   5.677   4.988  16.594  0.6067 -0.8534 -0.1124
  154DOPC    HY18452   5.592   5.124  16.642  0.2618 -0.0517  0.1173
  154DOPC   O3118453   5.603   5.102  16.433 -0.4925  0.0528 -0.2996
  154DOPC   C3118454   5.507   5.196  16.402 -0.7707 -0.2141 -0.5254
  154DOPC   O3218455   5.425   5.228  16.482 -0.3627  0.4128  0.0266
  154DOPC   C3218456   5.550   5.267  16.272 -0.2266 -0.2523  0.8011
  154DOPC   H2X18457   5.505   5.369  16.270  1.2873  0.4482 -0.5888
  154DOPC   H2Y18458   5.659   5.288  16.279 -0.4209  1.0646  0.3337
  154DOPC   C2318459   5.508   4.712  16.231  0.3841 -0.1902 -0.0830
  154DOPC   H3R18460   5.559   4.616  16.206  1.1802  0.7106 -2.1360
  154DOPC   H3S18461   5.581   4.791  16.258  0.2338 -0.2130  0.3912
  154DOPC   C2418462   5.442   4.751  16.097  0.1043 -0.5050 -0.8011
  154DOPC   H4R18463   5.362   4.828  16.106  1.4283  0.9238 -0.8481
  154DOPC   H4S18464   5.390   4.658  16.065  1.7048 -1.7326  0.0413
  154DOPC   C2518465   5.543   4.784  15.997  0.1306 -0.3466 -0.2887
  154DOPC   H5R18466   5.620   4.705  15.986  0.9357  0.2718  0.6961
  154DOPC   H5S18467   5.577   4.885  16.029  0.1546 -0.3175 -0.4049
  154DOPC   C2618468   5.469   4.789  15.860 -0.0057  0.0953  0.5449
  154DOPC   H6R18469   5.394   4.871  15.857 -0.6128 -0.4721 -0.3107
  154DOPC   H6S18470   5.413   4.694  15.844 -0.0504  0.2088  0.0354
  154DOPC   C2718471   5.561   4.782  15.741  0.1466 -0.1915  0.1811
  154DOPC   H7R18472   5.604   4.681  15.726  0.6240  0.1502 -0.8485
  154DOPC   H7S18473   5.644   4.850  15.765  1.3642 -1.5534 -0.0407
  154DOPC   C2818474   5.500   4.834  15.611  0.0222 -0.4710  0.1254
  154DOPC   H8R18475   5.479   4.940  15.634  0.5614 -0.2731 -0.2606
  154DOPC   H8S18476   5.405   4.777  15.603 -0.3345  0.0097  0.8663
  154DOPC   C2918477   5.588   4.814  15.487  0.0931 -0.5441 -0.0792
  154DOPC   H9R18478   5.695   4.820  15.513  0.3226 -0.1265 -1.0923
  154DOPC  C21018479   5.549   4.792  15.365 -0.2308 -0.1957  0.3976
  154DOPC  H10R18480   5.616   4.798  15.278 -1.3595 -1.3039 -0.5794
  154DOPC  C21118481   5.409   4.787  15.317 -0.1235 -0.2523 -0.3322
  154DOPC  H11R18482   5.335   4.745  15.388  2.4868  0.0611  2.8370
  154DOPC  H11S18483   5.402   4.722  15.227  0.0742 -0.5894 -0.1062
  154DOPC  C21218484   5.367   4.925  15.264 -0.6644  0.2935 -0.0077
  154DOPC  H12R18485   5.394   5.012  15.328  0.1578  0.2194 -0.2542
  154DOPC  H12S18486   5.256   4.911  15.261 -0.4629 -1.5986 -0.0531
  154DOPC  C21318487   5.404   4.952  15.118  0.6683  0.7537 -0.5631
  154DOPC  H13R18488   5.514   4.938  15.111  0.6432  0.0174  0.2897
  154DOPC  H13S18489   5.388   5.057  15.086 -0.0428  0.0862 -2.5875
  154DOPC  C21418490   5.332   4.863  15.008 -0.1662  0.0417 -0.6319
  154DOPC  H14R18491   5.234   4.821  15.038 -0.7504  1.5088 -0.4019
  154DOPC  H14S18492   5.389   4.775  14.971 -1.0786 -0.7493 -0.1751
  154DOPC  C21518493   5.287   4.949  14.886 -1.1230  0.3691  0.2697
  154DOPC  H15R18494   5.374   5.012  14.856 -0.6381 -0.9354 -1.2110
  154DOPC  H15S18495   5.215   5.029  14.914 -1.6011 -0.1144  0.4249
  154DOPC  C21618496   5.240   4.870  14.761  0.3134  0.0563 -1.2604
  154DOPC  H16R18497   5.137   4.838  14.788 -0.0351  0.6978 -1.7822
  154DOPC  H16S18498   5.298   4.776  14.755 -2.0265 -1.6240  0.7384
  154DOPC  C21718499   5.241   4.942  14.624  0.4387 -0.2313 -0.0770
  154DOPC  H17R18500   5.346   4.976  14.606  0.6587 -1.2990 -0.8932
  154DOPC  H17S18501   5.183   5.036  14.639 -1.3875 -1.0021 -1.8400
  154DOPC  C21818502   5.169   4.869  14.509 -0.5534 -0.5071 -0.8397
  154DOPC  H18R18503   5.059   4.878  14.522 -0.6460 -1.2821 -1.0450
  154DOPC  H18S18504   5.198   4.763  14.498  1.8501  0.0882 -0.8034
  154DOPC  H18T18505   5.198   4.919  14.414  1.7276  0.2889  0.1905
  154DOPC   C3318506   5.518   5.182  16.147 -0.5438 -0.0971 -0.1883
  154DOPC   H3X18507   5.416   5.139  16.155 -0.1348 -1.5086 -1.9121
  154DOPC   H3Y18508   5.591   5.098  16.144 -1.8585 -1.3923  1.8649
  154DOPC   C3418509   5.539   5.259  16.013  0.1077  0.0615  0.0549
  154DOPC   H4X18510   5.645   5.289  15.999  0.1756 -0.4747 -0.6518
  154DOPC   H4Y18511   5.479   5.353  16.007  0.2641  0.2002  0.6561
  154DOPC   C3518512   5.490   5.169  15.907  0.1275 -0.0623  0.9584
  154DOPC   H5X18513   5.384   5.137  15.922 -0.6111  0.3670 -2.5858
  154DOPC   H5Y18514   5.551   5.076  15.911 -0.6738 -0.5988  1.1557
  154DOPC   C3618515   5.496   5.234  15.761 -0.4650 -0.4077 -0.6917
  154DOPC   H6X18516   5.430   5.181  15.689  0.2142  0.3581 -1.9061
  154DOPC   H6Y18517   5.461   5.339  15.771 -2.5577 -1.2085  1.4228
  154DOPC   C3718518   5.644   5.230  15.705  0.0671 -0.0466 -0.6519
  154DOPC   H7X18519   5.709   5.263  15.789  2.2525 -0.8199 -1.9619
  154DOPC   H7Y18520   5.663   5.122  15.687 -0.7187 -0.0464 -1.6358
  154DOPC   C3818521   5.675   5.305  15.579 -0.3760  0.2478  0.1848
  154DOPC   H8X18522   5.783   5.289  15.559 -0.6503 -0.7755 -0.6028
  154DOPC   H8Y18523   5.673   5.414  15.596 -3.3553  0.3412 -0.2571
  154DOPC   C3918524   5.588   5.249  15.468 -0.7664  0.6678 -0.4789
  154DOPC   H9X18525   5.489   5.221  15.508  0.8408 -1.4391  2.3932
  154DOPC  C31018526   5.631   5.223  15.346 -0.3229 -0.1998  0.2984
  154DOPC  H10X18527   5.582   5.157  15.272  2.6500  0.2101 -2.2366
  154DOPC  C31118528   5.760   5.264  15.281 -0.4947  0.1624 -0.3583
  154DOPC  H11X18529   5.837   5.184  15.283 -0.4330  0.2201  1.0922
  154DOPC  H11Y18530   5.813   5.352  15.325 -1.2409  0.0428  0.8372
  154DOPC  C31218531   5.740   5.304  15.130 -1.1091 -0.0099  0.7734
  154DOPC  H12X18532   5.705   5.214  15.075  0.5182  0.3176 -0.8863
  154DOPC  H12Y18533   5.842   5.342  15.111 -1.0746 -0.1381  0.7042
  154DOPC  C31318534   5.644   5.421  15.112 -0.0136  0.3892  0.1014
  154DOPC  H13X18535   5.536   5.402  15.132  0.6299 -1.6535  2.1188
  154DOPC  H13Y18536   5.675   5.487  15.196 -1.8477  0.1945  0.9680
  154DOPC  C31418537   5.665   5.508  14.986  0.5538 -0.1872  0.3901
  154DOPC  H14X18538   5.774   5.512  14.966  0.2094 -0.8066 -1.7912
  154DOPC  H14Y18539   5.619   5.452  14.902  1.6850  1.0387 -1.1062
  154DOPC  C31518540   5.588   5.640  15.006  0.3486  0.5649 -0.2343
  154DOPC  H15X18541   5.613   5.679  15.107  1.3720 -0.1044 -0.2111
  154DOPC  H15Y18542   5.481   5.613  15.017  0.6913 -0.1762  1.4942
  154DOPC  C31618543   5.631   5.735  14.896  0.2206 -0.2499 -0.5823
  154DOPC  H16X18544   5.588   5.838  14.903  0.5916  0.0494 -2.2822
  154DOPC  H16Y18545   5.738   5.752  14.920  0.1298 -0.7319  0.1866
  154DOPC  C31718546   5.609   5.691  14.751 -0.2917 -0.6287  0.4874
  154DOPC  H17X18547   5.668   5.599  14.727 -1.1741 -1.0156 -0.2741
  154DOPC  H17Y18548   5.504   5.670  14.723 -0.5293 -1.4823  1.9741
  154DOPC  C31818549   5.667   5.800  14.657  0.0854 -0.1984  0.1173
  154DOPC  H18X18550   5.623   5.898  14.684  1.1686  0.7197 -1.3075
  154DOPC  H18Y18551   5.778   5.804  14.664  0.1352 -0.0175 -0.6725
  154DOPC  H18Z18552   5.639   5.778  14.551 -3.1429  0.3636  0.7359
  155DOPC     N18553   0.824   3.398  17.872 -0.2116  0.0345 -0.0677
  155DOPC   C1218554   0.754   3.304  17.764 -0.0409 -0.5485  0.0626
  155DOPC  H12A18555   0.673   3.251  17.813  0.4312 -0.0014  1.4938
  155DOPC  H12B18556   0.817   3.217  17.748  1.3097  0.2275  0.9298
  155DOPC   C1318557   0.833   3.332  18.004  0.1670  0.1942  0.2742
  155DOPC  H13A18558   0.903   3.383  18.069  1.2431  3.8692 -3.3721
  155DOPC  H13B18559   0.733   3.317  18.043 -0.5876  0.6676 -1.4148
  155DOPC  H13C18560   0.874   3.233  17.988 -0.1066  0.1164  0.0635
  155DOPC   C1418561   0.754   3.525  17.886  0.5261  0.2641 -0.5092
  155DOPC  H14A18562   0.735   3.576  17.792  1.2945  3.1942  0.8079
  155DOPC  H14B18563   0.661   3.516  17.941  1.7656  0.5991  1.7651
  155DOPC  H14C18564   0.818   3.592  17.942  0.3730 -0.9980  1.2286
  155DOPC   C1518565   0.964   3.427  17.825 -0.4734  0.7366  0.0778
  155DOPC  H15A18566   1.009   3.337  17.785 -0.9701  0.2731  0.5557
  155DOPC  H15B18567   1.025   3.476  17.900 -0.0058  1.4207 -0.7286
  155DOPC  H15C18568   0.959   3.495  17.741 -0.0508  0.5212 -0.1267
  155DOPC   C1118569   0.727   3.361  17.622  0.7762  0.4159 -0.7414
  155DOPC  H11A18570   0.660   3.291  17.568  0.2963  0.8897 -0.7682
  155DOPC  H11B18571   0.676   3.460  17.630  0.0818 -0.1070  2.2398
  155DOPC     P18572   0.915   3.257  17.468 -0.0956 -0.1177 -0.5989
  155DOPC   O1318573   0.926   3.141  17.560  0.6678 -0.4658 -0.1349
  155DOPC   O1418574   1.041   3.303  17.408  0.1427  0.4269 -0.0248
  155DOPC   O1218575   0.854   3.380  17.555 -0.1494  0.2506  0.0730
  155DOPC   O1118576   0.811   3.225  17.354  0.5654 -0.3677 -0.0646
  155DOPC    C118577   0.772   3.324  17.261  1.3426  0.3093 -0.2969
  155DOPC    HA18578   0.835   3.415  17.270 -0.3996  1.5030  0.3310
  155DOPC    HB18579   0.669   3.352  17.290  0.7618 -0.5099 -1.4556
  155DOPC    C218580   0.760   3.273  17.118 -0.2839  0.2759  0.1412
  155DOPC    HS18581   0.711   3.356  17.061  2.1727 -0.1577 -2.8933
  155DOPC   O2118582   0.686   3.152  17.098  0.3870  0.3181 -0.2879
  155DOPC   C2118583   0.556   3.166  17.111 -0.2400 -0.7209 -0.9314
  155DOPC   O2218584   0.498   3.270  17.128  0.5557 -0.1024  0.6234
  155DOPC   C2218585   0.487   3.029  17.075  0.4861 -0.1603  0.5378
  155DOPC   H2R18586   0.472   2.976  17.172 -2.9249  0.6863  0.6059
  155DOPC   H2S18587   0.561   2.977  17.011 -0.1782 -0.3089 -0.1318
  155DOPC    C318588   0.897   3.256  17.053 -0.0520  0.0193 -0.3844
  155DOPC    HX18589   0.877   3.211  16.953  0.9469  1.2493 -1.1660
  155DOPC    HY18590   0.960   3.179  17.103 -1.5916 -0.5584  0.7766
  155DOPC   O3118591   0.975   3.379  17.048 -0.4433 -0.1906  0.2340
  155DOPC   C3118592   0.957   3.453  16.934 -0.2566 -0.4039  0.3354
  155DOPC   O3218593   0.871   3.424  16.854  0.2424 -0.5056 -0.3816
  155DOPC   C3218594   1.068   3.553  16.914 -0.3872 -0.7841  0.2434
  155DOPC   H2X18595   1.089   3.607  17.009 -0.4320  1.9268 -1.2191
  155DOPC   H2Y18596   1.159   3.496  16.883 -0.1913  0.1728 -0.9978
  155DOPC   C2318597   0.361   3.033  16.993  0.1283  0.6228 -0.4138
  155DOPC   H3R18598   0.289   3.090  17.055  2.2275  1.3706  1.4745
  155DOPC   H3S18599   0.322   2.932  16.968  0.5895  0.0382  1.0962
  155DOPC   C2418600   0.374   3.112  16.865  0.4802 -0.3011 -0.6053
  155DOPC   H4R18601   0.366   3.221  16.887 -0.1292 -0.3777 -0.4217
  155DOPC   H4S18602   0.280   3.102  16.806  0.3515  0.4657 -0.5413
  155DOPC   C2518603   0.482   3.078  16.761  0.1774  0.2142  0.3345
  155DOPC   H5R18604   0.587   3.104  16.787 -0.3081  1.7698  0.8411
  155DOPC   H5S18605   0.456   3.148  16.679 -0.6520  0.6888  0.9958
  155DOPC   C2618606   0.483   2.929  16.717  0.7727 -0.1903 -0.6079
  155DOPC   H6R18607   0.384   2.893  16.685  0.1571  1.0779 -0.2022
  155DOPC   H6S18608   0.514   2.874  16.808  0.7033  0.1133 -0.3987
  155DOPC   C2718609   0.569   2.898  16.593  0.0995 -0.1117 -0.6607
  155DOPC   H7R18610   0.587   2.789  16.602 -1.1743 -0.1848  2.1370
  155DOPC   H7S18611   0.664   2.948  16.624  0.7331 -1.6727 -0.0119
  155DOPC   C2818612   0.511   2.968  16.460  0.1343  0.2160 -0.2575
  155DOPC   H8R18613   0.472   3.068  16.488  2.7628  0.9831  0.9654
  155DOPC   H8S18614   0.427   2.904  16.426  0.8036 -0.4263 -0.7442
  155DOPC   C2918615   0.621   2.985  16.353  0.1498 -0.1653  0.4315
  155DOPC   H9R18616   0.710   3.032  16.397 -1.3174  1.5092  1.7510
  155DOPC  C21018617   0.613   2.944  16.222 -0.3446 -0.0815  0.2710
  155DOPC  H10R18618   0.701   2.966  16.160 -0.9507  2.3440  0.1733
  155DOPC  C21118619   0.495   2.884  16.155 -0.1636  0.1088  0.4783
  155DOPC  H11R18620   0.446   2.813  16.225 -0.2538 -0.0417  0.2629
  155DOPC  H11S18621   0.512   2.822  16.065  0.0770 -1.4898  1.5714
  155DOPC  C21218622   0.386   2.985  16.115 -0.4211  0.2928  0.3547
  155DOPC  H12R18623   0.351   3.040  16.205  0.0557 -0.3800  0.9634
  155DOPC  H12S18624   0.291   2.938  16.083 -0.1123  1.0334 -1.8423
  155DOPC  C21318625   0.431   3.082  15.995  0.1871  0.6298  0.1151
  155DOPC  H13R18626   0.525   3.130  16.029  0.2178 -1.5906  3.6494
  155DOPC  H13S18627   0.348   3.155  16.001 -0.7024 -0.1181 -2.1581
  155DOPC  C21418628   0.423   3.010  15.857  0.4216 -0.7344  0.4003
  155DOPC  H14R18629   0.331   2.947  15.850  0.6869 -0.9925 -1.4213
  155DOPC  H14S18630   0.506   2.936  15.846  0.7347  0.0078 -4.3105
  155DOPC  C21518631   0.445   3.109  15.740 -0.4359  0.2143 -0.7347
  155DOPC  H15R18632   0.550   3.145  15.732 -0.2187 -0.5639 -1.5106
  155DOPC  H15S18633   0.387   3.201  15.761  1.2779  1.4706 -1.2892
  155DOPC  C21618634   0.403   3.048  15.606 -0.1948 -0.8250  0.5787
  155DOPC  H16R18635   0.443   3.119  15.531 -1.2604  0.2693  1.0124
  155DOPC  H16S18636   0.293   3.052  15.596 -0.3577  0.9081  2.3202
  155DOPC  C21718637   0.458   2.909  15.566  0.1617 -0.1629 -0.3240
  155DOPC  H17R18638   0.405   2.835  15.631 -0.7100  2.6357  2.4132
  155DOPC  H17S18639   0.563   2.890  15.596 -0.1878 -0.2059  0.9461
  155DOPC  C21818640   0.437   2.872  15.421  0.3116 -0.3441  0.1878
  155DOPC  H18R18641   0.467   2.767  15.405  1.0058 -0.0789 -0.2959
  155DOPC  H18S18642   0.503   2.940  15.364  0.0763 -0.7965 -0.6444
  155DOPC  H18T18643   0.328   2.878  15.397 -0.4328 -0.7125  3.1457
  155DOPC   C3318644   1.032   3.662  16.810 -0.1613 -0.2760  0.4041
  155DOPC   H3X18645   0.933   3.707  16.830 -0.5936  1.2107 -4.1268
  155DOPC   H3Y18646   1.019   3.608  16.714  1.1748 -2.1466  1.1965
  155DOPC   C3418647   1.136   3.769  16.806 -0.0632  0.1574  0.9322
  155DOPC   H4X18648   1.158   3.786  16.914  0.5633 -0.5174  0.9207
  155DOPC   H4Y18649   1.109   3.868  16.764  1.5233  0.4944  0.6486
  155DOPC   C3518650   1.267   3.718  16.737 -0.7262  0.0067  0.6421
  155DOPC   H5X18651   1.233   3.671  16.643  0.1326  0.8831 -0.1440
  155DOPC   H5Y18652   1.319   3.642  16.800  0.0797  0.8350  1.0251
  155DOPC   C3618653   1.361   3.839  16.713  1.0320  0.1173  1.0042
  155DOPC   H6X18654   1.296   3.910  16.657 -0.6433 -0.5979  1.9713
  155DOPC   H6Y18655   1.384   3.874  16.816 -0.7159 -0.6500  1.6933
  155DOPC   C3718656   1.485   3.807  16.628  0.2645  0.4712 -0.4140
  155DOPC   H7X18657   1.569   3.878  16.635  0.7731 -0.0513 -1.0669
  155DOPC   H7Y18658   1.518   3.715  16.680  0.7966  1.1448  0.4559
  155DOPC   C3818659   1.452   3.786  16.479 -0.1235 -0.0796  1.2969
  155DOPC   H8X18660   1.414   3.886  16.451 -1.6703 -0.4539  1.9678
  155DOPC   H8Y18661   1.368   3.714  16.480 -0.4297  0.2428  0.1586
  155DOPC   C3918662   1.565   3.745  16.387 -0.2186  0.5914  0.0614
  155DOPC   H9X18663   1.613   3.819  16.321  2.1068  1.4804  2.5506
  155DOPC  C31018664   1.624   3.625  16.381  0.2216  0.6822  0.1754
  155DOPC  H10X18665   1.705   3.603  16.310  0.7537 -1.9290  1.4384
  155DOPC  C31118666   1.593   3.508  16.467  0.0650  0.5390 -0.5406
  155DOPC  H11X18667   1.531   3.535  16.555  0.7173 -0.4675  0.2539
  155DOPC  H11Y18668   1.693   3.480  16.507 -0.5142  0.3746  0.8573
  155DOPC  C31218669   1.538   3.387  16.385 -0.6868  1.2884 -0.1722
  155DOPC  H12X18670   1.536   3.297  16.450 -1.6540  1.1324 -0.4009
  155DOPC  H12Y18671   1.605   3.355  16.302 -3.6632 -0.3370 -2.1295
  155DOPC  C31318672   1.395   3.398  16.324  0.4746 -0.0873 -0.0768
  155DOPC  H13X18673   1.334   3.441  16.407  0.0367  0.7726 -0.8224
  155DOPC  H13Y18674   1.398   3.466  16.236  0.4349  2.5668  1.8542
  155DOPC  C31418675   1.332   3.258  16.285 -0.1507 -0.1805 -0.3507
  155DOPC  H14X18676   1.357   3.203  16.378 -0.6777  1.1255  0.5901
  155DOPC  H14Y18677   1.224   3.257  16.259  0.0538 -0.0976 -1.2526
  155DOPC  C31518678   1.404   3.189  16.165 -0.1372 -0.4856  0.5049
  155DOPC  H15X18679   1.341   3.109  16.121 -0.0894  0.3032 -1.0718
  155DOPC  H15Y18680   1.502   3.139  16.184 -0.3293 -1.2617 -0.4447
  155DOPC  C31618681   1.420   3.292  16.042 -0.2441 -0.1573  0.6399
  155DOPC  H16X18682   1.336   3.365  16.037 -1.2024 -1.0145  2.8964
  155DOPC  H16Y18683   1.505   3.349  16.085 -0.4409 -0.3057  1.2336
  155DOPC  C31718684   1.450   3.217  15.911 -0.3566  0.4091  0.5417
  155DOPC  H17X18685   1.514   3.130  15.937  0.2523  0.3517 -1.0862
  155DOPC  H17Y18686   1.357   3.172  15.870  0.5843  0.3520 -1.6148
  155DOPC  C31818687   1.504   3.302  15.808 -0.2279  0.2358  0.1611
  155DOPC  H18X18688   1.589   3.359  15.850  0.7361 -0.3779 -0.9199
  155DOPC  H18Y18689   1.522   3.249  15.713 -1.4124  1.6068 -0.8790
  155DOPC  H18Z18690   1.429   3.378  15.775  0.1912  0.4312 -0.3475
  156DOPC     N18691   4.044   5.883  16.976  0.4787 -0.3004 -0.2017
  156DOPC   C1218692   4.188   5.857  16.916  0.2194 -0.3796 -0.5958
  156DOPC  H12A18693   4.186   5.768  16.856 -3.4401 -0.4735 -0.5953
  156DOPC  H12B18694   4.252   5.840  17.002  0.1385  0.3130 -0.3906
  156DOPC   C1318695   3.988   5.763  17.041  0.8659  0.4435 -1.0173
  156DOPC  H13A18696   4.043   5.724  17.126 -1.8073  0.5898  0.9258
  156DOPC  H13B18697   3.893   5.782  17.089 -0.4779 -1.7453 -2.6103
  156DOPC  H13C18698   3.978   5.686  16.966  1.6675 -0.4616 -0.2270
  156DOPC   C1418699   3.952   5.919  16.869 -0.3979  0.2554  0.4305
  156DOPC  H14A18700   3.979   6.009  16.816 -2.8031  1.2073  0.7375
  156DOPC  H14B18701   3.935   5.840  16.797  0.1198 -1.3226  1.9745
  156DOPC  H14C18702   3.859   5.952  16.911  0.2740  4.1355 -0.7657
  156DOPC   C1518703   4.040   5.999  17.071  0.2546  0.7317 -0.1587
  156DOPC  H15A18704   3.946   6.006  17.124 -0.2296 -0.5438 -0.8112
  156DOPC  H15B18705   4.062   6.085  17.009 -0.1162 -0.0683 -1.4252
  156DOPC  H15C18706   4.125   5.995  17.138  0.1795 -1.9326 -0.1348
  156DOPC   C1118707   4.254   5.975  16.833  0.1973 -0.4135  0.2964
  156DOPC  H11A18708   4.354   5.955  16.789  0.2872  1.3791 -0.4157
  156DOPC  H11B18709   4.193   5.997  16.742 -0.5620 -1.9887  0.3892
  156DOPC     P18710   4.389   6.135  16.997  0.2506 -0.3792  0.0456
  156DOPC   O1318711   4.457   6.019  17.058  0.2290  0.2021 -1.1269
  156DOPC   O1418712   4.347   6.245  17.087 -0.6828 -0.2895  0.2409
  156DOPC   O1218713   4.255   6.085  16.924 -0.2965 -0.6397 -0.2233
  156DOPC   O1118714   4.473   6.194  16.878  0.1388  0.8913 -0.2291
  156DOPC    C118715   4.417   6.260  16.767  0.2444  0.1857 -0.4175
  156DOPC    HA18716   4.460   6.362  16.768 -2.6752  1.5070  0.1820
  156DOPC    HB18717   4.309   6.276  16.786  0.5263 -0.2237  1.8760
  156DOPC    C218718   4.440   6.191  16.638  0.3547 -0.4006 -0.6716
  156DOPC    HS18719   4.396   6.089  16.642 -0.3360 -0.0978 -0.3782
  156DOPC   O2118720   4.576   6.182  16.607  0.3199  0.0533  0.1481
  156DOPC   C2118721   4.604   6.094  16.512 -0.4780  0.1384 -0.4909
  156DOPC   O2218722   4.529   6.005  16.466 -0.1724  0.1292 -0.3140
  156DOPC   C2218723   4.748   6.106  16.468 -0.1163 -0.2994 -0.2541
  156DOPC   H2R18724   4.813   6.076  16.553 -0.6172 -0.6052  0.0225
  156DOPC   H2S18725   4.772   6.212  16.442 -2.2619  0.3531  0.2326
  156DOPC    C318726   4.355   6.253  16.523 -1.2255 -0.6941  0.1190
  156DOPC    HX18727   4.401   6.350  16.494 -2.5274  0.0975  0.5844
  156DOPC    HY18728   4.261   6.290  16.570 -0.1399  3.2016 -0.4116
  156DOPC   O3118729   4.330   6.169  16.410 -0.9647  0.7052 -0.2172
  156DOPC   C3118730   4.288   6.236  16.307  0.4093 -0.8163 -0.0268
  156DOPC   O3218731   4.266   6.356  16.303  0.1777 -0.1230  0.5414
  156DOPC   C3218732   4.277   6.149  16.180 -0.3391 -0.3417 -0.2447
  156DOPC   H2X18733   4.214   6.063  16.212 -0.6803  0.0356  0.1266
  156DOPC   H2Y18734   4.218   6.203  16.103 -1.8635 -1.5824  0.0009
  156DOPC   C2318735   4.789   6.027  16.342  0.7167  0.0551 -0.1380
  156DOPC   H3R18736   4.717   6.049  16.260  0.0538 -0.0693  0.4045
  156DOPC   H3S18737   4.769   5.921  16.367 -1.2830  0.3317 -0.3624
  156DOPC   C2418738   4.930   6.047  16.304 -0.6564 -0.8089  0.3921
  156DOPC   H4R18739   5.002   6.053  16.389  0.1865  0.5105 -0.3773
  156DOPC   H4S18740   4.941   6.150  16.263 -0.2406 -0.8317  0.4374
  156DOPC   C2518741   4.990   5.951  16.204  0.1703  0.8998 -0.3457
  156DOPC   H5R18742   4.968   5.848  16.240  1.4939  0.6185 -0.2605
  156DOPC   H5S18743   5.098   5.977  16.201  0.2739  0.6596  0.6862
  156DOPC   C2618744   4.928   5.972  16.065  0.2729 -0.1777 -0.6678
  156DOPC   H6R18745   4.943   6.077  16.030 -0.6991  0.1399 -0.1860
  156DOPC   H6S18746   4.817   5.962  16.069  0.2731  0.1960  1.1028
  156DOPC   C2718747   4.977   5.881  15.944 -0.3058  0.5878 -0.0282
  156DOPC   H7R18748   4.902   5.896  15.863 -0.2612  1.2279  0.0423
  156DOPC   H7S18749   4.976   5.776  15.980 -1.0212  0.7895  0.5582
  156DOPC   C2818750   5.110   5.937  15.892 -0.0490  0.4968  1.1415
  156DOPC   H8R18751   5.196   5.911  15.957  0.7813 -0.8565 -0.4125
  156DOPC   H8S18752   5.107   6.048  15.898  0.3221  0.4477  2.6595
  156DOPC   C2918753   5.143   5.885  15.749  0.0960 -0.7379  0.0096
  156DOPC   H9R18754   5.193   5.788  15.733 -0.4479 -0.8409 -1.1231
  156DOPC  C21018755   5.121   5.950  15.639  0.1584  0.3292 -0.0713
  156DOPC  H10R18756   5.140   5.903  15.541  0.3297  1.9086 -0.8278
  156DOPC  C21118757   5.043   6.082  15.631  0.3923 -0.3154  0.4020
  156DOPC  H11R18758   5.109   6.169  15.613 -2.5254  1.5049 -2.5687
  156DOPC  H11S18759   4.979   6.102  15.720 -0.7117  0.7385 -0.5935
  156DOPC  C21218760   4.924   6.062  15.526 -0.0881 -0.0135  0.0784
  156DOPC  H12R18761   4.857   6.149  15.538 -0.1030  0.1752 -1.3084
  156DOPC  H12S18762   4.873   5.967  15.554 -0.7454  0.8608  2.0759
  156DOPC  C21318763   4.975   6.058  15.376 -0.3196 -0.3233 -0.8536
  156DOPC  H13R18764   5.062   5.990  15.376 -1.2877 -1.7217  2.0923
  156DOPC  H13S18765   5.010   6.160  15.349 -0.3732 -0.3521 -1.0376
  156DOPC  C21418766   4.870   6.008  15.285 -0.5177  0.3630  0.5130
  156DOPC  H14R18767   4.775   6.066  15.278 -0.0181  0.9832 -1.5654
  156DOPC  H14S18768   4.832   5.906  15.304  1.3820 -0.0725  2.3669
  156DOPC  C21518769   4.932   6.008  15.148 -0.1306 -0.5824  0.3160
  156DOPC  H15R18770   5.020   5.941  15.156  0.3727 -0.0501 -0.6915
  156DOPC  H15S18771   4.974   6.105  15.113 -0.5499 -1.2832 -2.3727
  156DOPC  C21618772   4.839   5.950  15.046  0.2102  0.0291  0.2598
  156DOPC  H16R18773   4.766   6.034  15.035  0.2696 -0.1157 -1.5228
  156DOPC  H16S18774   4.772   5.865  15.071 -0.9769  0.9595  0.3154
  156DOPC  C21718775   4.897   5.915  14.911  0.0704 -0.2388  0.3511
  156DOPC  H17R18776   4.992   5.861  14.926  1.3350  2.0323  0.9478
  156DOPC  H17S18777   4.925   6.008  14.859 -2.5611  1.0272  0.9956
  156DOPC  C21818778   4.797   5.837  14.819  0.0581  0.4029  0.2689
  156DOPC  H18R18779   4.717   5.908  14.787 -0.8753 -0.8433 -0.2419
  156DOPC  H18S18780   4.751   5.751  14.872 -0.5043 -0.8269 -2.0718
  156DOPC  H18T18781   4.848   5.800  14.727 -2.7812  0.1691 -1.3435
  156DOPC   C3318782   4.410   6.098  16.129  0.0686  0.5238  0.1192
  156DOPC   H3X18783   4.441   6.019  16.201 -0.1711 -0.6110 -0.9791
  156DOPC   H3Y18784   4.487   6.178  16.129  2.0733 -1.2702 -1.1235
  156DOPC   C3418785   4.402   6.043  15.981 -0.2509 -0.4853  0.1679
  156DOPC   H4X18786   4.506   6.033  15.942 -0.4154  0.0377 -0.4373
  156DOPC   H4Y18787   4.353   6.118  15.915 -1.4954 -2.2724 -1.0327
  156DOPC   C3518788   4.334   5.908  15.963  0.3615 -0.5444  0.4345
  156DOPC   H5X18789   4.225   5.926  15.974  0.2319  0.5771 -1.9183
  156DOPC   H5Y18790   4.382   5.835  16.031 -0.2321 -1.5634 -0.2119
  156DOPC   C3618791   4.356   5.848  15.825 -0.0020  0.4002  0.4200
  156DOPC   H6X18792   4.329   5.925  15.749  0.6534 -0.1535 -0.3992
  156DOPC   H6Y18793   4.463   5.820  15.813 -0.4933 -1.8399  0.7383
  156DOPC   C3718794   4.267   5.721  15.805  0.9712  0.4801  0.0491
  156DOPC   H7X18795   4.320   5.653  15.875  2.3332 -2.1998 -3.3104
  156DOPC   H7Y18796   4.166   5.748  15.843  0.2785  1.9013 -2.5478
  156DOPC   C3818797   4.260   5.679  15.660  0.3212  0.5640  1.1108
  156DOPC   H8X18798   4.189   5.597  15.636  0.9095  0.4871 -0.5126
  156DOPC   H8Y18799   4.357   5.641  15.623  0.2258  2.7352 -1.7781
  156DOPC   C3918800   4.205   5.784  15.566 -0.4027  0.4404  0.0538
  156DOPC   H9X18801   4.101   5.807  15.593  0.0641  1.4701  1.0418
  156DOPC  C31018802   4.274   5.844  15.466 -0.5092 -0.4087 -0.0738
  156DOPC  H10X18803   4.225   5.915  15.399  1.6364 -0.0255 -1.3224
  156DOPC  C31118804   4.419   5.812  15.433 -0.5408 -0.3934 -0.0614
  156DOPC  H11X18805   4.452   5.706  15.441  2.4658  0.3119 -1.5676
  156DOPC  H11Y18806   4.488   5.873  15.495 -0.4355  1.6428 -2.0542
  156DOPC  C31218807   4.442   5.861  15.285  0.9299  0.4892  0.3496
  156DOPC  H12X18808   4.552   5.852  15.271  1.0728  1.4102  0.8058
  156DOPC  H12Y18809   4.429   5.969  15.261  0.6765  0.6985  1.3825
  156DOPC  C31318810   4.384   5.771  15.176  0.4352  0.3071 -1.0111
  156DOPC  H13X18811   4.449   5.681  15.172  0.6738  0.3190  1.1976
  156DOPC  H13Y18812   4.286   5.725  15.201  0.6643 -0.2824 -1.1719
  156DOPC  C31418813   4.372   5.844  15.046 -0.2805  0.1492 -0.1454
  156DOPC  H14X18814   4.317   5.938  15.069 -1.3174 -0.0999 -1.4991
  156DOPC  H14Y18815   4.475   5.865  15.009  0.2970 -1.8647  0.1935
  156DOPC  C31518816   4.300   5.756  14.939  0.7349  0.5879 -0.5476
  156DOPC  H15X18817   4.210   5.718  14.993  0.1631  0.7385 -1.3702
  156DOPC  H15Y18818   4.358   5.671  14.897 -1.0534 -0.3837 -1.1528
  156DOPC  C31618819   4.240   5.832  14.822  0.1922  0.4917 -0.2353
  156DOPC  H16X18820   4.193   5.758  14.753  0.7416 -0.5704  0.5170
  156DOPC  H16Y18821   4.163   5.906  14.852 -0.1766 -0.9034  2.5039
  156DOPC  C31718822   4.340   5.910  14.739  0.3618 -0.0457 -0.7955
  156DOPC  H17X18823   4.277   5.953  14.658  0.0834 -0.3698 -0.7496
  156DOPC  H17Y18824   4.392   5.990  14.797 -0.8689 -0.5577  1.0867
  156DOPC  C31818825   4.450   5.828  14.672  0.1262 -0.4686 -0.3736
  156DOPC  H18X18826   4.515   5.894  14.609 -0.3538  0.3688 -0.0106
  156DOPC  H18Y18827   4.512   5.762  14.736 -0.7068 -0.3442  0.5895
  156DOPC  H18Z18828   4.396   5.754  14.610 -0.4605 -1.0750  0.8264
  157DOPC     N18829   5.217   1.828  17.587  0.2746  0.2992 -0.1978
  157DOPC   C1218830   5.096   1.782  17.507 -0.0948  0.2883 -0.1090
  157DOPC  H12A18831   5.009   1.800  17.568 -0.2392  1.4806 -0.6414
  157DOPC  H12B18832   5.106   1.676  17.489  1.1709  0.6063 -1.4850
  157DOPC   C1318833   5.241   1.753  17.709 -0.6398  0.4284 -0.9682
  157DOPC  H13A18834   5.153   1.741  17.770 -0.1948  0.0985 -0.3838
  157DOPC  H13B18835   5.273   1.651  17.697 -0.4504  0.3892 -0.1435
  157DOPC  H13C18836   5.313   1.807  17.768 -2.4873  2.6897 -0.6463
  157DOPC   C1418837   5.190   1.972  17.628 -0.4792 -0.1650 -0.3712
  157DOPC  H14A18838   5.165   2.020  17.535 -0.4552 -0.4491 -0.5245
  157DOPC  H14B18839   5.099   1.985  17.686  0.6216 -0.5930  1.5348
  157DOPC  H14C18840   5.270   2.018  17.684 -0.3906 -2.1377  1.2378
  157DOPC   C1518841   5.347   1.827  17.511  0.6291 -0.0012 -0.2691
  157DOPC  H15A18842   5.357   1.734  17.457 -1.3404  0.4498 -1.5057
  157DOPC  H15B18843   5.429   1.834  17.581 -0.6193 -2.0422  1.5537
  157DOPC  H15C18844   5.349   1.910  17.442  2.0312  0.6980  0.5763
  157DOPC   C1118845   5.079   1.848  17.364 -0.1499 -0.2130 -0.7364
  157DOPC  H11A18846   5.164   1.808  17.304  0.6606 -0.1127  0.3060
  157DOPC  H11B18847   4.983   1.818  17.318 -0.4591 -1.5661  0.6779
  157DOPC     P18848   5.113   2.081  17.239  0.1571  0.1178 -0.0101
  157DOPC   O1318849   5.253   2.127  17.257 -0.3407  0.4176 -0.2302
  157DOPC   O1418850   5.013   2.188  17.226  0.3125 -0.6486  0.1025
  157DOPC   O1218851   5.083   1.986  17.369 -1.0209 -0.4325 -0.0698
  157DOPC   O1118852   5.101   1.988  17.115 -0.1307 -0.3504  0.5766
  157DOPC    C118853   5.213   1.985  17.023 -0.5075  0.0094  0.4553
  157DOPC    HA18854   5.298   1.922  17.058  0.5214  1.5318  0.7984
  157DOPC    HB18855   5.262   2.083  17.008  0.7423 -0.7503 -0.5880
  157DOPC    C218856   5.177   1.928  16.880  0.6693 -0.7295  0.0707
  157DOPC    HS18857   5.262   1.958  16.815  0.3229  0.0853 -0.0305
  157DOPC   O2118858   5.054   1.984  16.834 -0.0412 -0.4281 -0.3172
  157DOPC   C2118859   5.066   2.107  16.779 -0.0881 -0.5299  0.0931
  157DOPC   O2218860   5.170   2.167  16.780  0.4019 -0.5174  0.1948
  157DOPC   C2218861   4.927   2.165  16.738  0.9508 -0.0763  0.3129
  157DOPC   H2R18862   4.886   2.209  16.831 -0.3551  1.3499 -0.8819
  157DOPC   H2S18863   4.864   2.077  16.712  0.7251 -0.7961  3.0161
  157DOPC    C318864   5.173   1.775  16.878  0.0709  0.3302  1.1671
  157DOPC    HX18865   5.114   1.740  16.966  0.8796 -0.8130  1.2815
  157DOPC    HY18866   5.274   1.740  16.910  0.3477 -0.9363 -0.9175
  157DOPC   O3118867   5.126   1.702  16.756 -0.5733  0.3480 -0.6469
  157DOPC   C3118868   5.201   1.704  16.654 -0.5135  0.1489  0.1267
  157DOPC   O3218869   5.312   1.750  16.642  0.4589 -0.4950 -0.0129
  157DOPC   C3218870   5.133   1.644  16.527 -0.4398  0.4732  0.2501
  157DOPC   H2X18871   5.094   1.541  16.544  1.0267 -0.1556  0.0105
  157DOPC   H2Y18872   5.053   1.716  16.500  0.3737  1.4597  0.4005
  157DOPC   C2318873   4.926   2.266  16.619 -0.8221 -0.2276 -0.3702
  157DOPC   H3R18874   4.972   2.362  16.653  0.1296  0.2709 -2.8645
  157DOPC   H3S18875   4.819   2.285  16.598 -0.8602  0.0733  0.0904
  157DOPC   C2418876   5.002   2.224  16.490  0.3370 -0.2192  0.1541
  157DOPC   H4R18877   4.959   2.131  16.449 -1.9485 -0.2879  2.4460
  157DOPC   H4S18878   5.109   2.208  16.515  0.1685 -2.0868 -0.1982
  157DOPC   C2518879   5.004   2.345  16.391 -0.6551 -0.0837 -0.1963
  157DOPC   H5R18880   5.064   2.424  16.442  1.2805 -1.8828  0.4320
  157DOPC   H5S18881   4.899   2.382  16.385 -1.2353 -1.6220 -0.0084
  157DOPC   C2618882   5.051   2.313  16.251 -0.0623  0.0789  0.0085
  157DOPC   H6R18883   5.000   2.217  16.226  0.4648 -0.9873  2.6710
  157DOPC   H6S18884   5.161   2.300  16.254 -0.0730 -0.8261 -1.9383
  157DOPC   C2718885   5.002   2.418  16.156  0.1688 -1.2204 -0.4059
  157DOPC   H7R18886   5.070   2.505  16.165  1.0436 -1.9080 -0.2459
  157DOPC   H7S18887   4.901   2.453  16.186  0.8410  0.1327  0.3497
  157DOPC   C2818888   5.008   2.374  16.009 -0.3236  0.3510  0.1250
  157DOPC   H8R18889   4.931   2.295  16.001 -2.1558  2.0299  0.2123
  157DOPC   H8S18890   5.108   2.329  15.994 -1.4535 -1.4751 -2.7228
  157DOPC   C2918891   4.983   2.480  15.909  0.5526 -0.1475  0.1822
  157DOPC   H9R18892   4.908   2.557  15.933  0.4849 -0.5460  1.2886
  157DOPC  C21018893   5.024   2.481  15.782 -0.2072  0.2993  0.3522
  157DOPC  H10R18894   5.008   2.572  15.723 -1.6976  0.0802  0.3973
  157DOPC  C21118895   5.112   2.382  15.704  0.4062 -0.0924 -0.0671
  157DOPC  H11R18896   5.153   2.312  15.780  0.9039 -1.2153 -1.3294
  157DOPC  H11S18897   5.197   2.438  15.660  1.2998 -0.3948  1.2017
  157DOPC  C21218898   5.059   2.289  15.590  0.4694  0.3573  0.1242
  157DOPC  H12R18899   4.987   2.226  15.647  2.1635 -0.3694  1.5582
  157DOPC  H12S18900   5.144   2.222  15.563  0.4169 -0.4531  1.8154
  157DOPC  C21318901   5.001   2.352  15.461 -0.2851 -0.3698  0.0217
  157DOPC  H13R18902   4.908   2.411  15.474 -0.9643 -1.2993 -0.5423
  157DOPC  H13S18903   4.956   2.268  15.404 -0.4149  0.2304 -0.7771
  157DOPC  C21418904   5.113   2.424  15.387 -0.4041  0.4266 -0.4338
  157DOPC  H14R18905   5.196   2.355  15.362 -0.8443  0.0526 -0.8864
  157DOPC  H14S18906   5.153   2.501  15.456  0.5881  0.9311 -1.5247
  157DOPC  C21518907   5.072   2.490  15.257  0.1779 -0.3610  0.2007
  157DOPC  H15R18908   5.043   2.421  15.175  1.1122  0.4607 -0.8695
  157DOPC  H15S18909   5.163   2.537  15.213  0.3533  1.5930  2.4664
  157DOPC  C21618910   4.966   2.603  15.263  0.2915  0.2591  0.4364
  157DOPC  H16R18911   4.982   2.686  15.335 -0.1888  0.0866  0.7422
  157DOPC  H16S18912   4.865   2.565  15.290 -0.5494  1.7905 -0.4157
  157DOPC  C21718913   4.961   2.668  15.129  0.1743 -0.7709 -0.3726
  157DOPC  H17R18914   4.953   2.603  15.039 -2.1696 -2.0935  0.6755
  157DOPC  H17S18915   5.058   2.721  15.124  0.0459 -0.4731  0.1880
  157DOPC  C21818916   4.838   2.762  15.109  0.3687  0.4095 -0.4120
  157DOPC  H18R18917   4.842   2.783  15.000  1.6667 -0.3589 -0.5254
  157DOPC  H18S18918   4.852   2.856  15.167  0.6950  0.1431 -0.0531
  157DOPC  H18T18919   4.742   2.718  15.143 -0.4584  1.5033 -1.2332
  157DOPC   C3318920   5.235   1.627  16.411 -0.3725  0.2182  0.3595
  157DOPC   H3X18921   5.314   1.564  16.458 -1.8242 -0.9472  1.3334
  157DOPC   H3Y18922   5.271   1.728  16.382 -0.0646 -0.0543 -0.2157
  157DOPC   C3418923   5.188   1.562  16.284 -0.1871  0.6004  0.4289
  157DOPC   H4X18924   5.083   1.596  16.266  0.6314  2.5216 -0.9978
  157DOPC   H4Y18925   5.182   1.451  16.291  1.7795  0.4344 -0.0584
  157DOPC   C3518926   5.273   1.606  16.159  0.8367  0.1547  0.2162
  157DOPC   H5X18927   5.377   1.576  16.183  2.1320  1.8523 -2.6841
  157DOPC   H5Y18928   5.269   1.717  16.149 -1.0816  0.2650  1.7080
  157DOPC   C3618929   5.236   1.541  16.026 -0.3417 -0.4618  0.9094
  157DOPC   H6X18930   5.276   1.438  16.018  1.2074  0.0760  1.3922
  157DOPC   H6Y18931   5.125   1.537  16.015 -0.2355 -0.3061 -0.3615
  157DOPC   C3718932   5.292   1.622  15.905 -0.4634 -0.3638 -0.0428
  157DOPC   H7X18933   5.272   1.728  15.930  0.2338 -0.2046 -0.1585
  157DOPC   H7Y18934   5.401   1.603  15.893 -0.4970 -1.3785  1.0559
  157DOPC   C3818935   5.225   1.600  15.770 -0.8473 -0.0553 -0.2620
  157DOPC   H8X18936   5.118   1.630  15.772 -0.9244 -0.3459  0.7475
  157DOPC   H8Y18937   5.233   1.496  15.733  0.8861  0.0292 -0.2125
  157DOPC   C3918938   5.293   1.696  15.670  0.4308  0.4005 -0.3169
  157DOPC   H9X18939   5.291   1.803  15.698  0.3909  0.8332 -1.8990
  157DOPC  C31018940   5.324   1.669  15.540  0.9717 -0.3726 -0.9422
  157DOPC  H10X18941   5.378   1.750  15.488  0.9297  0.5170  0.3501
  157DOPC  C31118942   5.291   1.540  15.466 -0.2121 -0.1723  0.3255
  157DOPC  H11X18943   5.225   1.472  15.524 -1.3915 -0.0184 -0.8077
  157DOPC  H11Y18944   5.383   1.480  15.450 -1.3291 -2.3258  1.5148
  157DOPC  C31218945   5.227   1.588  15.333  0.6420  0.9268 -0.4641
  157DOPC  H12X18946   5.128   1.636  15.353 -0.7488 -1.9476  0.1834
  157DOPC  H12Y18947   5.195   1.491  15.289  1.4164 -0.0054  0.9488
  157DOPC  C31318948   5.314   1.674  15.246  0.2235  0.6745  0.2124
  157DOPC  H13X18949   5.329   1.777  15.285 -0.3360  1.1763 -0.8543
  157DOPC  H13Y18950   5.418   1.636  15.241 -0.1020 -0.2454  0.2824
  157DOPC  C31418951   5.275   1.663  15.093 -0.6420 -1.1063  0.1824
  157DOPC  H14X18952   5.264   1.556  15.066 -1.5971 -0.5278 -1.9014
  157DOPC  H14Y18953   5.173   1.706  15.094 -0.4704 -0.6556 -0.6330
  157DOPC  C31518954   5.361   1.755  15.000  0.1856  0.5709 -0.7759
  157DOPC  H15X18955   5.465   1.719  14.990  0.6978  1.9816 -0.7171
  157DOPC  H15Y18956   5.357   1.853  15.050  0.8604  0.7361 -1.0390
  157DOPC  C31618957   5.310   1.759  14.853  0.7376 -0.2000  0.1231
  157DOPC  H16X18958   5.302   1.657  14.811 -1.8469 -0.7252  1.6512
  157DOPC  H16Y18959   5.205   1.795  14.857  0.7787 -0.0119 -0.4758
  157DOPC  C31718960   5.386   1.860  14.765  0.5754  0.7254 -0.2942
  157DOPC  H17X18961   5.329   1.892  14.674 -0.7546 -2.2635 -0.6368
  157DOPC  H17Y18962   5.408   1.949  14.828  0.3378  1.0668 -0.6856
  157DOPC  C31818963   5.517   1.800  14.717 -0.1863  0.3704 -0.9257
  157DOPC  H18X18964   5.579   1.772  14.805  1.8451  0.0661 -2.3712
  157DOPC  H18Y18965   5.505   1.699  14.671  2.8496 -1.1680  1.3140
  157DOPC  H18Z18966   5.566   1.878  14.655  0.4632 -0.5971 -1.6657
  158DOPC     N18967   2.560   1.143  17.516 -0.0427 -0.1971 -0.4248
  158DOPC   C1218968   2.628   1.026  17.443 -0.0746 -0.2687 -0.1225
  158DOPC  H12A18969   2.729   1.019  17.481 -0.0083  2.1723  0.2711
  158DOPC  H12B18970   2.633   1.037  17.336  1.5730  0.3774 -0.0026
  158DOPC   C1318971   2.425   1.182  17.455 -0.1162 -0.1927 -0.3672
  158DOPC  H13A18972   2.369   1.091  17.441 -2.5686  1.3761 -1.2304
  158DOPC  H13B18973   2.369   1.250  17.517 -0.9774  0.4751 -1.8315
  158DOPC  H13C18974   2.434   1.222  17.355 -1.3374  1.4576  0.1513
  158DOPC   C1418975   2.647   1.260  17.512 -0.7107  0.4181 -0.0703
  158DOPC  H14A18976   2.596   1.344  17.557 -0.3090  0.7141 -0.1599
  158DOPC  H14B18977   2.744   1.249  17.558 -1.9715 -1.0225  2.3777
  158DOPC  H14C18978   2.657   1.289  17.408 -0.5779 -0.2249 -0.2382
  158DOPC   C1518979   2.533   1.113  17.660 -0.2038  0.1483 -0.1688
  158DOPC  H15A18980   2.457   1.185  17.689  1.8384  2.4739 -0.3331
  158DOPC  H15B18981   2.628   1.115  17.711  0.2037 -0.1248 -0.9137
  158DOPC  H15C18982   2.499   1.011  17.666  0.5652 -0.0450  1.5384
  158DOPC   C1118983   2.555   0.889  17.462 -0.7298 -0.3638 -0.7559
  158DOPC  H11A18984   2.629   0.809  17.443 -1.4143 -1.4907  1.0343
  158DOPC  H11B18985   2.513   0.877  17.564 -0.8859  0.8662 -0.6516
  158DOPC     P18986   2.481   0.841  17.219 -0.2052 -0.4793  0.4881
  158DOPC   O1318987   2.353   0.825  17.149  0.5232 -0.0989 -0.3140
  158DOPC   O1418988   2.553   0.715  17.233 -0.0145 -0.5679 -0.5047
  158DOPC   O1218989   2.452   0.887  17.368  0.3324 -0.3848  0.1631
  158DOPC   O1118990   2.568   0.956  17.149 -0.1159  0.1745 -0.2598
  158DOPC    C118991   2.509   1.083  17.116 -0.2008  0.2502  0.3355
  158DOPC    HA18992   2.576   1.165  17.150 -0.8205  0.9748 -0.1736
  158DOPC    HB18993   2.407   1.100  17.155 -0.6418 -3.4062  1.1360
  158DOPC    C218994   2.494   1.103  16.965 -0.1296 -0.2515  0.4563
  158DOPC    HS18995   2.400   1.060  16.923  0.0696 -1.2548  1.0191
  158DOPC   O2118996   2.603   1.046  16.894 -0.0689  0.5239 -0.0848
  158DOPC   C2118997   2.591   0.916  16.857 -0.1132 -0.3485 -0.5414
  158DOPC   O2218998   2.485   0.857  16.858  0.4672 -0.1161 -0.0626
  158DOPC   C2218999   2.730   0.859  16.830  0.1995  0.2326 -0.5143
  158DOPC   H2R19000   2.712   0.753  16.801  1.1928  0.4174 -1.9077
  158DOPC   H2S19001   2.797   0.862  16.919  2.3494  1.3745 -2.0873
  158DOPC    C319002   2.497   1.254  16.936 -0.5310 -0.0200 -0.2287
  158DOPC    HX19003   2.593   1.302  16.965 -0.3982  0.7674 -1.8587
  158DOPC    HY19004   2.410   1.300  16.987  0.9906  1.3390  1.2777
  158DOPC   O3119005   2.480   1.258  16.792 -0.1142 -0.5291 -0.1468
  158DOPC   C3119006   2.572   1.302  16.711 -0.6811  0.3915 -0.2786
  158DOPC   O3219007   2.667   1.372  16.747 -0.2682  0.1088 -0.6652
  158DOPC   C3219008   2.553   1.238  16.573  0.1931  0.5447  0.5938
  158DOPC   H2X19009   2.597   1.136  16.580 -1.9299 -0.3444  1.9109
  158DOPC   H2Y19010   2.445   1.226  16.551  0.7846  0.1114 -2.6732
  158DOPC   C2319011   2.804   0.914  16.702  0.1560 -0.2915  0.4867
  158DOPC   H3R19012   2.871   0.998  16.730 -0.9531 -0.0077  2.4786
  158DOPC   H3S19013   2.727   0.948  16.630  0.3766 -0.3952  0.2039
  158DOPC   C2419014   2.893   0.802  16.645 -0.1416 -0.4093 -0.0171
  158DOPC   H4R19015   2.843   0.704  16.629  1.0279 -0.8946 -0.8890
  158DOPC   H4S19016   2.975   0.798  16.720  0.7000 -4.2599 -0.9278
  158DOPC   C2519017   2.955   0.836  16.512  0.3945  0.4264 -0.4100
  158DOPC   H5R19018   3.026   0.751  16.498 -1.7369 -1.5942  0.4813
  158DOPC   H5S19019   3.005   0.934  16.527 -1.5229  1.4044 -0.1907
  158DOPC   C2619020   2.855   0.838  16.397  0.5224 -0.6507  0.5346
  158DOPC   H6R19021   2.792   0.929  16.397 -0.2623 -1.1511  2.4953
  158DOPC   H6S19022   2.787   0.751  16.409 -2.5102  1.5711  0.5876
  158DOPC   C2719023   2.912   0.820  16.252 -1.0978 -0.9681  0.6589
  158DOPC   H7R19024   2.968   0.724  16.248  0.5393 -0.0085 -1.2606
  158DOPC   H7S19025   2.998   0.887  16.229  0.2461 -1.8401  2.8831
  158DOPC   C2819026   2.813   0.810  16.130 -0.0768 -0.2317 -0.1528
  158DOPC   H8R19027   2.783   0.914  16.105  0.2467 -0.1524 -0.2041
  158DOPC   H8S19028   2.730   0.739  16.153  0.6118 -0.7696  0.7398
  158DOPC   C2919029   2.874   0.747  16.005  0.2488 -0.7987 -0.1743
  158DOPC   H9R19030   2.903   0.642  16.020  0.6371 -0.6255  0.2960
  158DOPC  C21019031   2.891   0.792  15.881 -0.1150 -0.2926  0.0665
  158DOPC  H10R19032   2.925   0.734  15.794  1.8870  2.1102 -0.8583
  158DOPC  C21119033   2.840   0.928  15.839 -0.1288 -0.7462 -0.4832
  158DOPC  H11R19034   2.906   1.003  15.887 -2.0869  0.2741  0.7268
  158DOPC  H11S19035   2.738   0.945  15.879 -0.5046  0.0279 -1.7041
  158DOPC  C21219036   2.860   0.952  15.686  0.1304 -0.0796 -0.7185
  158DOPC  H12R19037   2.967   0.935  15.663 -0.4579 -2.8271 -1.7557
  158DOPC  H12S19038   2.841   1.061  15.672 -1.1405  0.0816  1.6755
  158DOPC  C21319039   2.786   0.862  15.583  0.7976 -0.2197  0.7077
  158DOPC  H13R19040   2.677   0.872  15.601  1.1909 -0.4412  3.6301
  158DOPC  H13S19041   2.817   0.758  15.606 -1.9195 -0.6761  2.8718
  158DOPC  C21419042   2.818   0.911  15.442 -0.6219 -0.0907  0.0269
  158DOPC  H14R19043   2.928   0.922  15.431 -0.4387  0.2505  1.8563
  158DOPC  H14S19044   2.776   1.013  15.429  1.2788  0.7304 -0.0870
  158DOPC  C21519045   2.757   0.815  15.341  0.6000 -0.1316 -0.2770
  158DOPC  H15R19046   2.647   0.811  15.348  0.6471 -0.1281  0.4675
  158DOPC  H15S19047   2.797   0.715  15.366  1.8267  0.3947 -0.0596
  158DOPC  C21619048   2.789   0.849  15.197 -0.0785  0.6061 -0.0620
  158DOPC  H16R19049   2.783   0.957  15.172  1.5394  0.2167 -2.4207
  158DOPC  H16S19050   2.713   0.805  15.128  0.3467 -0.3138  0.0353
  158DOPC  C21719051   2.908   0.772  15.133 -0.0540 -0.2301 -0.4982
  158DOPC  H17R19052   2.886   0.747  15.027 -0.1180 -1.2672 -0.2526
  158DOPC  H17S19053   2.939   0.683  15.190 -0.0157 -0.6444 -1.1574
  158DOPC  C21819054   3.029   0.871  15.137  0.2814  0.1343 -0.4504
  158DOPC  H18R19055   3.019   0.969  15.085  0.2232  0.1068 -0.4901
  158DOPC  H18S19056   3.116   0.822  15.090 -0.3051  0.3462 -1.7936
  158DOPC  H18T19057   3.070   0.890  15.239  1.3879 -0.0665 -0.8471
  158DOPC   C3319058   2.616   1.324  16.456  0.3824  0.5659 -0.3690
  158DOPC   H3X19059   2.722   1.350  16.476 -0.1261  2.5480 -0.0656
  158DOPC   H3Y19060   2.562   1.421  16.458 -0.4685  0.0819  0.8534
  158DOPC   C3419061   2.606   1.254  16.322 -0.1174 -0.1417 -0.0771
  158DOPC   H4X19062   2.498   1.232  16.307 -0.7134  2.7412 -0.6433
  158DOPC   H4Y19063   2.660   1.157  16.316  0.7864  0.4228 -1.4151
  158DOPC   C3519064   2.667   1.322  16.200 -0.0465 -0.4202  0.5813
  158DOPC   H5X19065   2.777   1.337  16.208  0.0895  1.2166 -2.6973
  158DOPC   H5Y19066   2.643   1.430  16.185 -1.1941 -1.0148 -2.3462
  158DOPC   C3619067   2.643   1.248  16.062  0.1866  0.1417 -0.9707
  158DOPC   H6X19068   2.676   1.142  16.059 -1.7864 -0.5002 -1.7231
  158DOPC   H6Y19069   2.533   1.241  16.048 -0.0892 -2.8415  1.5898
  158DOPC   C3719070   2.720   1.321  15.947 -0.3946  0.0600 -0.1158
  158DOPC   H7X19071   2.700   1.430  15.959 -0.0656  0.0609  0.4830
  158DOPC   H7Y19072   2.830   1.306  15.955 -0.6053 -1.2320  0.7416
  158DOPC   C3819073   2.669   1.283  15.806 -0.2301  0.7179  0.7748
  158DOPC   H8X19074   2.564   1.317  15.793 -0.7343 -1.6526 -2.3901
  158DOPC   H8Y19075   2.670   1.172  15.808  1.2252  0.5387 -2.9371
  158DOPC   C3919076   2.760   1.347  15.699 -0.1375 -0.3116  0.7150
  158DOPC   H9X19077   2.866   1.364  15.722 -0.0291 -0.3198  0.2356
  158DOPC  C31019078   2.713   1.398  15.580 -0.1504  0.6281 -0.0599
  158DOPC  H10X19079   2.773   1.456  15.509  0.3418 -2.4292 -2.3744
  158DOPC  C31119080   2.571   1.381  15.533 -0.3394 -0.1979 -0.1270
  158DOPC  H11X19081   2.515   1.473  15.506 -0.1827  0.1031  0.5687
  158DOPC  H11Y19082   2.505   1.338  15.611 -1.8623  2.1078 -0.0527
  158DOPC  C31219083   2.568   1.276  15.420  0.5827 -0.5261  0.6916
  158DOPC  H12X19084   2.461   1.248  15.404  0.1572  1.1808  0.3613
  158DOPC  H12Y19085   2.607   1.180  15.461  1.5398  0.2639  1.6894
  158DOPC  C31319086   2.640   1.322  15.300 -0.7847  0.6040  0.5177
  158DOPC  H13X19087   2.624   1.430  15.282  0.0693  0.5471 -0.6909
  158DOPC  H13Y19088   2.747   1.313  15.326 -1.2326 -1.6021  1.9281
  158DOPC  C31419089   2.601   1.244  15.174 -0.0198 -0.4992  0.4900
  158DOPC  H14X19090   2.632   1.140  15.199 -2.1600 -1.8282 -1.9564
  158DOPC  H14Y19091   2.491   1.237  15.164 -0.0179  1.3111 -1.6368
  158DOPC  C31519092   2.671   1.296  15.046  0.7088  0.1887 -1.0587
  158DOPC  H15X19093   2.779   1.314  15.064  0.6980  0.3572 -1.1649
  158DOPC  H15Y19094   2.615   1.388  15.021  0.9681  0.6595  0.0255
  158DOPC  C31619095   2.644   1.200  14.924  0.1046  1.0409  0.3525
  158DOPC  H16X19096   2.535   1.196  14.906 -0.1718 -1.4511  2.1394
  158DOPC  H16Y19097   2.677   1.253  14.832 -0.4272 -0.6801 -0.8693
  158DOPC  C31719098   2.693   1.058  14.938 -0.3879  0.1077  0.0171
  158DOPC  H17X19099   2.798   1.074  14.971 -0.4559  1.9032 -0.5528
  158DOPC  H17Y19100   2.640   1.012  15.025 -1.7568 -0.2123 -0.9575
  158DOPC  C31819101   2.678   0.973  14.812  0.3758 -0.1831 -0.0767
  158DOPC  H18X19102   2.572   0.943  14.800  0.3491  0.4763 -1.6782
  158DOPC  H18Y19103   2.709   1.036  14.727  0.5999  0.4918  0.4945
  158DOPC  H18Z19104   2.750   0.889  14.817  0.2486 -0.3512 -1.0209
  159DOPC     N19105   5.941   2.323  17.768  0.6375 -0.1031 -0.0352
  159DOPC   C1219106   6.015   2.293  17.642  0.5168  0.1094  0.0394
  159DOPC  H12A19107   5.995   2.192  17.610  2.0845 -0.1050 -0.3663
  159DOPC  H12B19108   6.122   2.289  17.652  0.3612 -2.0095  1.5112
  159DOPC   C1319109   5.971   2.209  17.863  0.2902  0.4070  0.1557
  159DOPC  H13A19110   5.922   2.234  17.956  0.8359  0.0353  0.5491
  159DOPC  H13B19111   5.927   2.113  17.840  0.8086 -0.0793  1.1074
  159DOPC  H13C19112   6.077   2.197  17.880 -0.2053 -2.7910  1.6593
  159DOPC   C1419113   5.799   2.313  17.742  0.2591  0.1297 -0.3426
  159DOPC  H14A19114   5.751   2.402  17.704 -0.4769 -0.3201 -0.4771
  159DOPC  H14B19115   5.764   2.237  17.674 -1.0349  1.1727 -0.8801
  159DOPC  H14C19116   5.757   2.281  17.836  0.4365  0.1672 -0.2506
  159DOPC   C1519117   5.974   2.453  17.825  0.5732 -0.1746 -0.9071
  159DOPC  H15A19118   6.000   2.525  17.749 -0.2448  1.6712  0.4883
  159DOPC  H15B19119   6.059   2.453  17.892  1.1764  1.0850 -1.6278
  159DOPC  H15C19120   5.891   2.504  17.872  0.5153 -0.9499 -0.1357
  159DOPC   C1119121   5.989   2.377  17.514  0.7243  0.4099  0.3578
  159DOPC  H11A19122   6.025   2.481  17.527 -0.8037  1.0447 -0.3534
  159DOPC  H11B19123   6.063   2.335  17.441 -0.6117 -0.9514 -0.2801
  159DOPC     P19124   5.810   2.256  17.365  0.1566  0.1659  0.2516
  159DOPC   O1319125   5.671   2.284  17.328  0.7321 -0.1465 -0.4308
  159DOPC   O1419126   5.834   2.133  17.440 -0.0258  0.0611  0.1559
  159DOPC   O1219127   5.855   2.378  17.462  0.0085 -0.0179 -0.1504
  159DOPC   O1119128   5.905   2.273  17.239  0.0902  0.6390  0.0143
  159DOPC    C119129   5.916   2.397  17.175  0.0364 -0.1425 -0.7033
  159DOPC    HA19130   6.009   2.450  17.206 -0.3704  0.0324  0.2450
  159DOPC    HB19131   5.843   2.473  17.209  0.3181 -0.4112  0.5422
  159DOPC    C219132   5.917   2.388  17.032  0.3328  0.0027  0.6911
  159DOPC    HS19133   5.910   2.493  16.996 -1.4202 -0.6903 -1.1849
  159DOPC   O2119134   5.804   2.317  16.981  0.4714  0.2545 -0.0272
  159DOPC   C2119135   5.684   2.382  16.996 -0.6660 -0.9228 -0.3903
  159DOPC   O2219136   5.673   2.495  17.040 -0.3189 -0.1512  0.0728
  159DOPC   C2219137   5.566   2.300  16.936 -0.3807 -0.2057  0.1069
  159DOPC   H2R19138   5.474   2.362  16.938  0.1158  0.5663 -0.2440
  159DOPC   H2S19139   5.553   2.205  16.992 -1.2459 -0.0511  0.1762
  159DOPC    C319140   6.042   2.326  16.974 -0.3883  0.0493  0.6175
  159DOPC    HX19141   6.046   2.220  17.008  0.6462 -0.0504  0.2126
  159DOPC    HY19142   6.124   2.376  17.029  0.1603 -2.2340  2.0252
  159DOPC   O3119143   6.047   2.341  16.831  0.6385 -0.1349  0.1363
  159DOPC   C3119144   5.991   2.232  16.766 -0.1295 -0.5687 -0.2929
  159DOPC   O3219145   5.950   2.132  16.821 -0.3692  0.1599 -0.4489
  159DOPC   C3219146   5.987   2.257  16.612  0.0403 -0.3247  0.1328
  159DOPC   H2X19147   5.931   2.352  16.604 -0.8404 -1.0072 -4.0618
  159DOPC   H2Y19148   6.087   2.281  16.568  0.9726 -0.2473  2.1951
  159DOPC   C2319149   5.608   2.263  16.786 -0.4776 -0.2970 -0.3320
  159DOPC   H3R19150   5.700   2.201  16.790 -0.2366  0.0400 -0.6302
  159DOPC   H3S19151   5.641   2.347  16.722 -2.3855  0.1059 -0.8562
  159DOPC   C2419152   5.490   2.203  16.706  0.3205  0.7635  0.4166
  159DOPC   H4R19153   5.405   2.273  16.721 -0.3136  0.4887 -1.5393
  159DOPC   H4S19154   5.473   2.105  16.755  2.3929  0.4180  0.5639
  159DOPC   C2519155   5.531   2.178  16.561  0.3859 -0.2921 -0.1347
  159DOPC   H5R19156   5.609   2.100  16.557  2.5525  1.7397  0.1676
  159DOPC   H5S19157   5.583   2.267  16.519 -2.0442  1.7767  0.9646
  159DOPC   C2619158   5.407   2.131  16.470 -0.3159  0.1846  0.0216
  159DOPC   H6R19159   5.343   2.219  16.447 -1.6912 -0.4239  1.3597
  159DOPC   H6S19160   5.354   2.046  16.518 -1.2509  0.2133 -0.8984
  159DOPC   C2719161   5.453   2.075  16.333 -0.2945  0.2564 -0.4488
  159DOPC   H7R19162   5.523   1.989  16.346  0.1725  0.6170 -0.5585
  159DOPC   H7S19163   5.525   2.149  16.292 -0.7588  0.7000 -0.4601
  159DOPC   C2819164   5.343   2.051  16.232 -0.2338  0.2065  0.6185
  159DOPC   H8R19165   5.320   2.148  16.183 -2.7230 -2.6175 -4.6688
  159DOPC   H8S19166   5.255   2.006  16.284 -0.7284  0.6796  0.2136
  159DOPC   C2919167   5.382   1.967  16.104 -0.1397 -0.7530  0.2938
  159DOPC   H9R19168   5.424   1.867  16.123  0.6940 -0.2249  1.3002
  159DOPC  C21019169   5.382   2.013  15.971 -0.4930 -0.1540  0.0345
  159DOPC  H10R19170   5.418   1.943  15.894 -0.2405 -0.5542  0.5103
  159DOPC  C21119171   5.369   2.154  15.918  0.0776  0.5497 -0.2800
  159DOPC  H11R19172   5.413   2.227  15.989 -1.6590  2.2046 -0.8378
  159DOPC  H11S19173   5.261   2.178  15.911 -0.1382 -0.6900 -1.8175
  159DOPC  C21219174   5.439   2.185  15.786  0.0639  0.4870 -0.4911
  159DOPC  H12R19175   5.548   2.174  15.805 -0.4890 -0.1258  3.0863
  159DOPC  H12S19176   5.431   2.294  15.767  0.2045  0.8042  1.1822
  159DOPC  C21319177   5.393   2.104  15.667  1.0802  0.6890  0.1857
  159DOPC  H13R19178   5.283   2.111  15.653  1.2522  1.8930 -0.7644
  159DOPC  H13S19179   5.420   1.999  15.692  0.4435  0.5643  0.3623
  159DOPC  C21419180   5.485   2.152  15.545  0.2044 -0.4661 -0.6571
  159DOPC  H14R19181   5.592   2.134  15.567  0.5565 -0.3248 -2.1354
  159DOPC  H14S19182   5.471   2.261  15.529  0.7371 -0.1511  0.9318
  159DOPC  C21519183   5.440   2.062  15.436  0.7257 -0.2686  0.5568
  159DOPC  H15R19184   5.330   2.069  15.433  0.7093 -0.3411  0.9147
  159DOPC  H15S19185   5.458   1.955  15.460 -0.0953 -0.5212  0.0837
  159DOPC  C21619186   5.501   2.085  15.297 -0.0480 -0.4093 -0.2575
  159DOPC  H16R19187   5.473   1.996  15.237 -1.7725  0.3182 -0.6207
  159DOPC  H16S19188   5.611   2.078  15.311 -0.0654 -0.4181 -0.1286
  159DOPC  C21719189   5.471   2.216  15.230  0.1440 -0.0502 -0.2463
  159DOPC  H17R19190   5.524   2.293  15.291  2.8165  0.2738 -2.7784
  159DOPC  H17S19191   5.361   2.228  15.235  0.2682  1.3794 -0.3463
  159DOPC  C21819192   5.507   2.219  15.080  0.7383  0.5188  0.0499
  159DOPC  H18R19193   5.499   2.320  15.035 -1.7268 -0.2141 -1.4011
  159DOPC  H18S19194   5.455   2.137  15.025 -1.7678  0.5927  2.1123
  159DOPC  H18T19195   5.616   2.197  15.085  0.8713  1.1636  0.0055
  159DOPC   C3319196   5.916   2.156  16.521 -0.2775 -0.3622  0.0278
  159DOPC   H3X19197   5.829   2.110  16.572  0.5903 -0.0698  1.8479
  159DOPC   H3Y19198   5.987   2.072  16.506  1.1414 -0.0921  3.9649
  159DOPC   C3419199   5.863   2.233  16.396 -0.2724 -0.3308 -0.0972
  159DOPC   H4X19200   5.797   2.319  16.418 -0.9421 -0.8735  0.0322
  159DOPC   H4Y19201   5.786   2.172  16.344 -1.2895  1.9063 -1.3931
  159DOPC   C3519202   5.975   2.259  16.298  0.1761  0.3197 -0.6855
  159DOPC   H5X19203   6.045   2.173  16.289  1.5367  1.2809  0.2525
  159DOPC   H5Y19204   6.031   2.349  16.333  1.3217 -0.4540 -0.4728
  159DOPC   C3619205   5.928   2.313  16.159 -0.4809 -0.0657  0.3166
  159DOPC   H6X19206   5.866   2.403  16.179 -2.0378 -1.5267  2.6557
  159DOPC   H6Y19207   6.025   2.346  16.117 -0.5465  0.0514  0.2589
  159DOPC   C3719208   5.858   2.212  16.062  0.0467 -0.4120 -0.2026
  159DOPC   H7X19209   5.928   2.132  16.030  0.9722 -0.1015  0.9474
  159DOPC   H7Y19210   5.784   2.156  16.122  2.1688 -0.0932  2.9750
  159DOPC   C3819211   5.810   2.278  15.938 -0.5724  0.1277  0.3452
  159DOPC   H8X19212   5.731   2.352  15.963  0.8948  1.4117  1.3701
  159DOPC   H8Y19213   5.775   2.195  15.872  2.0261 -1.1827  0.4670
  159DOPC   C3919214   5.922   2.355  15.859  0.5073  0.0909 -0.4959
  159DOPC   H9X19215   5.945   2.454  15.901 -0.6936 -0.1474  0.8094
  159DOPC  C31019216   6.004   2.304  15.765  0.0173 -0.7432 -0.2127
  159DOPC  H10X19217   6.079   2.365  15.712  0.8550 -1.3669  0.2541
  159DOPC  C31119218   6.006   2.156  15.726  0.3155 -0.1246 -0.5908
  159DOPC  H11X19219   5.922   2.102  15.775 -0.3809  2.6937  1.5908
  159DOPC  H11Y19220   6.100   2.114  15.768 -0.5601 -2.4130 -0.8119
  159DOPC  C31219221   5.997   2.136  15.575  0.1037 -0.0904  0.4885
  159DOPC  H12X19222   5.896   2.170  15.542  0.0006  0.4816  1.3629
  159DOPC  H12Y19223   6.005   2.029  15.547 -1.1744  0.2232 -1.2813
  159DOPC  C31319224   6.113   2.200  15.496  0.5953  0.8789  0.3339
  159DOPC  H13X19225   6.124   2.309  15.516  1.8152  0.3531  2.9543
  159DOPC  H13Y19226   6.202   2.149  15.539 -1.0023 -0.8344  1.7956
  159DOPC  C31419227   6.102   2.178  15.345 -0.5190 -0.0953 -0.0561
  159DOPC  H14X19228   6.193   2.224  15.299 -1.0304  0.9501 -0.0582
  159DOPC  H14Y19229   6.093   2.069  15.325 -0.4362 -0.4903  1.9453
  159DOPC  C31519230   5.985   2.236  15.266  0.0194 -0.4683 -0.0862
  159DOPC  H15X19231   5.960   2.333  15.314 -0.1009 -0.4313 -0.2240
  159DOPC  H15Y19232   5.897   2.169  15.276  1.9727 -3.2021  0.0700
  159DOPC  C31619233   6.012   2.265  15.119  0.5142 -0.4318 -0.1636
  159DOPC  H16X19234   6.088   2.342  15.094 -1.0643  0.7361 -1.6126
  159DOPC  H16Y19235   6.058   2.174  15.076  0.7187 -0.5081  0.2116
  159DOPC  C31719236   5.889   2.297  15.037  0.3666 -0.0960 -0.0587
  159DOPC  H17X19237   5.833   2.203  15.018  1.8598 -0.9091 -0.6065
  159DOPC  H17Y19238   5.824   2.376  15.080 -1.5055 -1.2947 -0.5780
  159DOPC  C31819239   5.938   2.351  14.903 -0.2296 -0.5064 -0.8173
  159DOPC  H18X19240   5.966   2.459  14.909 -1.1862 -0.3006  0.3368
  159DOPC  H18Y19241   6.030   2.293  14.879  0.7802 -0.6231  2.6778
  159DOPC  H18Z19242   5.868   2.345  14.817  0.0248  1.6882 -1.2469
  160DOPC     N19243   1.175   0.058  17.143 -0.0991 -0.1609 -0.4174
  160DOPC   C1219244   1.075   0.166  17.115  0.2507 -0.4829 -0.0699
  160DOPC  H12A19245   1.129   0.251  17.076 -1.1112 -0.8896 -3.2036
  160DOPC  H12B19246   1.027   0.201  17.205  2.4047 -0.5260  1.1467
  160DOPC   C1319247   1.247   0.023  17.020  0.8550 -0.5737 -0.4694
  160DOPC  H13A19248   1.296   0.101  16.963  1.5636 -1.4776 -1.1238
  160DOPC  H13B19249   1.325  -0.046  17.050 -0.6204 -1.4846  1.4897
  160DOPC  H13C19250   1.190  -0.045  16.959  1.2833 -0.2206 -1.2760
  160DOPC   C1419251   1.104  -0.073  17.187 -0.0886 -0.1721 -0.2540
  160DOPC  H14A19252   1.021  -0.073  17.118  0.3146 -0.1202 -0.7447
  160DOPC  H14B19253   1.166  -0.161  17.177  1.1582  0.8471 -2.1599
  160DOPC  H14C19254   1.063  -0.052  17.285 -0.0351  1.9125 -0.6476
  160DOPC   C1519255   1.263   0.095  17.247 -0.0106  0.3516 -0.2346
  160DOPC  H15A19256   1.332   0.174  17.222 -0.5464  1.4197  1.5032
  160DOPC  H15B19257   1.333   0.017  17.275 -1.3884 -1.2705 -1.0728
  160DOPC  H15C19258   1.213   0.117  17.340  1.2217  1.0492  0.2825
  160DOPC   C1119259   0.966   0.140  17.013 -0.4580  0.0301 -0.0549
  160DOPC  H11A19260   0.900   0.229  17.020 -1.7626 -0.8403 -0.9642
  160DOPC  H11B19261   1.007   0.131  16.911  0.8993 -4.1042  0.6720
  160DOPC     P19262   0.750  -0.011  16.986 -0.1647  0.1589  0.2761
  160DOPC   O1319263   0.665   0.111  16.984  0.1120  0.3033 -0.4076
  160DOPC   O1419264   0.707  -0.132  17.049  0.1184  0.2010 -0.3722
  160DOPC   O1219265   0.891   0.021  17.046  0.6133  0.3609  0.1751
  160DOPC   O1119266   0.781  -0.052  16.831  0.4451 -0.0597 -0.5651
  160DOPC    C119267   0.888  -0.136  16.812 -0.2193  0.3456  0.4128
  160DOPC    HA19268   0.874  -0.235  16.860 -0.8693  0.2671  0.0675
  160DOPC    HB19269   0.984  -0.103  16.858 -0.3600 -0.2540  1.1547
  160DOPC    C219270   0.919  -0.162  16.661  0.4704  0.0599 -0.3585
  160DOPC    HS19271   1.009  -0.226  16.651 -0.7009 -1.5310 -1.0281
  160DOPC   O2119272   0.922  -0.043  16.586  0.2587 -0.0700 -0.4701
  160DOPC   C2119273   1.026   0.040  16.615 -0.0593 -0.1774 -0.1525
  160DOPC   O2219274   1.129   0.000  16.658 -0.4500  0.0178 -0.3701
  160DOPC   C2219275   0.978   0.186  16.571 -0.6290  0.0183 -0.5679
  160DOPC   H2R19276   0.949   0.237  16.665  2.6857  4.0273 -1.4167
  160DOPC   H2S19277   0.892   0.181  16.500 -1.2567 -1.9950  0.2709
  160DOPC    C319278   0.807  -0.252  16.606 -0.5014 -0.5858 -0.2032
  160DOPC    HX19279   0.708  -0.216  16.642  0.5768  0.5128  1.8421
  160DOPC    HY19280   0.819  -0.347  16.662  0.2367  0.3215  1.2351
  160DOPC   O3119281   0.808  -0.270  16.469 -0.4218 -0.0106 -0.4433
  160DOPC   C3119282   0.745  -0.173  16.403  0.1184 -0.4692  0.2952
  160DOPC   O3219283   0.668  -0.090  16.444 -0.2906  0.2698  0.4534
  160DOPC   C3219284   0.775  -0.186  16.252  0.0068 -0.3451 -0.4467
  160DOPC   H2X19285   0.879  -0.221  16.234 -0.2367 -0.8805 -0.8325
  160DOPC   H2Y19286   0.703  -0.263  16.218 -0.8411 -0.2962  1.1304
  160DOPC   C2319287   1.108   0.252  16.522  0.1379 -0.5840  0.1061
  160DOPC   H3R19288   1.188   0.234  16.597 -1.9477 -0.1424  2.6140
  160DOPC   H3S19289   1.096   0.362  16.513  0.5846 -0.3705  1.7627
  160DOPC   C2419290   1.149   0.200  16.379  0.3093 -0.4274  0.5852
  160DOPC   H4R19291   1.138   0.089  16.378 -1.8933 -0.2786  1.4124
  160DOPC   H4S19292   1.251   0.229  16.348 -0.6600  0.4163 -2.1302
  160DOPC   C2519293   1.052   0.250  16.273  0.2786  0.2245  0.0964
  160DOPC   H5R19294   1.036   0.360  16.281 -0.6686  0.2338 -1.4403
  160DOPC   H5S19295   0.954   0.204  16.302  1.3983 -0.6333  2.9029
  160DOPC   C2619296   1.087   0.219  16.127 -0.7519 -0.3610  0.5578
  160DOPC   H6R19297   1.002   0.260  16.068  0.6826  1.3750 -0.3683
  160DOPC   H6S19298   1.102   0.109  16.116  1.3774 -0.0650  0.1742
  160DOPC   C2719299   1.214   0.285  16.070  0.1856  0.1971 -0.8323
  160DOPC   H7R19300   1.295   0.224  16.115 -0.8041 -0.9016 -0.4697
  160DOPC   H7S19301   1.228   0.390  16.102 -0.6989 -0.4744  2.0717
  160DOPC   C2819302   1.219   0.299  15.914 -0.2173 -0.0422  0.3324
  160DOPC   H8R19303   1.314   0.348  15.883  1.7450 -2.7857  1.5720
  160DOPC   H8S19304   1.132   0.359  15.880  0.8982  0.8516 -1.0631
  160DOPC   C2919305   1.235   0.161  15.849  0.4199  0.2815 -0.4715
  160DOPC   H9R19306   1.183   0.079  15.902  1.5646  0.4986  1.0478
  160DOPC  C21019307   1.290   0.122  15.734  0.6772  0.3360 -0.4736
  160DOPC  H10R19308   1.278   0.017  15.703  1.2240 -0.0465  0.5388
  160DOPC  C21119309   1.362   0.215  15.641  0.3449 -0.0180 -0.3270
  160DOPC  H11R19310   1.464   0.185  15.609  0.2578  0.0915 -0.7209
  160DOPC  H11S19311   1.385   0.315  15.682  3.2272  0.0176 -1.7720
  160DOPC  C21219312   1.273   0.233  15.514  0.2749  0.0950 -0.1394
  160DOPC  H12R19313   1.168   0.264  15.537  0.7718 -0.1297  2.8017
  160DOPC  H12S19314   1.273   0.132  15.467 -0.0060 -0.5814  1.2850
  160DOPC  C21319315   1.341   0.331  15.417 -1.3919 -0.4226 -0.0580
  160DOPC  H13R19316   1.450   0.311  15.421 -0.7146  2.8137  1.6488
  160DOPC  H13S19317   1.339   0.437  15.450 -1.5976  0.1552 -1.8061
  160DOPC  C21419318   1.308   0.314  15.271 -0.4671  0.1332  0.1843
  160DOPC  H14R19319   1.203   0.345  15.253 -0.4811 -0.8051 -1.4937
  160DOPC  H14S19320   1.323   0.207  15.248 -0.8865 -1.0566  4.5799
  160DOPC  C21519321   1.401   0.396  15.180  0.7627  1.3740  0.5033
  160DOPC  H15R19322   1.397   0.356  15.076  3.5660 -1.4274  1.2997
  160DOPC  H15S19323   1.508   0.378  15.204 -0.1378 -1.1455  3.1437
  160DOPC  C21619324   1.378   0.550  15.181 -0.1701  0.1456  0.2161
  160DOPC  H16R19325   1.360   0.585  15.285 -0.4881 -1.8596  0.8785
  160DOPC  H16S19326   1.287   0.583  15.126  0.8432  0.9253 -1.0581
  160DOPC  C21719327   1.499   0.629  15.116  0.0603  0.6722  0.4176
  160DOPC  H17R19328   1.565   0.610  15.204 -0.7446 -1.0064  0.7124
  160DOPC  H17S19329   1.469   0.735  15.100 -1.4246  0.1539 -0.4300
  160DOPC  C21819330   1.568   0.565  14.993  0.0358 -0.1120  0.6350
  160DOPC  H18R19331   1.507   0.600  14.907 -0.3658 -0.3959  0.7962
  160DOPC  H18S19332   1.576   0.454  14.985  0.4179 -0.1081  0.9276
  160DOPC  H18T19333   1.671   0.598  14.970  1.0223 -1.6194  2.5885
  160DOPC   C3319334   0.759  -0.059  16.165 -0.4636  0.3085  0.6415
  160DOPC   H3X19335   0.778   0.032  16.227 -2.4074 -0.3336  2.3128
  160DOPC   H3Y19336   0.651  -0.048  16.142 -0.2504 -0.3507 -0.7690
  160DOPC   C3419337   0.835  -0.054  16.029 -0.2128 -0.2252  0.0200
  160DOPC   H4X19338   0.816  -0.153  15.981  1.4797 -1.0356  0.9041
  160DOPC   H4Y19339   0.946  -0.051  16.040 -0.3314  0.9667  1.0892
  160DOPC   C3519340   0.784   0.053  15.938  0.2002 -0.8406  0.3574
  160DOPC   H5X19341   0.829   0.153  15.954  0.7431 -0.7446 -1.5190
  160DOPC   H5Y19342   0.675   0.066  15.957  0.5515  0.3439  1.7463
  160DOPC   C3619343   0.784   0.031  15.781 -0.0144 -0.5205 -0.1863
  160DOPC   H6X19344   0.708  -0.050  15.773  0.0501 -0.6749  0.6594
  160DOPC   H6Y19345   0.738   0.122  15.737  0.6248 -0.5739 -1.0002
  160DOPC   C3719346   0.918   0.001  15.718 -0.4589 -0.6740  0.4475
  160DOPC   H7X19347   0.965   0.100  15.702 -0.8676 -0.4451  0.6498
  160DOPC   H7Y19348   0.972  -0.053  15.799  1.2576  0.2757 -0.0150
  160DOPC   C3819349   0.929  -0.085  15.590  0.2768 -0.2636  0.2891
  160DOPC   H8X19350   0.866  -0.027  15.519  1.5688 -1.1599 -1.6561
  160DOPC   H8Y19351   0.865  -0.175  15.601 -1.7839  1.0228 -0.4616
  160DOPC   C3919352   1.064  -0.120  15.548 -1.1877 -0.1102  0.4319
  160DOPC   H9X19353   1.124  -0.173  15.623  2.3763  1.0092 -1.3487
  160DOPC  C31019354   1.109  -0.098  15.418  0.2992  0.5036 -0.3777
  160DOPC  H10X19355   1.214  -0.126  15.397 -0.2338 -0.1414 -2.4308
  160DOPC  C31119356   1.034  -0.033  15.306 -0.2299 -0.6053  0.3761
  160DOPC  H11X19357   1.018   0.074  15.328 -0.8466 -0.1235 -2.0482
  160DOPC  H11Y19358   0.935  -0.078  15.282 -0.6065  0.5356 -0.3099
  160DOPC  C31219359   1.117  -0.030  15.173 -0.1549  1.1204  0.3312
  160DOPC  H12X19360   1.204   0.038  15.183  1.4550 -0.6957 -0.6628
  160DOPC  H12Y19361   1.067   0.031  15.094  0.1184  0.1435 -0.6127
  160DOPC  C31319362   1.152  -0.164  15.102  0.4892 -0.2743 -0.1314
  160DOPC  H13X19363   1.224  -0.228  15.157  1.8474  1.5052  0.2423
  160DOPC  H13Y19364   1.051  -0.208  15.086 -0.9638  2.2366  1.4838
  160DOPC  C31419365   1.225  -0.150  14.961 -0.6134  0.1896 -0.4698
  160DOPC  H14X19366   1.244  -0.251  14.919  1.6683  0.1955  0.3689
  160DOPC  H14Y19367   1.159  -0.096  14.890  0.3302  0.5438 -1.1017
  160DOPC  C31519368   1.353  -0.068  14.974 -0.3237  0.2368  0.0589
  160DOPC  H15X19369   1.409  -0.121  15.054 -1.6728 -2.5224 -0.6923
  160DOPC  H15Y19370   1.331   0.035  15.010  3.4897  1.8734 -1.7792
  160DOPC  C31619371   1.440  -0.049  14.850  1.3869 -0.1930  0.3196
  160DOPC  H16X19372   1.504  -0.140  14.845 -1.4681 -2.3262 -0.0320
  160DOPC  H16Y19373   1.379  -0.054  14.757  0.7032  1.6274  0.6295
  160DOPC  C31719374   1.528   0.073  14.855 -0.2457 -0.3043  0.3247
  160DOPC  H17X19375   1.576   0.074  14.955  0.3433 -0.1967  0.0390
  160DOPC  H17Y19376   1.612   0.056  14.785  0.2149  1.2556  0.4781
  160DOPC  C31819377   1.452   0.205  14.820  0.1344 -0.0439  0.1932
  160DOPC  H18X19378   1.516   0.295  14.837  0.7638 -0.2241 -1.0869
  160DOPC  H18Y19379   1.409   0.206  14.718  0.2346 -1.1996  0.1235
  160DOPC  H18Z19380   1.366   0.223  14.888 -0.2369 -1.6392  0.1910
  161DOPC     N19381   1.880   2.250  17.454  0.1228  0.6261  0.1066
  161DOPC   C1219382   1.865   2.298  17.311 -0.1780 -1.1071 -0.3796
  161DOPC  H12A19383   1.935   2.377  17.292  0.5100 -1.6582 -0.1797
  161DOPC  H12B19384   1.772   2.350  17.295 -0.6861 -1.8091  0.2415
  161DOPC   C1319385   1.987   2.137  17.464  0.9378  0.2681 -0.2243
  161DOPC  H13A19386   1.950   2.048  17.415 -0.0916  0.2676  0.5256
  161DOPC  H13B19387   2.078   2.168  17.415  0.3494  3.0696  0.2886
  161DOPC  H13C19388   2.000   2.121  17.570 -0.6259  3.5739  0.5659
  161DOPC   C1419389   1.754   2.180  17.490  0.2609 -0.2927 -0.7324
  161DOPC  H14A19390   1.761   2.132  17.586 -1.0780  0.6307 -0.1389
  161DOPC  H14B19391   1.669   2.246  17.493 -0.4775 -1.2499  0.3276
  161DOPC  H14C19392   1.734   2.105  17.415  0.3323  2.5498 -3.8342
  161DOPC   C1519393   1.908   2.365  17.543 -0.4007  0.0725 -0.1223
  161DOPC  H15A19394   1.821   2.430  17.546  0.1352  0.7756  1.3697
  161DOPC  H15B19395   1.993   2.425  17.514  1.3903 -0.8729  2.7530
  161DOPC  H15C19396   1.915   2.336  17.647  0.1864  2.0056  0.4182
  161DOPC   C1119397   1.893   2.197  17.195  0.1651 -0.4757 -0.6337
  161DOPC  H11A19398   1.881   2.248  17.097 -1.8196  0.0037 -0.1876
  161DOPC  H11B19399   1.999   2.164  17.197 -0.2641 -2.0214 -1.8570
  161DOPC     P19400   1.711   2.040  17.091  0.3199 -0.3173  0.4738
  161DOPC   O1319401   1.626   2.162  17.063  0.0483  0.1472 -0.8145
  161DOPC   O1419402   1.643   1.916  17.125 -0.5115  0.1213 -0.2172
  161DOPC   O1219403   1.811   2.083  17.200 -0.1470  0.3566  0.4347
  161DOPC   O1119404   1.806   2.024  16.963 -0.3450  0.4088  0.4242
  161DOPC    C119405   1.924   1.937  16.968  0.5211  0.2261  0.1513
  161DOPC    HA19406   1.890   1.834  16.990 -3.2762  1.2829 -0.1583
  161DOPC    HB19407   1.987   1.967  17.055  2.0808 -1.0591 -0.4833
  161DOPC    C219408   2.004   1.936  16.837 -0.1091  0.6363  0.4015
  161DOPC    HS19409   2.103   1.888  16.851  0.8576  2.0572 -1.1088
  161DOPC   O2119410   2.009   2.071  16.789 -0.4033  0.0739  0.1279
  161DOPC   C2119411   2.113   2.145  16.839  0.1757 -0.2198  0.0031
  161DOPC   O2219412   2.200   2.100  16.916  0.0357 -0.5402  0.0976
  161DOPC   C2219413   2.113   2.289  16.779 -0.1876 -0.2735 -0.3711
  161DOPC   H2R19414   2.142   2.346  16.869  1.8809 -1.3139 -0.3218
  161DOPC   H2S19415   2.006   2.308  16.755 -0.1841 -0.4328 -0.5243
  161DOPC    C319416   1.920   1.857  16.733 -0.4667  0.3279 -0.1082
  161DOPC    HX19417   1.821   1.907  16.735  0.3879  2.0849  1.4178
  161DOPC    HY19418   1.898   1.753  16.767  1.0310 -0.6604 -1.9674
  161DOPC   O3119419   1.988   1.844  16.605 -0.2169  0.1993 -0.1952
  161DOPC   C3119420   1.913   1.813  16.506 -0.2588  0.1527  0.4319
  161DOPC   O3219421   1.791   1.790  16.513 -0.3838  0.9729  0.9274
  161DOPC   C3219422   2.000   1.822  16.384 -0.1064 -0.6113  0.2601
  161DOPC   H2X19423   2.061   1.914  16.385 -0.5247 -0.3222 -0.3086
  161DOPC   H2Y19424   2.069   1.735  16.381 -0.7759 -1.1464  0.0612
  161DOPC   C2319425   2.201   2.292  16.654  0.3200  0.3138  0.0638
  161DOPC   H3R19426   2.302   2.252  16.677  0.8688  1.9713  0.6846
  161DOPC   H3S19427   2.222   2.396  16.620  1.6985 -0.1112 -0.4577
  161DOPC   C2419428   2.144   2.212  16.533  0.6311  0.3785  0.0490
  161DOPC   H4R19429   2.053   2.271  16.506  0.5307 -0.0129 -0.4766
  161DOPC   H4S19430   2.116   2.110  16.565  2.0896  0.3528  1.3481
  161DOPC   C2519431   2.237   2.209  16.412  0.2271  0.6286 -0.0977
  161DOPC   H5R19432   2.310   2.127  16.427 -1.1097 -0.4418  0.7409
  161DOPC   H5S19433   2.304   2.297  16.400 -1.4072  1.9403 -0.1199
  161DOPC   C2619434   2.173   2.191  16.274 -0.0788  0.3862  0.0716
  161DOPC   H6R19435   2.095   2.269  16.266  1.0613  1.6658  0.8167
  161DOPC   H6S19436   2.119   2.095  16.261  2.2141 -0.8807 -0.8183
  161DOPC   C2719437   2.273   2.195  16.158 -0.0707 -0.3986 -0.7714
  161DOPC   H7R19438   2.337   2.104  16.162  1.4970  0.6324 -1.4385
  161DOPC   H7S19439   2.343   2.281  16.162 -0.0904 -0.4292  0.6888
  161DOPC   C2819440   2.208   2.205  16.016  0.0683  0.7333 -0.3574
  161DOPC   H8R19441   2.181   2.312  15.998  0.6087  1.0040  0.3712
  161DOPC   H8S19442   2.117   2.143  16.031  0.2562  0.9674  2.1738
  161DOPC   C2919443   2.298   2.149  15.909  0.5849 -0.6297  0.0894
  161DOPC   H9R19444   2.357   2.065  15.948  2.8563  0.9539  0.3073
  161DOPC  C21019445   2.322   2.198  15.789  0.3452  0.2593  0.1438
  161DOPC  H10R19446   2.406   2.152  15.735  0.0301 -0.8753  0.5903
  161DOPC  C21119447   2.269   2.323  15.725  0.0100  0.1177  0.3506
  161DOPC  H11R19448   2.356   2.372  15.676  2.0838  0.7437  4.2366
  161DOPC  H11S19449   2.244   2.398  15.802  0.4074 -1.2062  1.8250
  161DOPC  C21219450   2.158   2.306  15.626  0.8798  0.6458 -0.5043
  161DOPC  H12R19451   2.112   2.403  15.600 -0.5266 -0.5053 -2.6716
  161DOPC  H12S19452   2.082   2.233  15.662  0.0085 -0.3385 -3.9410
  161DOPC  C21319453   2.209   2.252  15.491 -0.7596  0.9848  0.0176
  161DOPC  H13R19454   2.114   2.233  15.436 -1.7789 -1.2514  2.3434
  161DOPC  H13S19455   2.269   2.158  15.486  1.3564  2.2929 -3.6600
  161DOPC  C21419456   2.294   2.345  15.408 -0.2738 -0.1707 -0.2256
  161DOPC  H14R19457   2.379   2.381  15.469 -0.0422 -0.0354 -0.6250
  161DOPC  H14S19458   2.223   2.425  15.379 -1.2743 -0.0465  2.3507
  161DOPC  C21519459   2.359   2.287  15.279  0.4222 -0.3374 -0.4367
  161DOPC  H15R19460   2.427   2.202  15.301  0.6244 -0.4756 -1.5303
  161DOPC  H15S19461   2.412   2.373  15.232 -0.3695 -0.1907 -1.0893
  161DOPC  C21619462   2.246   2.243  15.184  0.0977  0.4647  0.6580
  161DOPC  H16R19463   2.192   2.333  15.148  0.8056  0.4920 -0.3699
  161DOPC  H16S19464   2.184   2.166  15.235  0.6429  1.1875  2.4637
  161DOPC  C21719465   2.320   2.190  15.068 -0.1152  0.4368 -0.2215
  161DOPC  H17R19466   2.358   2.091  15.102 -3.3410 -0.7015  0.4551
  161DOPC  H17S19467   2.396   2.265  15.037 -0.3227  1.1357  0.8983
  161DOPC  C21819468   2.222   2.155  14.960  0.0746 -0.1885  0.2641
  161DOPC  H18R19469   2.148   2.077  14.987 -0.2722 -0.2450 -0.8273
  161DOPC  H18S19470   2.247   2.116  14.859 -4.3851  0.0054 -1.1125
  161DOPC  H18T19471   2.163   2.247  14.939 -1.3195 -0.4588  2.5709
  161DOPC   C3319472   1.927   1.816  16.252  0.0213 -0.3081 -0.2777
  161DOPC   H3X19473   1.838   1.882  16.258 -0.6877 -1.2228 -0.4956
  161DOPC   H3Y19474   1.874   1.719  16.241 -3.6444  1.6995 -2.1988
  161DOPC   C3419475   2.011   1.837  16.131  0.6041 -0.6557  0.4196
  161DOPC   H4X19476   2.083   1.753  16.127  0.0482 -1.1386  0.4764
  161DOPC   H4Y19477   2.068   1.931  16.149 -0.7810  0.1481  0.6766
  161DOPC   C3519478   1.929   1.848  15.999 -0.1529 -0.4007  0.1631
  161DOPC   H5X19479   1.852   1.927  15.992 -0.8096 -1.1788 -2.5574
  161DOPC   H5Y19480   1.878   1.751  15.981  1.1835 -1.0241 -0.4056
  161DOPC   C3619481   2.018   1.863  15.867 -0.0811  0.3079  0.4506
  161DOPC   H6X19482   2.076   1.953  15.895  0.3127  0.1210  0.2357
  161DOPC   H6Y19483   2.082   1.774  15.853  0.4669  0.9750 -1.5913
  161DOPC   C3719484   1.942   1.895  15.733 -0.2131  1.1811 -0.6528
  161DOPC   H7X19485   1.865   1.815  15.724  0.9672 -0.3749  1.9048
  161DOPC   H7Y19486   1.886   1.990  15.749  0.8590  1.5274  1.3027
  161DOPC   C3819487   2.028   1.909  15.607 -0.1751 -0.7937 -0.2205
  161DOPC   H8X19488   2.049   1.809  15.565 -3.2536 -1.7101  0.1759
  161DOPC   H8Y19489   2.123   1.952  15.644 -1.3027  0.9608  0.8245
  161DOPC   C3919490   1.953   1.996  15.501 -0.8016 -0.3766  0.8752
  161DOPC   H9X19491   1.955   2.104  15.522 -0.1958  0.1587 -1.6246
  161DOPC  C31019492   1.907   1.954  15.380 -0.0007  0.3073 -0.3966
  161DOPC  H10X19493   1.866   2.034  15.316 -0.6001  1.0585  0.8898
  161DOPC  C31119494   1.898   1.814  15.324 -0.5230  0.2235  0.0823
  161DOPC  H11X19495   1.797   1.811  15.278 -0.2022  1.0724 -0.6951
  161DOPC  H11Y19496   1.894   1.730  15.397  0.8709 -0.4988 -0.6482
  161DOPC  C31219497   2.009   1.773  15.226  0.0453 -0.1081 -0.0075
  161DOPC  H12X19498   1.998   1.667  15.195  1.0158 -1.1177  2.8100
  161DOPC  H12Y19499   2.104   1.782  15.284  0.3803  2.2107 -0.8080
  161DOPC  C31319500   2.021   1.852  15.100  0.4407 -0.0347  0.1237
  161DOPC  H13X19501   2.017   1.958  15.133  0.3995 -0.6927  2.4016
  161DOPC  H13Y19502   2.121   1.848  15.051 -0.2520  0.3852 -1.3621
  161DOPC  C31419503   1.931   1.796  14.993 -0.2663 -0.0675 -0.2675
  161DOPC  H14X19504   1.959   1.691  14.970  0.1114  0.3105 -1.6524
  161DOPC  H14Y19505   1.825   1.814  15.022  0.9531  3.3674  2.8771
  161DOPC  C31519506   1.956   1.874  14.860  0.3138  0.0556  0.0173
  161DOPC  H15X19507   1.938   1.979  14.891  0.5661  0.1908 -0.2861
  161DOPC  H15Y19508   1.885   1.835  14.784  2.0299 -3.4224  0.0198
  161DOPC  C31619509   2.092   1.850  14.796 -0.2240 -0.0850  1.3822
  161DOPC  H16X19510   2.177   1.853  14.867  1.1398  1.6602 -0.2021
  161DOPC  H16Y19511   2.086   1.750  14.749 -0.6704  1.1755 -1.4668
  161DOPC  C31719512   2.116   1.941  14.672  0.0890  0.1686 -0.3615
  161DOPC  H17X19513   2.022   1.941  14.614 -0.3637  2.9862  0.1984
  161DOPC  H17Y19514   2.132   2.047  14.703  1.2967 -0.4282  1.2395
  161DOPC  C31819515   2.225   1.900  14.577  0.4150  0.1397  0.2581
  161DOPC  H18X19516   2.182   1.816  14.517 -1.3339  1.5851 -0.6026
  161DOPC  H18Y19517   2.244   1.986  14.510  0.0846 -0.0682 -0.1129
  161DOPC  H18Z19518   2.321   1.868  14.621  1.1356 -1.0949 -2.0282
  162DOPC     N19519   0.239   5.822  16.721  0.0753  0.5634 -0.2745
  162DOPC   C1219520   0.214   5.916  16.596 -0.0621  0.0434  0.0991
  162DOPC  H12A19521   0.123   5.973  16.599  0.5773  1.0852  0.3172
  162DOPC  H12B19522   0.198   5.851  16.511  2.3055 -1.4279  0.6431
  162DOPC   C1319523   0.199   5.899  16.848  0.1640  1.1749  0.6591
  162DOPC  H13A19524   0.236   5.850  16.936 -0.6007 -0.3635  0.1568
  162DOPC  H13B19525   0.257   5.989  16.830  0.2575  0.8159 -1.0334
  162DOPC  H13C19526   0.092   5.913  16.844 -0.1894 -1.2380 -1.5854
  162DOPC   C1419527   0.379   5.781  16.735  0.1734  0.0226  0.3212
  162DOPC  H14A19528   0.399   5.724  16.824  1.2877 -1.4743 -0.8517
  162DOPC  H14B19529   0.406   5.713  16.655 -1.0019  1.2832 -1.2303
  162DOPC  H14C19530   0.450   5.861  16.721  0.5990  0.1475  2.7645
  162DOPC   C1519531   0.155   5.702  16.721 -0.6456  0.5642  0.6682
  162DOPC  H15A19532   0.192   5.615  16.772  0.8154  1.0913  0.5407
  162DOPC  H15B19533   0.138   5.674  16.618 -1.6139 -1.0301  1.2250
  162DOPC  H15C19534   0.054   5.722  16.755 -1.1856 -0.8437 -0.0393
  162DOPC   C1119535   0.319   6.016  16.549 -0.4226 -0.7587 -0.5456
  162DOPC  H11A19536   0.401   5.968  16.490  1.5448  0.6872  0.8668
  162DOPC  H11B19537   0.276   6.080  16.470 -0.7560  2.3935  1.9813
  162DOPC     P19538   0.275   6.221  16.701  0.3071 -0.1430 -0.1258
  162DOPC   O1319539   0.247   6.207  16.844  1.1596  0.1498  0.0332
  162DOPC   O1419540   0.154   6.219  16.620  0.0410 -0.1373 -0.5759
  162DOPC   O1219541   0.369   6.099  16.661  0.0869  0.1684 -0.0169
  162DOPC   O1119542   0.361   6.348  16.676  0.0770 -0.3658  0.0645
  162DOPC    C119543   0.352   6.429  16.563  0.6830 -0.1121  0.7094
  162DOPC    HA19544   0.427   6.510  16.570 -0.8931  1.3829  1.2258
  162DOPC    HB19545   0.247   6.461  16.546  0.0622 -2.7020 -1.0613
  162DOPC    C219546   0.393   6.359  16.427  0.5774  0.0708  0.2425
  162DOPC    HS19547   0.310   6.285  16.419  0.5757  0.1284 -0.2681
  162DOPC   O2119548   0.519   6.297  16.444  0.5299  0.0767 -0.3963
  162DOPC   C2119549   0.533   6.186  16.373 -0.0167 -0.2921 -0.2350
  162DOPC   O2219550   0.453   6.134  16.294 -0.5818 -0.3424 -0.4171
  162DOPC   C2219551   0.673   6.134  16.401  0.4999 -0.2023  0.0208
  162DOPC   H2R19552   0.659   6.083  16.498  1.2265 -0.2701  0.0948
  162DOPC   H2S19553   0.734   6.224  16.425 -0.6165 -0.3573  4.2952
  162DOPC    C319554   0.392   6.461  16.305 -0.2281 -0.0220 -0.1423
  162DOPC    HX19555   0.471   6.535  16.332  0.6554 -0.4990 -1.3138
  162DOPC    HY19556   0.296   6.516  16.301 -0.6213 -0.4542  1.9850
  162DOPC   O3119557   0.433   6.403  16.181 -0.5685 -0.2496  0.0343
  162DOPC   C3119558   0.341   6.354  16.110 -0.7492  0.7843  0.4942
  162DOPC   O3219559   0.224   6.375  16.120  0.3472  1.0321 -0.2980
  162DOPC   C3219560   0.403   6.281  15.986  0.0151  0.2205 -0.5159
  162DOPC   H2X19561   0.511   6.280  16.010  0.1637  2.4808 -0.9408
  162DOPC   H2Y19562   0.348   6.184  15.982  1.4052 -0.5509 -1.3732
  162DOPC   C2319563   0.722   6.041  16.297  0.3521 -0.0382 -0.4043
  162DOPC   H3R19564   0.651   5.961  16.268 -0.0407  0.5837 -1.2071
  162DOPC   H3S19565   0.824   6.005  16.324 -0.5750 -1.2513  1.6804
  162DOPC   C2419566   0.748   6.113  16.164  0.1162 -0.1914  0.1806
  162DOPC   H4R19567   0.835   6.180  16.178 -0.2390  0.0518  1.4204
  162DOPC   H4S19568   0.664   6.185  16.150  0.3134  0.2091  1.0000
  162DOPC   C2519569   0.774   6.015  16.054 -0.2471  0.3135 -0.1519
  162DOPC   H5R19570   0.696   5.938  16.039  0.2485  0.2035 -2.7869
  162DOPC   H5S19571   0.867   5.958  16.075  1.8915  1.9902 -3.8812
  162DOPC   C2619572   0.791   6.084  15.921 -0.2192  0.3674  0.2228
  162DOPC   H6R19573   0.865   6.166  15.931 -0.4299  0.5434  0.3592
  162DOPC   H6S19574   0.697   6.135  15.891 -1.3907 -1.2003  1.0576
  162DOPC   C2719575   0.838   5.995  15.814  0.2268  0.2986 -0.6251
  162DOPC   H7R19576   0.782   5.899  15.807  2.3542 -1.0412  0.0992
  162DOPC   H7S19577   0.947   5.979  15.822  0.4565  1.6173 -0.7518
  162DOPC   C2819578   0.824   6.064  15.674 -0.4736 -0.1351 -0.1406
  162DOPC   H8R19579   0.883   6.159  15.676  1.3742 -1.2383  1.6066
  162DOPC   H8S19580   0.718   6.091  15.658 -0.5756 -0.9484 -0.8561
  162DOPC   C2919581   0.878   5.966  15.571  0.0446  0.0532  0.5510
  162DOPC   H9R19582   0.820   5.874  15.555 -1.0900  0.8092  0.1662
  162DOPC  C21019583   0.980   5.981  15.486 -0.2883 -0.3470  0.1707
  162DOPC  H10R19584   1.004   5.912  15.404 -1.0956 -2.6897  1.7960
  162DOPC  C21119585   1.072   6.098  15.483 -0.2311 -1.2131 -0.0321
  162DOPC  H11R19586   1.172   6.065  15.450  0.4265 -0.6272  1.3052
  162DOPC  H11S19587   1.088   6.130  15.588  0.4897 -1.0451 -0.1889
  162DOPC  C21219588   1.031   6.221  15.394 -0.5480 -0.3323 -0.2805
  162DOPC  H12R19589   1.118   6.288  15.389 -0.4753 -0.4469 -0.5738
  162DOPC  H12S19590   0.940   6.267  15.439 -0.2717  1.1583 -1.1739
  162DOPC  C21319591   0.998   6.196  15.248 -0.1663 -0.2887 -0.0731
  162DOPC  H13R19592   0.969   6.291  15.198  0.1998 -0.3118 -0.3317
  162DOPC  H13S19593   0.919   6.120  15.232  0.4574 -0.7624 -0.9720
  162DOPC  C21419594   1.113   6.163  15.157 -0.4769  0.8299 -0.0673
  162DOPC  H14R19595   1.167   6.075  15.199 -0.3547 -1.0694 -3.7687
  162DOPC  H14S19596   1.193   6.238  15.143  1.4660 -1.0127  0.6842
  162DOPC  C21519597   1.074   6.101  15.027 -0.1957  0.2287 -0.6143
  162DOPC  H15R19598   1.001   6.018  15.037  0.7932 -0.4755  1.2122
  162DOPC  H15S19599   1.168   6.056  14.987  1.4794  1.5647  1.6239
  162DOPC  C21619600   1.017   6.203  14.924  0.1434 -0.0063  0.0663
  162DOPC  H16R19601   1.081   6.291  14.900  0.8952  0.0430  2.1067
  162DOPC  H16S19602   0.928   6.248  14.972 -0.1962 -0.9784  0.3763
  162DOPC  C21719603   0.965   6.129  14.792 -0.7186  0.5863  0.5362
  162DOPC  H17R19604   0.906   6.203  14.733  2.4088  3.0720  0.2037
  162DOPC  H17S19605   0.908   6.040  14.825  1.8576 -1.6702 -0.7183
  162DOPC  C21819606   1.082   6.070  14.715 -0.8518 -0.0633  0.0051
  162DOPC  H18R19607   1.132   5.995  14.780 -0.1862  0.1065 -0.3000
  162DOPC  H18S19608   1.167   6.137  14.691  1.0013 -1.7657  1.3892
  162DOPC  H18T19609   1.044   6.012  14.628 -0.4347  0.7688 -0.7433
  162DOPC   C3319610   0.401   6.364  15.857  0.2024  0.5952  0.1567
  162DOPC   H3X19611   0.412   6.472  15.882 -0.5643  1.0309 -1.2354
  162DOPC   H3Y19612   0.309   6.370  15.795  0.2326  3.9788  0.2427
  162DOPC   C3419613   0.504   6.308  15.762  0.1929 -0.1113 -0.4908
  162DOPC   H4X19614   0.515   6.198  15.769  1.8387  0.1504  2.3078
  162DOPC   H4Y19615   0.596   6.363  15.789  0.1351  0.2190 -0.9521
  162DOPC   C3519616   0.474   6.355  15.623  0.4866  0.1940  0.2767
  162DOPC   H5X19617   0.458   6.465  15.615  1.7335  0.2985 -1.1995
  162DOPC   H5Y19618   0.374   6.316  15.596  0.3256  0.4614  0.4730
  162DOPC   C3619619   0.582   6.311  15.526 -0.2117 -0.5904  0.3303
  162DOPC   H6X19620   0.678   6.352  15.563  1.0176 -3.0264  0.0472
  162DOPC   H6Y19621   0.597   6.202  15.538  1.3306 -0.2923  1.5016
  162DOPC   C3719622   0.541   6.357  15.388 -0.2605 -0.4046  0.2254
  162DOPC   H7X19623   0.440   6.317  15.366 -1.1276  2.3122 -1.2121
  162DOPC   H7Y19624   0.523   6.467  15.386 -0.8163 -0.4312  1.9420
  162DOPC   C3819625   0.646   6.316  15.280  0.2919 -0.8838 -0.3200
  162DOPC   H8X19626   0.684   6.216  15.307 -0.3978 -0.6705  1.6070
  162DOPC   H8Y19627   0.729   6.390  15.278  0.0069 -0.5122  0.7422
  162DOPC   C3919628   0.575   6.303  15.146 -0.0225 -0.6044  0.1094
  162DOPC   H9X19629   0.497   6.226  15.137 -1.5619  0.7293  1.4492
  162DOPC  C31019630   0.606   6.384  15.038 -0.0377  0.2720 -0.0137
  162DOPC  H10X19631   0.560   6.368  14.940  1.2889  0.8032 -0.7397
  162DOPC  C31119632   0.687   6.514  15.034 -0.4300  0.0146 -0.9405
  162DOPC  H11X19633   0.742   6.519  15.130 -1.2566  0.4471 -0.4777
  162DOPC  H11Y19634   0.628   6.608  15.024 -0.3813  0.3630  1.5520
  162DOPC  C31219635   0.790   6.536  14.912 -0.3962  0.4031  0.3387
  162DOPC  H12X19636   0.856   6.447  14.906 -1.5190 -0.5145  1.0296
  162DOPC  H12Y19637   0.844   6.628  14.943 -0.2047  0.4363 -0.0865
  162DOPC  C31319638   0.712   6.563  14.785  0.4512 -0.6441 -0.2531
  162DOPC  H13X19639   0.682   6.466  14.740  2.3143 -0.1668 -2.7693
  162DOPC  H13Y19640   0.618   6.615  14.813  0.4853 -0.8822  0.3199
  162DOPC  C31419641   0.779   6.646  14.678 -0.0181 -0.0611  0.0229
  162DOPC  H14X19642   0.705   6.662  14.597 -0.6746  0.5036  0.7202
  162DOPC  H14Y19643   0.806   6.747  14.716 -0.0755  0.2221 -0.6657
  162DOPC  C31519644   0.905   6.576  14.625  0.0176  0.1913  0.4406
  162DOPC  H15X19645   0.870   6.480  14.579  1.3623  0.1980 -0.6570
  162DOPC  H15Y19646   0.964   6.548  14.715 -0.2143  0.8288  0.7939
  162DOPC  C31619647   0.996   6.672  14.541 -0.1773  0.1117  0.1473
  162DOPC  H16X19648   1.027   6.751  14.612  0.8898 -0.8387  0.7750
  162DOPC  H16Y19649   1.087   6.618  14.509 -0.2691 -0.1439  0.3107
  162DOPC  C31719650   0.938   6.738  14.413  0.8802  0.2644 -0.5666
  162DOPC  H17X19651   0.914   6.654  14.344  0.3452 -0.9543  1.0273
  162DOPC  H17Y19652   0.843   6.787  14.443 -0.6740 -1.5522 -2.1903
  162DOPC  C31819653   1.019   6.863  14.360 -0.2504  1.0217 -0.0807
  162DOPC  H18X19654   1.126   6.832  14.354 -0.5837 -0.1340 -0.2694
  162DOPC  H18Y19655   0.978   6.903  14.265  0.9896  0.8868 -0.6968
  162DOPC  H18Z19656   1.006   6.944  14.435 -2.2229 -0.3561  1.1697
  163DOPC     N19657   6.613   4.173  17.205 -0.3577  0.8798 -0.2149
  163DOPC   C1219658   6.606   4.125  17.056 -0.0975 -0.5009  0.1947
  163DOPC  H12A19659   6.687   4.056  17.039  1.0295  1.2918 -2.2316
  163DOPC  H12B19660   6.628   4.206  16.989 -1.9925 -2.8125 -3.5516
  163DOPC   C1319661   6.570   4.060  17.292  0.1893 -0.4863 -0.1817
  163DOPC  H13A19662   6.462   4.051  17.291  0.0773  0.2473  1.5828
  163DOPC  H13B19663   6.622   3.975  17.250  1.0440 -0.3895  0.6551
  163DOPC  H13C19664   6.603   4.079  17.393 -0.8265  1.0100 -0.0858
  163DOPC   C1419665   6.519   4.285  17.228 -0.0944 -0.6724  0.4777
  163DOPC  H14A19666   6.506   4.322  17.329 -1.2991  1.1409 -0.2932
  163DOPC  H14B19667   6.540   4.374  17.171 -0.1117 -2.7808 -3.1750
  163DOPC  H14C19668   6.423   4.247  17.195  0.1121 -0.8324  0.0500
  163DOPC   C1519669   6.759   4.209  17.243 -0.0154 -0.1113  0.0568
  163DOPC  H15A19670   6.799   4.267  17.162  0.2538  2.7778  2.0769
  163DOPC  H15B19671   6.810   4.115  17.255 -0.7261 -0.4751  0.3023
  163DOPC  H15C19672   6.761   4.268  17.334  1.5094 -1.1217  0.7070
  163DOPC   C1119673   6.478   4.060  17.001 -0.2988 -0.2923 -0.8120
  163DOPC  H11A19674   6.499   4.016  16.901  0.0935  0.9549 -1.2983
  163DOPC  H11B19675   6.448   3.979  17.070  0.8296  2.2219  2.9489
  163DOPC     P19676   6.342   4.274  16.906  0.1682 -0.2735  0.0629
  163DOPC   O1319677   6.452   4.371  16.924  0.0544  0.1346  0.0942
  163DOPC   O1419678   6.208   4.324  16.922 -0.3149  0.1055  0.6292
  163DOPC   O1219679   6.366   4.146  16.999  0.0821  0.2971 -0.6419
  163DOPC   O1119680   6.358   4.211  16.759 -0.3742 -0.5366 -0.1792
  163DOPC    C119681   6.252   4.118  16.714  0.1919  0.5827 -0.0838
  163DOPC    HA19682   6.150   4.161  16.718 -0.2730 -0.5771  1.5907
  163DOPC    HB19683   6.250   4.020  16.766  0.4900 -0.1405 -1.3989
  163DOPC    C219684   6.269   4.077  16.564  0.0466  0.5011 -0.3839
  163DOPC    HS19685   6.168   4.038  16.537  0.1222  1.9284 -3.0491
  163DOPC   O2119686   6.370   3.981  16.543 -0.5928 -0.4755  0.5140
  163DOPC   C2119687   6.347   3.896  16.447 -0.2336 -0.1769  1.0362
  163DOPC   O2219688   6.235   3.874  16.390 -0.2214 -0.2089 -0.4782
  163DOPC   C2219689   6.484   3.848  16.400  0.1780  0.9886 -0.1299
  163DOPC   H2R19690   6.486   3.750  16.452  1.3282  1.8684  1.5671
  163DOPC   H2S19691   6.571   3.901  16.443  1.7531 -1.6387  0.1362
  163DOPC    C319692   6.289   4.206  16.482 -0.1771  0.3962  0.8006
  163DOPC    HX19693   6.392   4.237  16.511 -1.0586  2.0894  2.2821
  163DOPC    HY19694   6.216   4.287  16.503 -1.3057  0.4418 -2.7182
  163DOPC   O3119695   6.287   4.170  16.339  0.1397  0.2814  0.4824
  163DOPC   C3119696   6.169   4.165  16.277 -0.1116  0.0746 -0.1152
  163DOPC   O3219697   6.061   4.201  16.311  0.6225  0.1680 -0.0561
  163DOPC   C3219698   6.199   4.103  16.138  0.6221 -0.3560  0.5429
  163DOPC   H2X19699   6.259   4.010  16.150  1.1647 -0.1342 -0.3751
  163DOPC   H2Y19700   6.099   4.092  16.092  1.6469  1.2520 -2.3078
  163DOPC   C2319701   6.491   3.836  16.246  0.0601 -0.7039 -0.0469
  163DOPC   H3R19702   6.453   3.930  16.201 -0.3312 -0.1755  1.3388
  163DOPC   H3S19703   6.432   3.750  16.208 -0.2663 -0.2504 -0.5858
  163DOPC   C2419704   6.631   3.820  16.191  0.1035 -0.8853  1.1145
  163DOPC   H4R19705   6.665   3.714  16.195 -1.6259 -1.4846  1.1869
  163DOPC   H4S19706   6.692   3.871  16.269  0.9705 -1.2350  0.6734
  163DOPC   C2519707   6.640   3.874  16.050 -0.5938 -0.6316 -0.1825
  163DOPC   H5R19708   6.620   3.983  16.052 -0.8736 -0.5105 -3.4214
  163DOPC   H5S19709   6.563   3.838  15.979  0.0401  0.5910 -1.5434
  163DOPC   C2619710   6.777   3.857  15.979 -0.0221 -0.0379 -0.9101
  163DOPC   H6R19711   6.798   3.750  15.958 -1.2321 -0.4260 -0.1919
  163DOPC   H6S19712   6.858   3.891  16.047  0.3283  3.1715 -2.7177
  163DOPC   C2719713   6.792   3.933  15.845 -0.4695  0.0350 -0.2186
  163DOPC   H7R19714   6.902   3.936  15.828 -0.1054 -1.9722  1.3802
  163DOPC   H7S19715   6.758   4.038  15.862  0.6772  0.6235 -1.3667
  163DOPC   C2819716   6.708   3.866  15.735  0.3993  0.6444  0.8178
  163DOPC   H8R19717   6.606   3.849  15.778  0.2254 -0.2693  0.0907
  163DOPC   H8S19718   6.745   3.762  15.716 -2.3029 -0.3195  0.3419
  163DOPC   C2919719   6.691   3.942  15.602  0.0156 -0.6123  0.0222
  163DOPC   H9R19720   6.618   4.024  15.598  0.2211 -0.4799 -2.4510
  163DOPC  C21019721   6.762   3.920  15.488  0.0366 -0.1136 -0.5462
  163DOPC  H10R19722   6.745   3.986  15.401 -0.1662 -0.5086 -0.8073
  163DOPC  C21119723   6.860   3.808  15.462 -0.2551 -0.3802 -0.7999
  163DOPC  H11R19724   6.873   3.734  15.544 -1.8573  1.5934  1.3836
  163DOPC  H11S19725   6.961   3.848  15.438 -1.0731  3.6465  1.4692
  163DOPC  C21219726   6.813   3.729  15.334 -0.4904 -0.0957 -0.2949
  163DOPC  H12R19727   6.717   3.676  15.349 -1.8522  0.9793 -3.9372
  163DOPC  H12S19728   6.892   3.652  15.326  1.1866  1.0553  3.3646
  163DOPC  C21319729   6.809   3.801  15.198  0.4419 -0.3635 -0.0717
  163DOPC  H13R19730   6.875   3.891  15.204  2.9585 -2.1173 -0.1912
  163DOPC  H13S19731   6.704   3.832  15.174 -0.2638 -3.1823 -1.0006
  163DOPC  C21419732   6.850   3.715  15.074 -0.2919  0.1132 -0.5097
  163DOPC  H14R19733   6.787   3.624  15.081 -0.2077  0.1278  0.5649
  163DOPC  H14S19734   6.957   3.691  15.085 -0.6353 -1.5125 -0.4659
  163DOPC  C21519735   6.820   3.772  14.932  0.2853  0.2402  0.4612
  163DOPC  H15R19736   6.712   3.754  14.912  0.5841 -1.7756  0.4348
  163DOPC  H15S19737   6.886   3.712  14.865  0.4043  0.4959  0.3470
  163DOPC  C21619738   6.852   3.924  14.915  0.2068 -0.8691 -0.2430
  163DOPC  H16R19739   6.950   3.952  14.959  0.6348 -0.6840 -1.2804
  163DOPC  H16S19740   6.780   3.990  14.967 -0.5762 -0.1095 -2.1900
  163DOPC  C21719741   6.845   3.969  14.770  0.6866 -0.3428 -1.1101
  163DOPC  H17R19742   6.750   3.944  14.718  1.0925  0.6301 -2.3669
  163DOPC  H17S19743   6.927   3.912  14.722  0.6110 -0.9625 -0.5261
  163DOPC  C21819744   6.874   4.115  14.745  0.3693  0.5664 -0.0946
  163DOPC  H18R19745   6.876   4.145  14.638  0.1349  1.3295  0.1095
  163DOPC  H18S19746   6.978   4.137  14.777 -0.0671 -0.5134  2.3130
  163DOPC  H18T19747   6.811   4.184  14.805 -0.6902  0.5124 -1.1077
  163DOPC   C3319748   6.275   4.187  16.038  0.6190 -0.2855 -0.7305
  163DOPC   H3X19749   6.381   4.192  16.073  0.9194 -3.5917 -0.7826
  163DOPC   H3Y19750   6.237   4.291  16.036 -3.8189 -1.6786 -3.3361
  163DOPC   C3419751   6.275   4.138  15.895  0.8588 -0.2742  0.0224
  163DOPC   H4X19752   6.169   4.129  15.863  1.1530 -0.8299 -0.8126
  163DOPC   H4Y19753   6.316   4.035  15.897 -0.1396 -0.7424  3.3843
  163DOPC   C3519754   6.352   4.219  15.788  0.0275  0.1118 -0.3011
  163DOPC   H5X19755   6.462   4.207  15.800  0.0512  0.2400 -0.3924
  163DOPC   H5Y19756   6.323   4.326  15.800  0.2792  0.0840  0.6950
  163DOPC   C3619757   6.317   4.169  15.647  0.4585 -0.0241  0.2834
  163DOPC   H6X19758   6.335   4.060  15.653  0.8219 -0.0137 -0.4251
  163DOPC   H6Y19759   6.209   4.184  15.627  0.4666  0.9362  0.8987
  163DOPC   C3719760   6.405   4.258  15.551  0.3857 -0.4665 -0.4127
  163DOPC   H7X19761   6.403   4.367  15.572  0.2101 -0.4341 -0.5965
  163DOPC   H7Y19762   6.508   4.219  15.564  1.0067  1.3626  0.4848
  163DOPC   C3819763   6.375   4.229  15.405 -0.3989  0.6395  0.0075
  163DOPC   H8X19764   6.454   4.284  15.348  0.4571 -0.4601  0.1110
  163DOPC   H8Y19765   6.271   4.260  15.381 -0.5404  0.5746  0.5262
  163DOPC   C3919766   6.395   4.083  15.365 -0.0540 -0.2419 -0.3939
  163DOPC   H9X19767   6.358   4.015  15.444 -0.9675 -1.3152 -1.7095
  163DOPC  C31019768   6.456   4.027  15.265 -0.1149 -0.3656  0.3737
  163DOPC  H10X19769   6.457   3.917  15.261  0.2216 -0.5308  3.0429
  163DOPC  C31119770   6.522   4.094  15.155 -0.2005 -0.1025  0.4822
  163DOPC  H11X19771   6.626   4.057  15.151 -0.2148 -0.0854 -0.3681
  163DOPC  H11Y19772   6.526   4.205  15.163 -0.6824 -0.2226  4.8421
  163DOPC  C31219773   6.460   4.066  15.015 -0.7470  0.2691 -0.6964
  163DOPC  H12X19774   6.351   4.088  15.022 -0.6571  0.1990  1.6824
  163DOPC  H12Y19775   6.471   3.956  15.002 -0.0054  0.2513  0.0510
  163DOPC  C31319776   6.524   4.143  14.900 -0.2312  0.2484  0.3244
  163DOPC  H13X19777   6.486   4.246  14.916  1.7289  1.0994 -0.1752
  163DOPC  H13Y19778   6.631   4.134  14.929 -0.3285  1.8046  1.2763
  163DOPC  C31419779   6.501   4.083  14.769  0.0739  0.6008 -0.6105
  163DOPC  H14X19780   6.576   4.129  14.702  0.8919 -0.0321 -0.1554
  163DOPC  H14Y19781   6.516   3.974  14.781 -2.1476  0.4244  1.4641
  163DOPC  C31519782   6.354   4.103  14.723  0.3362  0.6615  0.0838
  163DOPC  H15X19783   6.332   4.203  14.681  3.2094  0.4625 -2.2790
  163DOPC  H15Y19784   6.279   4.088  14.803 -0.2986 -1.9942 -0.8771
  163DOPC  C31619785   6.314   3.998  14.615  1.1856 -0.4554 -0.4528
  163DOPC  H16X19786   6.353   4.037  14.518  1.4488 -1.3759 -0.7252
  163DOPC  H16Y19787   6.342   3.895  14.645 -0.0613 -1.0474 -1.2261
  163DOPC  C31719788   6.167   3.991  14.584  1.1523 -0.0552 -0.3532
  163DOPC  H17X19789   6.109   3.976  14.677 -0.5523 -1.4513 -1.5681
  163DOPC  H17Y19790   6.134   4.086  14.537 -2.1825 -1.2796 -0.7516
  163DOPC  C31819791   6.125   3.881  14.489  0.8708 -0.6301 -1.0159
  163DOPC  H18X19792   6.020   3.899  14.458  1.1086  2.6635 -0.2238
  163DOPC  H18Y19793   6.195   3.865  14.404  1.1713  3.7358 -1.8356
  163DOPC  H18Z19794   6.114   3.785  14.544 -0.9674  0.6585  1.0244
  164DOPC     N19795   0.988   2.845  17.341  0.0274 -0.1662 -0.2547
  164DOPC   C1219796   1.015   2.725  17.263 -0.7128  0.2955 -0.2554
  164DOPC  H12A19797   1.051   2.754  17.165  0.6735 -0.9014 -0.1396
  164DOPC  H12B19798   0.928   2.663  17.256 -0.9421  0.7727 -2.5835
  164DOPC   C1319799   0.925   2.825  17.476 -0.0239 -0.1542 -0.1152
  164DOPC  H13A19800   0.993   2.762  17.531 -0.6529 -1.6282 -0.9793
  164DOPC  H13B19801   0.923   2.919  17.530 -3.2439 -0.0318 -0.2668
  164DOPC  H13C19802   0.824   2.790  17.462  0.6156 -1.3448 -2.1534
  164DOPC   C1419803   0.887   2.921  17.260  0.8331  0.6059 -0.5340
  164DOPC  H14A19804   0.925   2.954  17.164 -0.1236 -0.1442 -1.1885
  164DOPC  H14B19805   0.803   2.855  17.242 -0.2804  2.0115 -0.6267
  164DOPC  H14C19806   0.843   3.005  17.311  0.2052  1.2534 -2.0973
  164DOPC   C1519807   1.104   2.945  17.342 -0.8589 -0.2778 -0.6765
  164DOPC  H15A19808   1.193   2.910  17.392  0.4892  3.6732  0.0222
  164DOPC  H15B19809   1.074   3.034  17.395  0.9435 -1.0232  1.7680
  164DOPC  H15C19810   1.139   2.961  17.241  1.7359  1.7670  0.4299
  164DOPC   C1119811   1.128   2.635  17.319 -0.4324  0.4656  0.1111
  164DOPC  H11A19812   1.223   2.692  17.328 -0.0601 -0.1187 -0.0797
  164DOPC  H11B19813   1.118   2.607  17.426 -1.0893 -0.2252 -0.1249
  164DOPC     P19814   1.067   2.389  17.265 -0.5420 -0.0920 -0.0580
  164DOPC   O1319815   0.976   2.403  17.383  0.2412  0.1636 -0.1991
  164DOPC   O1419816   1.166   2.281  17.266 -0.2259  0.1749  0.4217
  164DOPC   O1219817   1.141   2.521  17.233  0.0690  0.3022 -0.0583
  164DOPC   O1119818   0.976   2.367  17.142 -0.3644 -0.5751  0.4572
  164DOPC    C119819   0.958   2.468  17.045  0.8509 -0.1717  0.2695
  164DOPC    HA19820   1.050   2.523  17.019  0.4402  1.0103  1.1867
  164DOPC    HB19821   0.875   2.534  17.080 -0.0185 -2.2294  2.3986
  164DOPC    C219822   0.907   2.409  16.909  0.3718 -0.5209 -0.1105
  164DOPC    HS19823   0.824   2.338  16.927 -0.9141  1.1393  0.7676
  164DOPC   O2119824   1.031   2.350  16.852  0.5884 -0.0968  0.2772
  164DOPC   C2119825   1.004   2.263  16.760  0.1161 -0.4856  0.0781
  164DOPC   O2219826   0.900   2.206  16.738 -0.2198  0.1852  0.4568
  164DOPC   C2219827   1.146   2.234  16.694  0.0554  0.2705 -0.0010
  164DOPC   H2R19828   1.128   2.167  16.607  1.4992  1.3889 -1.2099
  164DOPC   H2S19829   1.187   2.165  16.771  0.8845 -1.8530 -2.2390
  164DOPC    C319830   0.841   2.512  16.812 -0.2132 -0.8366  0.1567
  164DOPC    HX19831   0.912   2.597  16.804 -1.3660  0.2501  1.0593
  164DOPC    HY19832   0.750   2.538  16.870  0.1579 -0.2142  0.4598
  164DOPC   O3119833   0.806   2.460  16.680  0.1385 -0.1736  0.0700
  164DOPC   C3119834   0.696   2.388  16.680 -0.4617 -0.5219  0.2716
  164DOPC   O3219835   0.623   2.369  16.771  0.4800  0.3881  0.6406
  164DOPC   C3219836   0.673   2.343  16.538  0.2273 -0.2590  0.3263
  164DOPC   H2X19837   0.752   2.267  16.520 -0.2588 -1.3268  2.3895
  164DOPC   H2Y19838   0.570   2.301  16.538 -0.5232  1.2775  3.2053
  164DOPC   C2319839   1.252   2.345  16.663 -0.1956 -0.2844 -0.4999
  164DOPC   H3R19840   1.354   2.299  16.659  0.1966  0.2103  2.0585
  164DOPC   H3S19841   1.263   2.407  16.754 -1.6342  0.5783 -0.8790
  164DOPC   C2419842   1.226   2.431  16.544  0.1035 -0.0919 -0.3065
  164DOPC   H4R19843   1.262   2.536  16.547 -1.1290  0.3322  0.3122
  164DOPC   H4S19844   1.115   2.444  16.546 -0.1272 -1.9296  0.9283
  164DOPC   C2519845   1.280   2.370  16.420 -0.3796 -0.2891  0.5180
  164DOPC   H5R19846   1.263   2.260  16.417 -0.9371 -0.2034 -2.1845
  164DOPC   H5S19847   1.391   2.382  16.416  0.0962 -3.8140 -1.3245
  164DOPC   C2619848   1.223   2.425  16.295  0.1679 -0.1298  0.1027
  164DOPC   H6R19849   1.239   2.534  16.303  0.3133  0.1687 -2.9708
  164DOPC   H6S19850   1.114   2.413  16.273  0.2432  0.4216 -0.6003
  164DOPC   C2719851   1.280   2.370  16.169  0.3388 -0.3684  0.5555
  164DOPC   H7R19852   1.254   2.266  16.139 -1.2734 -0.0172  0.6876
  164DOPC   H7S19853   1.389   2.372  16.192  1.0052  0.5118 -2.3167
  164DOPC   C2819854   1.262   2.466  16.047 -0.1918 -0.5473 -0.0403
  164DOPC   H8R19855   1.301   2.565  16.078 -0.9186 -0.1913 -0.2415
  164DOPC   H8S19856   1.156   2.470  16.017 -0.6713  1.6042  1.7001
  164DOPC   C2919857   1.339   2.411  15.929 -0.6220  0.3883  0.0501
  164DOPC   H9R19858   1.447   2.417  15.949 -1.1208  1.3817  2.9940
  164DOPC  C21019859   1.291   2.364  15.811  0.2803  0.2116 -0.5479
  164DOPC  H10R19860   1.370   2.337  15.740  1.1246  0.2206  0.3728
  164DOPC  C21119861   1.146   2.355  15.770  0.4033 -0.1729  0.0647
  164DOPC  H11R19862   1.067   2.410  15.826 -2.3277 -0.5069 -3.1913
  164DOPC  H11S19863   1.101   2.254  15.755  1.1820 -0.4945 -0.1620
  164DOPC  C21219864   1.141   2.426  15.633 -0.2268 -0.2127 -0.0506
  164DOPC  H12R19865   1.203   2.518  15.633  0.1288 -0.3777 -2.4788
  164DOPC  H12S19866   1.039   2.471  15.621  0.2588  0.9987  0.2377
  164DOPC  C21319867   1.168   2.323  15.526 -0.2231 -0.0484 -0.4278
  164DOPC  H13R19868   1.076   2.267  15.501  1.6600 -3.3273 -0.7137
  164DOPC  H13S19869   1.233   2.238  15.558 -1.9930 -0.4678  2.4839
  164DOPC  C21419870   1.219   2.374  15.386  0.5406 -0.1378 -0.2453
  164DOPC  H14R19871   1.152   2.461  15.370  1.7710  0.8294 -0.2104
  164DOPC  H14S19872   1.210   2.290  15.312 -0.1739 -1.6512  1.4780
  164DOPC  C21519873   1.361   2.431  15.386  0.0354  0.1905 -0.2523
  164DOPC  H15R19874   1.431   2.346  15.393 -0.1305  0.1628  1.7722
  164DOPC  H15S19875   1.380   2.489  15.479  0.1803  0.9468 -0.7419
  164DOPC  C21619876   1.391   2.520  15.260  0.0355 -0.3011  0.4026
  164DOPC  H16R19877   1.480   2.585  15.276  0.5086 -0.8239 -0.0568
  164DOPC  H16S19878   1.318   2.603  15.249 -0.9215 -0.8189  2.3441
  164DOPC  C21719879   1.424   2.444  15.128 -0.0010 -0.0633  0.5745
  164DOPC  H17R19880   1.327   2.395  15.107 -0.4795  1.1956 -0.2648
  164DOPC  H17S19881   1.501   2.364  15.141 -0.0283 -0.3727 -0.9458
  164DOPC  C21819882   1.468   2.529  15.007  0.0528  0.1532 -0.4149
  164DOPC  H18R19883   1.532   2.616  15.036  1.5830 -1.2337  0.5436
  164DOPC  H18S19884   1.379   2.583  14.970  0.3423  0.1903 -1.0603
  164DOPC  H18T19885   1.514   2.471  14.925  1.1693  0.3242  0.0540
  164DOPC   C3319886   0.687   2.457  16.441  0.2377  0.1291  0.6368
  164DOPC   H3X19887   0.794   2.489  16.437 -0.0094  0.9038 -0.1862
  164DOPC   H3Y19888   0.624   2.545  16.465 -0.4596 -0.1458 -0.1311
  164DOPC   C3419889   0.648   2.411  16.295  0.6932 -0.5235  0.4790
  164DOPC   H4X19890   0.545   2.371  16.314 -0.3898  1.5800 -0.6035
  164DOPC   H4Y19891   0.721   2.331  16.271  0.5794 -0.0647 -1.5819
  164DOPC   C3519892   0.665   2.524  16.187 -0.1497  0.0194  0.6569
  164DOPC   H5X19893   0.750   2.584  16.225 -0.8776 -0.6896  3.7041
  164DOPC   H5Y19894   0.571   2.584  16.188 -2.0659 -2.7442 -0.7277
  164DOPC   C3619895   0.688   2.468  16.038 -0.0610 -0.2764 -1.0825
  164DOPC   H6X19896   0.790   2.423  16.034  0.4712  0.8277 -0.6214
  164DOPC   H6Y19897   0.607   2.395  16.019  0.4370 -0.9499 -0.6542
  164DOPC   C3719898   0.685   2.591  15.933  0.1762  0.7116 -1.5775
  164DOPC   H7X19899   0.603   2.660  15.962 -0.9384 -1.8783  2.0432
  164DOPC   H7Y19900   0.770   2.651  15.973 -0.3374 -0.8607  2.3257
  164DOPC   C3819901   0.711   2.559  15.786 -0.1404  0.0388 -0.1133
  164DOPC   H8X19902   0.813   2.516  15.774  0.3395  0.7062  1.4301
  164DOPC   H8Y19903   0.720   2.654  15.728 -1.0748  1.5930  2.1632
  164DOPC   C3919904   0.595   2.470  15.735 -0.0775 -0.7466  0.0862
  164DOPC   H9X19905   0.503   2.464  15.795 -0.3875  1.9467 -0.0167
  164DOPC  C31019906   0.599   2.401  15.626  0.2364  0.1695  0.2006
  164DOPC  H10X19907   0.508   2.345  15.599  0.0238  0.7479 -0.2987
  164DOPC  C31119908   0.723   2.379  15.538 -0.2468  0.7238 -0.2782
  164DOPC  H11X19909   0.699   2.293  15.472 -2.2469  2.3068 -1.7663
  164DOPC  H11Y19910   0.813   2.349  15.595 -0.9417 -0.6024  0.1846
  164DOPC  C31219911   0.743   2.484  15.428  0.2378 -0.6166 -0.2662
  164DOPC  H12X19912   0.782   2.580  15.468  0.2280  0.6328 -3.0429
  164DOPC  H12Y19913   0.650   2.505  15.372  0.2052 -0.9770 -0.3520
  164DOPC  C31319914   0.844   2.433  15.313  0.4692  0.4236 -0.7173
  164DOPC  H13X19915   0.932   2.387  15.363 -1.1265 -0.7868  1.1329
  164DOPC  H13Y19916   0.792   2.349  15.262 -0.9787  1.1971 -0.5823
  164DOPC  C31419917   0.883   2.543  15.218  0.1285 -0.8081 -0.2544
  164DOPC  H14X19918   0.971   2.603  15.250 -0.1340  1.0732 -2.7099
  164DOPC  H14Y19919   0.795   2.610  15.211  0.1304 -0.4559  2.3581
  164DOPC  C31519920   0.904   2.502  15.073  0.7833 -0.0846  0.2037
  164DOPC  H15X19921   0.899   2.592  15.008  3.9791 -0.6322 -1.0144
  164DOPC  H15Y19922   0.823   2.431  15.045  0.0617  0.6797  0.3265
  164DOPC  C31619923   1.044   2.439  15.049 -0.4377  0.4178  0.2417
  164DOPC  H16X19924   1.130   2.509  15.049 -0.3074  0.2574  0.1367
  164DOPC  H16Y19925   1.061   2.367  15.132  3.6292  0.8630 -0.0115
  164DOPC  C31719926   1.058   2.363  14.911  0.1994  0.9485 -0.0031
  164DOPC  H17X19927   1.145   2.295  14.903 -2.2635 -2.3650 -1.2267
  164DOPC  H17Y19928   0.973   2.291  14.919  0.3304  1.0092  2.7429
  164DOPC  C31819929   1.045   2.441  14.785 -0.5257  0.0341 -0.4453
  164DOPC  H18X19930   1.139   2.500  14.771 -0.4450 -0.2321 -1.0603
  164DOPC  H18Y19931   1.046   2.365  14.704  0.4487 -2.6288  1.9084
  164DOPC  H18Z19932   0.956   2.506  14.795  0.6242  1.3618  2.5151
  165DOPC     N19933   4.046   0.196  16.804 -0.1542 -0.0046  0.0357
  165DOPC   C1219934   4.098   0.306  16.713 -0.0322  0.1340  0.0808
  165DOPC  H12A19935   4.121   0.263  16.617  3.3883  0.8279  0.4601
  165DOPC  H12B19936   4.190   0.353  16.744  0.5012 -1.3738  0.8613
  165DOPC   C1319937   3.907   0.154  16.762 -0.1989  0.1519 -0.5091
  165DOPC  H13A19938   3.836   0.235  16.769 -0.6142 -0.3577  1.8522
  165DOPC  H13B19939   3.924   0.124  16.659 -0.1360  0.7815 -0.6867
  165DOPC  H13C19940   3.870   0.061  16.802 -1.2856  1.6775  2.3153
  165DOPC   C1419941   4.039   0.255  16.939 -0.6979 -0.3176 -0.5775
  165DOPC  H14A19942   3.979   0.189  17.000 -1.0377  1.2794  0.9137
  165DOPC  H14B19943   4.138   0.261  16.983 -0.7232 -0.1194 -0.5480
  165DOPC  H14C19944   3.990   0.351  16.943  0.3515  0.2156  0.3979
  165DOPC   C1519945   4.127   0.070  16.798  0.1867  0.4064  0.4427
  165DOPC  H15A19946   4.226   0.078  16.841  0.3124  0.4036  0.1525
  165DOPC  H15B19947   4.140   0.031  16.698 -1.6900 -2.5847  1.2168
  165DOPC  H15C19948   4.084  -0.014  16.851  0.5886  1.5109  2.6590
  165DOPC   C1119949   3.999   0.423  16.689  0.1502  0.3814 -0.3665
  165DOPC  H11A19950   4.026   0.461  16.588 -0.3926 -0.5578 -0.8845
  165DOPC  H11B19951   3.893   0.389  16.689 -0.0302  0.8399  1.2548
  165DOPC     P19952   4.137   0.611  16.794 -0.4334  0.1105  0.0477
  165DOPC   O1319953   4.222   0.541  16.894 -0.1207  0.3399  0.4743
  165DOPC   O1419954   4.100   0.751  16.822 -0.0094  0.1514 -0.7954
  165DOPC   O1219955   4.006   0.525  16.794  0.5088  0.1249  0.2789
  165DOPC   O1119956   4.187   0.594  16.640  0.0654 -0.4333  0.6069
  165DOPC    C119957   4.305   0.663  16.592 -0.6363 -0.1696 -0.6917
  165DOPC    HA19958   4.385   0.667  16.669 -1.2436  0.2076 -0.0724
  165DOPC    HB19959   4.279   0.770  16.575 -1.9964 -0.5094 -0.8670
  165DOPC    C219960   4.365   0.605  16.459 -0.4311 -0.0303  0.4018
  165DOPC    HS19961   4.421   0.511  16.480 -1.4130 -0.8358 -0.4666
  165DOPC   O2119962   4.448   0.709  16.405  0.3666 -0.4535  0.1463
  165DOPC   C2119963   4.555   0.683  16.328  0.1109  0.8840  0.2869
  165DOPC   O2219964   4.597   0.567  16.312 -0.4119  0.1376 -0.5419
  165DOPC   C2219965   4.610   0.815  16.282  0.3343  1.1156  0.4238
  165DOPC   H2R19966   4.641   0.866  16.376  1.2688  0.7587  0.3183
  165DOPC   H2S19967   4.530   0.876  16.236 -0.2359 -1.3039 -2.0237
  165DOPC    C319968   4.252   0.577  16.357  0.4459  0.7442 -0.6008
  165DOPC    HX19969   4.204   0.675  16.334  2.0613  1.7903  0.2960
  165DOPC    HY19970   4.176   0.512  16.405  0.5428 -0.7861 -2.3920
  165DOPC   O3119971   4.296   0.527  16.232 -0.0361 -0.2682  0.9011
  165DOPC   C3119972   4.340   0.399  16.236 -0.3097 -0.6266 -0.5744
  165DOPC   O3219973   4.335   0.327  16.332 -0.3604  0.5359 -0.4161
  165DOPC   C3219974   4.414   0.359  16.110 -0.2050  0.2074 -1.0299
  165DOPC   H2X19975   4.348   0.332  16.025 -2.2150  2.1389 -0.1749
  165DOPC   H2Y19976   4.464   0.449  16.069  0.1982 -0.8368 -2.9427
  165DOPC   C2319977   4.739   0.808  16.194  0.1960 -0.9792 -0.4101
  165DOPC   H3R19978   4.797   0.718  16.224 -1.9585 -1.4304  2.9199
  165DOPC   H3S19979   4.802   0.900  16.202  2.0103 -2.1353 -0.6459
  165DOPC   C2419980   4.709   0.787  16.045  1.0207 -0.6716  0.8417
  165DOPC   H4R19981   4.643   0.698  16.038 -0.4031  0.2166  2.1909
  165DOPC   H4S19982   4.807   0.779  15.994  1.0176  2.2985  0.1761
  165DOPC   C2519983   4.647   0.912  15.977 -0.8261  0.2425 -0.7082
  165DOPC   H5R19984   4.717   0.998  15.981 -0.1884 -0.1013 -3.2396
  165DOPC   H5S19985   4.560   0.954  16.033 -2.7022 -2.5267 -1.3564
  165DOPC   C2619986   4.599   0.879  15.833 -0.9870  0.7803  0.5705
  165DOPC   H6R19987   4.512   0.946  15.820 -2.0959 -0.3815  1.6696
  165DOPC   H6S19988   4.556   0.777  15.821 -3.0423  1.7688 -1.1896
  165DOPC   C2719989   4.705   0.894  15.717  0.1906  0.3474  0.5937
  165DOPC   H7R19990   4.782   0.815  15.713  1.1925  1.1626  2.4575
  165DOPC   H7S19991   4.766   0.984  15.737  0.7881 -0.3497  2.0155
  165DOPC   C2819992   4.632   0.905  15.582  0.0431 -0.1704 -0.2247
  165DOPC   H8R19993   4.574   1.000  15.590 -0.6965 -0.6974  0.9631
  165DOPC   H8S19994   4.566   0.818  15.563  0.4856 -0.1951 -1.7606
  165DOPC   C2919995   4.719   0.926  15.464  0.0294 -0.6773  0.2195
  165DOPC   H9R19996   4.823   0.959  15.478  0.0921 -0.2114 -1.1814
  165DOPC  C21019997   4.686   0.906  15.335 -0.1435  0.3230 -0.1189
  165DOPC  H10R19998   4.764   0.917  15.258 -0.7885 -0.4096 -0.8927
  165DOPC  C21119999   4.547   0.873  15.278 -0.1617  0.4095 -0.2430
  165DOPC  H11R20000   4.470   0.902  15.353 -0.3820 -3.2128  1.1036
  165DOPC  H11S20001   4.536   0.765  15.258 -2.3170  0.6493 -0.6382
  165DOPC  C21220002   4.526   0.937  15.139  0.4085 -0.2443  0.9319
  165DOPC  H12R20003   4.518   1.047  15.156 -3.8070 -0.3097  0.4640
  165DOPC  H12S20004   4.423   0.909  15.109  0.5774  0.8059 -0.7665
  165DOPC  C21320005   4.626   0.896  15.036 -0.3834  0.6664 -0.1602
  165DOPC  H13R20006   4.612   0.792  14.999 -0.2452  0.7612 -0.4822
  165DOPC  H13S20007   4.732   0.907  15.069 -0.7805  1.8348  0.8026
  165DOPC  C21420008   4.618   0.986  14.909  0.2622 -0.5027 -0.2293
  165DOPC  H14R20009   4.643   1.093  14.927 -1.5468 -0.1241  0.1997
  165DOPC  H14S20010   4.518   0.965  14.866  1.1575 -1.5899 -1.8933
  165DOPC  C21520011   4.701   0.927  14.797  0.8638  0.2843  0.0935
  165DOPC  H15R20012   4.799   0.883  14.826  1.0687  1.1296  0.7241
  165DOPC  H15S20013   4.735   1.007  14.729 -1.2254  0.3313 -0.9861
  165DOPC  C21620014   4.625   0.822  14.718 -0.6953 -0.1564  0.4530
  165DOPC  H16R20015   4.534   0.869  14.675  0.5376  1.6940 -0.2642
  165DOPC  H16S20016   4.583   0.737  14.777 -1.1327 -0.0644  0.2782
  165DOPC  C21720017   4.700   0.774  14.593  0.3800  1.2627  0.0465
  165DOPC  H17R20018   4.714   0.868  14.536  0.3177  0.6556 -0.9943
  165DOPC  H17S20019   4.639   0.717  14.521  2.6498  0.3010 -1.2099
  165DOPC  C21820020   4.828   0.688  14.619 -0.3815 -0.1537  0.1711
  165DOPC  H18R20021   4.814   0.580  14.635 -0.4572 -0.0192  1.0238
  165DOPC  H18S20022   4.874   0.721  14.714  1.3379  0.3093 -0.7777
  165DOPC  H18T20023   4.906   0.694  14.540  1.1627  0.3980  1.6906
  165DOPC   C3320024   4.523   0.248  16.139 -0.3437 -0.4525  0.8169
  165DOPC   H3X20025   4.490   0.142  16.138 -0.6953 -0.3428  0.3759
  165DOPC   H3Y20026   4.567   0.265  16.239  0.1050 -1.0654  0.7318
  165DOPC   C3420027   4.643   0.274  16.051  0.4797 -0.4422  0.2922
  165DOPC   H4X20028   4.700   0.362  16.087  1.1405 -1.0256  0.7164
  165DOPC   H4Y20029   4.601   0.292  15.950  1.9299  2.8841  0.1821
  165DOPC   C3520030   4.737   0.153  16.044  0.4737 -0.1908  0.3696
  165DOPC   H5X20031   4.677   0.059  16.045  0.3760 -0.1959 -1.6045
  165DOPC   H5Y20032   4.808   0.145  16.128  0.4404 -2.4334  0.2536
  165DOPC   C3620033   4.820   0.139  15.911  0.0890  0.4026  0.0872
  165DOPC   H6X20034   4.872   0.233  15.884  2.3890 -0.6750  0.4963
  165DOPC   H6Y20035   4.900   0.065  15.935  0.2070  0.2242 -0.8072
  165DOPC   C3720036   4.734   0.074  15.804 -0.2212  0.4237  0.1307
  165DOPC   H7X20037   4.668   0.148  15.754 -1.8133 -1.2966 -0.4374
  165DOPC   H7Y20038   4.667  -0.005  15.846 -0.7510 -0.0876 -1.5836
  165DOPC   C3820039   4.814  -0.005  15.692 -0.2581 -0.5421 -0.3870
  165DOPC   H8X20040   4.895  -0.065  15.738  1.3056 -1.0301 -3.4903
  165DOPC   H8Y20041   4.870   0.080  15.646  1.4307 -0.3999  1.7559
  165DOPC   C3920042   4.736  -0.087  15.597  0.2918  0.8954 -0.9528
  165DOPC   H9X20043   4.662  -0.152  15.646  2.0099 -0.8141 -0.5166
  165DOPC  C31020044   4.734  -0.074  15.465  0.4352 -0.9253 -0.7988
  165DOPC  H10X20045   4.674  -0.145  15.407  0.5491 -1.5261 -0.1872
  165DOPC  C31120046   4.822   0.020  15.380 -0.3198  0.7886 -0.0743
  165DOPC  H11X20047   4.851  -0.031  15.286 -0.3361  0.4903  0.0817
  165DOPC  H11Y20048   4.915   0.047  15.434  0.1473  0.4005 -0.6774
  165DOPC  C31220049   4.755   0.153  15.344  0.2766 -0.2803  0.2182
  165DOPC  H12X20050   4.682   0.138  15.261 -2.4643 -0.0170  2.4320
  165DOPC  H12Y20051   4.840   0.219  15.318  1.2022 -1.8914 -1.0191
  165DOPC  C31320052   4.681   0.227  15.458  0.2755  0.1993  0.3359
  165DOPC  H13X20053   4.595   0.159  15.477  0.4148  0.0164  0.3230
  165DOPC  H13Y20054   4.745   0.244  15.547 -0.4249 -0.0393  0.8996
  165DOPC  C31420055   4.621   0.360  15.420 -0.7863 -0.2054 -0.0378
  165DOPC  H14X20056   4.705   0.422  15.381  0.2568 -0.5326  1.5975
  165DOPC  H14Y20057   4.541   0.359  15.343  0.6054 -0.8062 -1.5447
  165DOPC  C31520058   4.566   0.433  15.542  0.2136 -0.1322 -0.5723
  165DOPC  H15X20059   4.562   0.538  15.506  0.4928  0.9354  2.2419
  165DOPC  H15Y20060   4.637   0.424  15.627 -0.3819 -0.7014 -0.1232
  165DOPC  C31620061   4.431   0.384  15.593 -0.3425  0.2246 -0.2687
  165DOPC  H16X20062   4.364   0.376  15.504 -1.2340 -2.5331  0.5473
  165DOPC  H16Y20063   4.448   0.285  15.639  0.9229 -0.0359 -1.2634
  165DOPC  C31720064   4.359   0.476  15.685  0.3291  0.1633 -0.6863
  165DOPC  H17X20065   4.422   0.505  15.771  0.3078  0.2416 -0.6970
  165DOPC  H17Y20066   4.345   0.569  15.626  2.0406  1.5540  1.0058
  165DOPC  C31820067   4.234   0.413  15.748  0.2323  0.2896  0.1757
  165DOPC  H18X20068   4.144   0.434  15.685  0.6383 -0.5896 -0.7242
  165DOPC  H18Y20069   4.250   0.304  15.760  1.1137  0.1951 -1.5169
  165DOPC  H18Z20070   4.217   0.461  15.847  1.1122 -0.2949  0.6184
  166DOPC     N20071   5.243   3.459  17.144  0.3990  0.3119 -0.0964
  166DOPC   C1220072   5.271   3.345  17.246 -0.4487 -0.0240 -0.0023
  166DOPC  H12A20073   5.189   3.344  17.316 -1.9811 -0.4914 -1.7056
  166DOPC  H12B20074   5.366   3.357  17.296  1.0361 -1.0126 -2.3794
  166DOPC   C1320075   5.106   3.455  17.090  0.3494 -0.1529 -0.1295
  166DOPC  H13A20076   5.028   3.444  17.164 -0.2026 -2.1468 -0.9128
  166DOPC  H13B20077   5.084   3.542  17.030  0.0038  1.9185  2.8132
  166DOPC  H13C20078   5.095   3.370  17.023  1.2333 -0.1452 -0.3002
  166DOPC   C1420079   5.341   3.460  17.031  0.1616  0.0957 -0.7431
  166DOPC  H14A20080   5.315   3.544  16.969  0.6375  1.0673  0.3436
  166DOPC  H14B20081   5.442   3.471  17.066  0.1474 -0.2483 -0.5872
  166DOPC  H14C20082   5.339   3.361  16.987 -0.9601 -1.4632  2.4704
  166DOPC   C1520083   5.252   3.588  17.217 -0.8143 -0.5659  0.4305
  166DOPC  H15A20084   5.353   3.594  17.255 -0.3966 -1.0866 -0.5719
  166DOPC  H15B20085   5.179   3.588  17.297 -4.6683  1.2252 -2.7364
  166DOPC  H15C20086   5.219   3.668  17.152  1.0087 -1.2643 -1.4762
  166DOPC   C1120087   5.264   3.200  17.194 -0.0584  1.1019  0.0601
  166DOPC  H11A20088   5.270   3.135  17.284  2.1812 -1.3940 -1.7554
  166DOPC  H11B20089   5.165   3.181  17.146 -0.0092 -1.6587  0.8934
  166DOPC     P20090   5.511   3.128  17.161 -0.1804  0.1616 -0.0529
  166DOPC   O1320091   5.489   3.035  17.272 -0.7898 -0.1602 -0.0845
  166DOPC   O1420092   5.592   3.251  17.197  0.1495  0.8523  0.0201
  166DOPC   O1220093   5.364   3.168  17.095 -0.0985 -0.3269 -0.7610
  166DOPC   O1120094   5.583   3.049  17.044  0.1525  0.0249  0.7092
  166DOPC    C120095   5.713   3.079  17.009 -0.5753 -0.6918 -0.1228
  166DOPC    HA20096   5.767   2.991  16.967 -1.4166 -0.0897 -2.6212
  166DOPC    HB20097   5.769   3.103  17.102 -1.2776 -1.3045  0.4686
  166DOPC    C220098   5.727   3.185  16.897  0.0388  0.6606 -0.1062
  166DOPC    HS20099   5.701   3.280  16.949  1.4347  0.1164  1.7171
  166DOPC   O2120100   5.646   3.161  16.778  0.1808  0.2613 -0.2041
  166DOPC   C2120101   5.545   3.243  16.758 -0.7589  0.7625  0.3204
  166DOPC   O2220102   5.521   3.341  16.827 -0.1236  0.1335 -0.4256
  166DOPC   C2220103   5.464   3.199  16.640 -0.0457  0.9170 -0.2657
  166DOPC   H2R20104   5.370   3.258  16.649  0.1222  1.1891 -0.2561
  166DOPC   H2S20105   5.464   3.089  16.629  0.1725  0.9590 -0.7134
  166DOPC    C320106   5.873   3.212  16.853  0.8817 -1.0572 -0.1264
  166DOPC    HX20107   5.914   3.120  16.807 -1.3045 -2.2610  0.1709
  166DOPC    HY20108   5.936   3.218  16.945  0.0054 -1.1407  0.4969
  166DOPC   O3120109   5.893   3.328  16.773  0.1398 -0.1530  0.0127
  166DOPC   C3120110   6.025   3.343  16.751 -0.5135  0.1033  0.0335
  166DOPC   O3220111   6.107   3.257  16.767  0.1673  0.9116 -0.5799
  166DOPC   C3220112   6.040   3.479  16.678 -0.1903  0.0782 -0.5533
  166DOPC   H2X20113   5.948   3.538  16.694 -0.0789  0.0562  0.1780
  166DOPC   H2Y20114   6.128   3.533  16.719  0.0344  0.0246 -0.9481
  166DOPC   C2320115   5.537   3.253  16.506  0.1678  0.1616  0.3010
  166DOPC   H3R20116   5.616   3.327  16.532  2.1377 -1.7000 -0.0511
  166DOPC   H3S20117   5.459   3.287  16.435  0.4266 -0.8163 -0.4665
  166DOPC   C2420118   5.604   3.132  16.436  0.0051  0.2624 -0.1949
  166DOPC   H4R20119   5.531   3.053  16.409 -0.0617 -1.1941  3.6077
  166DOPC   H4S20120   5.675   3.081  16.505 -0.9438  0.7549  1.1961
  166DOPC   C2520121   5.684   3.164  16.313 -0.1668 -0.0695 -0.4962
  166DOPC   H5R20122   5.768   3.092  16.307 -0.6190 -0.6393  0.0206
  166DOPC   H5S20123   5.732   3.265  16.317  2.4546 -1.1476 -1.9906
  166DOPC   C2620124   5.606   3.141  16.182 -0.5396 -0.5191 -0.6180
  166DOPC   H6R20125   5.523   3.215  16.186 -0.4739 -0.4819  2.1191
  166DOPC   H6S20126   5.568   3.036  16.187 -0.5843 -0.4716  0.3495
  166DOPC   C2720127   5.707   3.156  16.078 -0.3696  0.3816  0.1451
  166DOPC   H7R20128   5.680   3.080  16.001 -1.3019  1.2531 -0.4049
  166DOPC   H7S20129   5.814   3.138  16.100 -0.2709  1.0623  0.2210
  166DOPC   C2820130   5.692   3.293  16.004  0.2295 -0.1110 -0.3443
  166DOPC   H8R20131   5.730   3.374  16.070  2.1703 -1.8590  0.8020
  166DOPC   H8S20132   5.583   3.298  15.985 -0.1087 -4.4333 -0.4678
  166DOPC   C2920133   5.779   3.291  15.879 -0.0787 -0.1204  0.1880
  166DOPC   H9R20134   5.886   3.307  15.898 -0.0943  0.4797 -0.1967
  166DOPC  C21020135   5.738   3.279  15.751 -0.3382  0.2800  0.3658
  166DOPC  H10R20136   5.819   3.275  15.677  2.3478  0.9586  3.0919
  166DOPC  C21120137   5.599   3.261  15.699 -0.2936  0.2327  0.2085
  166DOPC  H11R20138   5.576   3.336  15.621 -1.8363 -0.1946  0.2285
  166DOPC  H11S20139   5.532   3.269  15.787 -0.9526 -3.3495  0.2000
  166DOPC  C21220140   5.580   3.122  15.630  0.4218 -0.1180 -0.0531
  166DOPC  H12R20141   5.469   3.116  15.631  0.2534  1.9614 -0.9168
  166DOPC  H12S20142   5.620   3.044  15.699 -0.2424  0.3443  0.8724
  166DOPC  C21320143   5.643   3.108  15.488 -0.8530 -0.2342 -0.1615
  166DOPC  H13R20144   5.637   3.006  15.442  0.5824 -1.0821  1.4453
  166DOPC  H13S20145   5.752   3.126  15.485 -0.8206 -0.4998 -1.2952
  166DOPC  C21420146   5.598   3.208  15.377 -0.4954  0.3309 -0.4191
  166DOPC  H14R20147   5.631   3.309  15.410  0.2818 -0.4693  1.4056
  166DOPC  H14S20148   5.490   3.187  15.362 -0.5553  0.3150  0.0124
  166DOPC  C21520149   5.655   3.162  15.242 -0.5318 -0.2776 -0.2518
  166DOPC  H15R20150   5.640   3.053  15.226 -0.7243 -0.4240  0.8417
  166DOPC  H15S20151   5.765   3.172  15.242 -0.5463  0.1983 -1.8067
  166DOPC  C21620152   5.599   3.244  15.127 -0.0152 -0.2939  0.0452
  166DOPC  H16R20153   5.624   3.352  15.130 -1.3728  0.0361 -0.1350
  166DOPC  H16S20154   5.489   3.249  15.143  0.0684 -1.5151  1.1620
  166DOPC  C21720155   5.614   3.174  14.993  0.0296  0.7304 -0.2762
  166DOPC  H17R20156   5.576   3.071  15.006 -0.0400  0.3982 -2.6047
  166DOPC  H17S20157   5.720   3.168  14.961  0.0062  0.1100 -0.2452
  166DOPC  C21820158   5.543   3.256  14.880  0.1493  0.1998  0.1088
  166DOPC  H18R20159   5.569   3.221  14.778  0.9897  1.4882 -0.1406
  166DOPC  H18S20160   5.586   3.358  14.878 -0.7288  0.5814 -1.8413
  166DOPC  H18T20161   5.433   3.270  14.877  0.3236  1.5890 -0.1797
  166DOPC   C3320162   6.042   3.463  16.520  0.4332  0.3490 -0.1592
  166DOPC   H3X20163   6.077   3.361  16.493 -1.5791 -0.4710  0.1330
  166DOPC   H3Y20164   6.124   3.534  16.494  1.4101 -0.8605 -0.5034
  166DOPC   C3420165   5.911   3.499  16.451 -0.0753  0.2740  0.2058
  166DOPC   H4X20166   5.881   3.600  16.485 -0.8112  0.6996 -1.6033
  166DOPC   H4Y20167   5.826   3.432  16.479  0.6201 -0.0966  1.5564
  166DOPC   C3520168   5.919   3.487  16.303  0.6646  0.0730 -0.1956
  166DOPC   H5X20169   5.819   3.496  16.254  1.4583 -0.2204 -1.9426
  166DOPC   H5Y20170   5.969   3.394  16.269 -0.1869 -1.1140  1.6509
  166DOPC   C3620171   6.002   3.609  16.240 -0.2266 -0.6243 -0.5415
  166DOPC   H6X20172   5.981   3.705  16.291 -1.7842 -0.6977 -1.0086
  166DOPC   H6Y20173   6.111   3.589  16.252 -0.0743  0.9275  0.9328
  166DOPC   C3720174   5.989   3.620  16.092  0.2712 -0.2448 -0.4743
  166DOPC   H7X20175   6.014   3.529  16.033 -0.1072 -0.2684 -0.6027
  166DOPC   H7Y20176   5.880   3.638  16.079  0.3319 -0.7884 -1.8389
  166DOPC   C3820177   6.070   3.742  16.027  0.0952 -0.2262  0.0139
  166DOPC   H8X20178   6.042   3.836  16.079 -2.4942 -0.1526 -1.3438
  166DOPC   H8Y20179   6.025   3.760  15.927 -0.6413  1.3973  0.5987
  166DOPC   C3920180   6.220   3.717  16.025  0.2224 -0.3196 -0.0366
  166DOPC   H9X20181   6.274   3.687  16.116  0.4014 -0.2338 -0.1119
  166DOPC  C31020182   6.287   3.726  15.905 -0.8188 -0.6810 -0.1623
  166DOPC  H10X20183   6.395   3.705  15.907 -0.3064  1.4305  2.8103
  166DOPC  C31120184   6.221   3.764  15.771  0.1805  0.2771 -0.0167
  166DOPC  H11X20185   6.157   3.853  15.787 -0.2364 -0.1551  0.8197
  166DOPC  H11Y20186   6.142   3.692  15.741  0.5488  0.4008 -1.3179
  166DOPC  C31220187   6.319   3.772  15.653 -0.4146 -0.3551  0.3058
  166DOPC  H12X20188   6.389   3.852  15.686  0.1468 -0.5288 -0.4337
  166DOPC  H12Y20189   6.277   3.798  15.554 -0.4962  0.7907  0.6319
  166DOPC  C31320190   6.393   3.643  15.619 -0.5024 -0.2824  0.0023
  166DOPC  H13X20191   6.468   3.619  15.697 -0.1775 -2.1781 -0.8365
  166DOPC  H13Y20192   6.324   3.556  15.615 -1.7034  0.6339  0.3509
  166DOPC  C31420193   6.455   3.645  15.477 -0.0511  0.3759 -0.4557
  166DOPC  H14X20194   6.498   3.747  15.463 -0.3277  1.3604  4.2490
  166DOPC  H14Y20195   6.543   3.576  15.471 -0.1687  0.2092 -0.2822
  166DOPC  C31520196   6.357   3.602  15.367  0.3873  1.1856  0.0249
  166DOPC  H15X20197   6.286   3.684  15.344  1.0070  1.3478 -1.4612
  166DOPC  H15Y20198   6.299   3.510  15.388  0.0553  1.5825  0.8632
  166DOPC  C31620199   6.435   3.562  15.235  0.0416 -0.5112  0.3704
  166DOPC  H16X20200   6.522   3.630  15.217 -2.0665  2.0418 -0.8820
  166DOPC  H16Y20201   6.483   3.463  15.250 -1.5182 -1.2546  0.6956
  166DOPC  C31720202   6.345   3.560  15.110  0.1546  0.0283  0.0787
  166DOPC  H17X20203   6.244   3.514  15.121  0.5325 -1.1581 -1.1466
  166DOPC  H17Y20204   6.334   3.670  15.107 -1.1086 -0.0613  0.7847
  166DOPC  C31820205   6.409   3.494  14.977 -0.6262 -0.3602  0.1690
  166DOPC  H18X20206   6.510   3.536  14.958  0.2094 -2.6964 -0.8701
  166DOPC  H18Y20207   6.425   3.384  14.978  0.1511 -0.2673 -0.7612
  166DOPC  H18Z20208   6.340   3.499  14.891 -1.9406 -1.3739  1.1329
  167DOPC     N20209   6.248   3.489  17.317 -0.3057  0.1369  0.4540
  167DOPC   C1220210   6.345   3.376  17.275 -0.5066  0.2601  0.1008
  167DOPC  H12A20211   6.367   3.313  17.360  0.7132  2.1170  1.2302
  167DOPC  H12B20212   6.432   3.435  17.251 -0.3330 -0.1256 -0.2213
  167DOPC   C1320213   6.190   3.567  17.204  0.4171 -0.1762 -0.1391
  167DOPC  H13A20214   6.121   3.646  17.229 -1.4083 -1.1143 -1.9508
  167DOPC  H13B20215   6.270   3.609  17.144  1.1558 -1.2045  0.0969
  167DOPC  H13C20216   6.127   3.501  17.146  1.3149  0.3921 -1.8416
  167DOPC   C1420217   6.322   3.588  17.403  0.8329 -0.5585  0.4617
  167DOPC  H14A20218   6.261   3.677  17.400 -0.4443 -1.3999 -1.7073
  167DOPC  H14B20219   6.338   3.552  17.503  1.2966 -2.9485 -0.3958
  167DOPC  H14C20220   6.419   3.611  17.361 -0.4377  1.1207 -1.7916
  167DOPC   C1520221   6.139   3.433  17.395  0.5061 -0.0471 -0.4059
  167DOPC  H15A20222   6.166   3.404  17.495  0.1790  1.6631  0.2173
  167DOPC  H15B20223   6.096   3.347  17.345  2.1893 -1.4068  0.4025
  167DOPC  H15C20224   6.065   3.510  17.412 -0.3798 -1.2973  1.6781
  167DOPC   C1120225   6.304   3.284  17.163  0.6277  0.2848  0.7099
  167DOPC  H11A20226   6.292   3.346  17.071  1.0836  0.3524  0.6954
  167DOPC  H11B20227   6.388   3.218  17.133  0.7662  0.4074  0.8265
  167DOPC     P20228   6.200   3.068  17.238  0.1160  0.2996  0.3137
  167DOPC   O1320229   6.072   3.020  17.291 -0.5755  0.7497  0.1163
  167DOPC   O1420230   6.313   3.067  17.335 -0.2939  0.7924  0.4149
  167DOPC   O1220231   6.178   3.213  17.183 -0.0109  0.1361 -0.3050
  167DOPC   O1120232   6.229   2.983  17.110 -0.8052 -0.0512  0.2188
  167DOPC    C120233   6.173   3.017  16.978  0.3672  0.0832  0.3409
  167DOPC    HA20234   6.232   3.095  16.925 -1.7419  1.8233  0.3945
  167DOPC    HB20235   6.070   3.058  16.993  0.0527 -0.2843 -0.7125
  167DOPC    C220236   6.167   2.887  16.886 -0.0859  0.4097 -0.4526
  167DOPC    HS20237   6.268   2.840  16.890 -0.3632 -0.3622 -1.8994
  167DOPC   O2120238   6.132   2.927  16.751  0.0972  0.5999 -0.2033
  167DOPC   C2120239   6.231   2.973  16.667 -0.2466  0.4075 -0.4608
  167DOPC   O2220240   6.345   3.001  16.711 -0.5981 -0.1808  0.2163
  167DOPC   C2220241   6.176   2.988  16.527 -0.4262 -0.7490 -0.0414
  167DOPC   H2R20242   6.074   3.026  16.548 -0.3475 -1.2019  1.2323
  167DOPC   H2S20243   6.162   2.892  16.474  1.2487 -1.2210  0.2990
  167DOPC    C320244   6.065   2.792  16.951  0.1843  0.0354  0.0206
  167DOPC    HX20245   5.981   2.844  17.002 -0.1237 -1.5738  1.2070
  167DOPC    HY20246   6.118   2.745  17.036 -2.2032  0.9930  2.1824
  167DOPC   O3120247   6.032   2.690  16.852  0.1045  0.1062 -0.1934
  167DOPC   C3120248   5.913   2.690  16.811  0.1680 -0.8273 -0.2841
  167DOPC   O3220249   5.816   2.745  16.867 -0.3339  0.0775  0.4103
  167DOPC   C3220250   5.902   2.629  16.673 -0.4958  0.0607 -0.1284
  167DOPC   H2X20251   5.995   2.574  16.646  0.0774  0.6322  0.5958
  167DOPC   H2Y20252   5.818   2.556  16.672 -0.8773  0.3961 -3.7312
  167DOPC   C2320253   6.242   3.095  16.436  0.5579 -0.1620  0.3305
  167DOPC   H3R20254   6.338   3.062  16.391 -0.8368 -1.6418 -1.7800
  167DOPC   H3S20255   6.262   3.197  16.475 -1.5735 -0.6059  2.8740
  167DOPC   C2420256   6.159   3.119  16.309  0.1167  0.6610 -0.4269
  167DOPC   H4R20257   6.059   3.160  16.336  0.6609  1.1554  0.9359
  167DOPC   H4S20258   6.140   3.014  16.279  1.7200 -0.3806  1.9112
  167DOPC   C2520259   6.224   3.209  16.212 -0.4702 -0.0872  0.7471
  167DOPC   H5R20260   6.329   3.174  16.197 -0.7757 -1.3837  1.4866
  167DOPC   H5S20261   6.233   3.307  16.264  0.9040  0.0836  0.2215
  167DOPC   C2620262   6.155   3.222  16.079  0.5421 -0.2542  0.0571
  167DOPC   H6R20263   6.086   3.309  16.076 -0.2402 -0.8735 -2.2269
  167DOPC   H6S20264   6.101   3.128  16.053  0.1306 -0.5290  1.8296
  167DOPC   C2720265   6.255   3.239  15.971  0.1219  0.2395 -0.2699
  167DOPC   H7R20266   6.317   3.148  15.979 -0.3971 -0.2894 -1.8763
  167DOPC   H7S20267   6.314   3.332  15.984 -1.1191  1.1922 -1.1651
  167DOPC   C2820268   6.185   3.230  15.828 -0.1415  0.2477 -0.2907
  167DOPC   H8R20269   6.103   3.305  15.824 -1.1830 -0.8699 -0.8277
  167DOPC   H8S20270   6.149   3.126  15.809  1.8800 -0.5627  0.1151
  167DOPC   C2920271   6.287   3.277  15.725  0.5000  0.0325 -0.4212
  167DOPC   H9R20272   6.347   3.365  15.752 -1.1943  0.6926  1.4647
  167DOPC  C21020273   6.298   3.223  15.605  0.4242 -1.0201  0.0441
  167DOPC  H10R20274   6.382   3.245  15.537 -0.9252 -0.6739 -1.5516
  167DOPC  C21120275   6.211   3.109  15.553 -0.1205 -0.1001 -0.5863
  167DOPC  H11R20276   6.118   3.100  15.612 -0.1139 -4.3057 -0.8979
  167DOPC  H11S20277   6.260   3.010  15.568  1.4905  0.9869  1.8931
  167DOPC  C21220278   6.184   3.119  15.410  0.1055 -0.0317 -0.3882
  167DOPC  H12R20279   6.268   3.162  15.351  0.8029  1.0528  1.3095
  167DOPC  H12S20280   6.186   3.011  15.386 -0.6220 -0.3886  1.1022
  167DOPC  C21320281   6.054   3.171  15.371  0.7573  0.0270  0.3278
  167DOPC  H13R20282   5.972   3.136  15.437 -0.6001  1.4656 -0.5206
  167DOPC  H13S20283   6.031   3.139  15.267 -0.3274 -0.3848  0.6803
  167DOPC  C21420284   6.060   3.324  15.365  0.6386  0.1792 -0.1457
  167DOPC  H14R20285   6.112   3.368  15.277 -0.2812  0.8477 -0.3814
  167DOPC  H14S20286   6.116   3.366  15.451  1.8642 -1.0847 -0.2999
  167DOPC  C21520287   5.924   3.390  15.367 -0.1904 -0.8311 -0.5489
  167DOPC  H15R20288   5.867   3.339  15.448  0.4660 -2.7584 -1.2396
  167DOPC  H15S20289   5.859   3.387  15.277 -1.6858  1.3585  0.3679
  167DOPC  C21620290   5.937   3.541  15.386  0.3050 -0.2128 -0.1057
  167DOPC  H16R20291   5.847   3.580  15.334  0.7056  2.0316  0.7688
  167DOPC  H16S20292   6.022   3.583  15.328 -0.6175  0.1863 -1.1879
  167DOPC  C21720293   5.952   3.575  15.533 -0.1579 -0.2040 -0.4301
  167DOPC  H17R20294   5.985   3.681  15.532 -0.6614 -0.0387  0.0035
  167DOPC  H17S20295   6.037   3.522  15.579  2.2345  1.7463 -2.3120
  167DOPC  C21820296   5.828   3.576  15.621  0.3018  0.0899  0.0439
  167DOPC  H18R20297   5.752   3.655  15.601 -1.2107 -2.0462 -3.6550
  167DOPC  H18S20298   5.863   3.584  15.726  2.1548  3.7139 -0.7044
  167DOPC  H18T20299   5.767   3.487  15.594 -1.8517  1.4532  0.1209
  167DOPC   C3320300   5.861   2.730  16.565  0.2972 -0.7658 -0.1831
  167DOPC   H3X20301   5.942   2.805  16.568  1.4695 -2.0298  1.6062
  167DOPC   H3Y20302   5.766   2.779  16.594  1.5325  1.5198  0.1848
  167DOPC   C3420303   5.852   2.681  16.428  0.0678 -0.1823  0.1114
  167DOPC   H4X20304   5.765   2.614  16.415 -0.3588  0.3090  0.4280
  167DOPC   H4Y20305   5.935   2.608  16.413 -0.1915 -0.4452 -0.0689
  167DOPC   C3520306   5.851   2.789  16.321 -0.2749  0.6221  0.0324
  167DOPC   H5X20307   5.936   2.860  16.336  1.0604 -0.8273 -0.3748
  167DOPC   H5Y20308   5.755   2.844  16.328  0.2790  1.8699 -1.4671
  167DOPC   C3620309   5.872   2.734  16.182  0.2235 -0.6863  0.2055
  167DOPC   H6X20310   5.967   2.680  16.198  0.3323 -0.4441  0.3810
  167DOPC   H6Y20311   5.791   2.667  16.146 -1.7907  1.7417 -0.0590
  167DOPC   C3720312   5.892   2.833  16.067 -0.0529  0.1806  0.0003
  167DOPC   H7X20313   5.790   2.876  16.054 -1.7459 -1.4930  5.2972
  167DOPC   H7Y20314   5.963   2.910  16.104  1.2948 -1.1138  0.2256
  167DOPC   C3820315   5.951   2.764  15.937  0.1941 -0.0249 -0.6676
  167DOPC   H8X20316   5.875   2.687  15.909 -2.1486  1.0080  2.2956
  167DOPC   H8Y20317   6.037   2.707  15.978 -0.5237  1.2604  3.0543
  167DOPC   C3920318   5.983   2.859  15.825 -0.4553  0.1545  0.3372
  167DOPC   H9X20319   6.032   2.952  15.855  2.0885 -0.7583 -0.7103
  167DOPC  C31020320   5.974   2.832  15.690 -0.2067 -0.3442 -0.4820
  167DOPC  H10X20321   6.001   2.907  15.614  1.4248 -0.1105  0.3002
  167DOPC  C31120322   5.932   2.707  15.616 -0.7860 -0.0893  0.2487
  167DOPC  H11X20323   5.894   2.631  15.688  0.1988 -1.1450 -0.3098
  167DOPC  H11Y20324   6.021   2.666  15.564 -2.0418 -2.3933 -0.2216
  167DOPC  C31220325   5.823   2.718  15.515 -0.2925  0.0357  0.5431
  167DOPC  H12X20326   5.735   2.779  15.544  0.0868  1.9184 -1.9292
  167DOPC  H12Y20327   5.786   2.616  15.491 -1.5755  0.2940  1.3026
  167DOPC  C31320328   5.881   2.771  15.384 -0.1184 -0.0171 -0.3550
  167DOPC  H13X20329   5.921   2.875  15.393  2.5777 -0.8557 -1.5758
  167DOPC  H13Y20330   5.964   2.700  15.365  1.7027  2.5357 -2.8251
  167DOPC  C31420331   5.790   2.756  15.271  0.0206  0.8026 -0.3238
  167DOPC  H14X20332   5.751   2.652  15.279  1.3586  0.2936 -0.1288
  167DOPC  H14Y20333   5.701   2.821  15.286 -1.3245 -1.3427  1.7848
  167DOPC  C31520334   5.871   2.756  15.136  0.8302 -0.5608  0.1406
  167DOPC  H15X20335   5.804   2.735  15.050 -0.2184  0.8405  0.5649
  167DOPC  H15Y20336   5.951   2.679  15.133 -0.7934 -2.3152 -2.6050
  167DOPC  C31620337   5.932   2.893  15.115 -1.1322  0.0544  0.2209
  167DOPC  H16X20338   5.859   2.977  15.120 -0.8081  0.5622 -2.2792
  167DOPC  H16Y20339   6.011   2.902  15.192 -0.9328 -1.4489  0.2110
  167DOPC  C31720340   6.008   2.911  14.984 -0.4725 -0.4856  1.1102
  167DOPC  H17X20341   6.059   3.010  14.982 -0.3354 -0.5476  1.4688
  167DOPC  H17Y20342   6.085   2.831  14.980  0.7481  0.7132 -0.7592
  167DOPC  C31820343   5.919   2.891  14.863 -0.0581 -0.6291  0.7728
  167DOPC  H18X20344   5.834   2.961  14.877  0.5316  0.6747 -1.5387
  167DOPC  H18Y20345   5.967   2.924  14.768  0.2991  3.9804  2.3092
  167DOPC  H18Z20346   5.888   2.785  14.858 -0.2067 -0.6345  1.6029
  168DOPC     N20347   1.252   1.707  17.061  0.1887 -0.4731 -0.3566
  168DOPC   C1220348   1.311   1.594  17.150 -0.7943 -0.6050 -0.1595
  168DOPC  H12A20349   1.246   1.509  17.158  2.8310 -3.5386  1.1502
  168DOPC  H12B20350   1.331   1.629  17.250  1.8797  0.7339 -1.0378
  168DOPC   C1320351   1.360   1.809  17.028  0.0308 -0.2164  0.3958
  168DOPC  H13A20352   1.312   1.886  16.969 -1.0727 -1.0094  0.2048
  168DOPC  H13B20353   1.399   1.845  17.121 -0.6101 -0.3036  0.7056
  168DOPC  H13C20354   1.439   1.775  16.963  0.7633  1.6734  0.2588
  168DOPC   C1420355   1.151   1.786  17.142 -0.5116 -0.5827 -0.5529
  168DOPC  H14A20356   1.076   1.719  17.180  0.6986 -1.3464  0.5816
  168DOPC  H14B20357   1.195   1.828  17.231 -1.4191 -2.6011  0.9378
  168DOPC  H14C20358   1.113   1.868  17.084 -2.7123 -0.9769  0.2271
  168DOPC   C1520359   1.187   1.653  16.939 -0.0082 -0.8186 -0.5015
  168DOPC  H15A20360   1.140   1.724  16.873 -2.2120 -0.5894  1.1714
  168DOPC  H15B20361   1.106   1.589  16.972 -0.3938  0.7582  1.8487
  168DOPC  H15C20362   1.263   1.591  16.893  0.7266 -2.8060  2.9516
  168DOPC   C1120363   1.439   1.525  17.100 -0.2642  0.6247  0.1773
  168DOPC  H11A20364   1.521   1.597  17.079 -0.2130  0.7848  0.9021
  168DOPC  H11B20365   1.474   1.465  17.186  1.2637 -0.7397 -1.3017
  168DOPC     P20366   1.340   1.306  16.989 -0.0801 -0.0220 -0.0965
  168DOPC   O1320367   1.213   1.317  17.069 -0.1766  0.2620 -0.8174
  168DOPC   O1420368   1.438   1.207  17.036 -0.3415 -0.1839 -0.3753
  168DOPC   O1220369   1.421   1.443  16.980 -0.4456  0.8559 -0.3578
  168DOPC   O1120370   1.311   1.273  16.840  0.2791  0.0205  0.2030
  168DOPC    C120371   1.414   1.299  16.749 -0.4216 -0.6627  0.5211
  168DOPC    HA20372   1.483   1.212  16.746  1.1660  0.5738 -0.5353
  168DOPC    HB20373   1.477   1.389  16.765 -0.8525 -0.2229 -0.1525
  168DOPC    C220374   1.358   1.333  16.605  0.1962  0.1927  0.1875
  168DOPC    HS20375   1.295   1.424  16.618 -0.4222 -0.4024  1.6545
  168DOPC   O2120376   1.285   1.227  16.552  0.1596 -0.5513  0.7048
  168DOPC   C2120377   1.171   1.261  16.486  0.6923 -0.3289  0.0469
  168DOPC   O2220378   1.129   1.369  16.460  0.6000  0.0714 -0.2356
  168DOPC   C2220379   1.112   1.141  16.435 -0.1158  0.2658 -0.4432
  168DOPC   H2R20380   1.003   1.160  16.448  0.1747  1.1293  0.9627
  168DOPC   H2S20381   1.148   1.057  16.498  0.5776  1.5738  0.9934
  168DOPC    C320382   1.473   1.358  16.509 -0.3558 -0.7503 -0.1695
  168DOPC    HX20383   1.540   1.269  16.512  2.0430  0.8951 -1.7849
  168DOPC    HY20384   1.542   1.434  16.549  0.9433 -2.7964  1.7296
  168DOPC   O3120385   1.432   1.391  16.374 -0.2847  0.0928 -0.0860
  168DOPC   C3120386   1.530   1.383  16.286 -0.1935  0.2645 -0.1750
  168DOPC   O3220387   1.645   1.368  16.318 -0.4497 -0.1032  0.1306
  168DOPC   C3220388   1.490   1.398  16.137  1.0590 -0.2895  0.2532
  168DOPC   H2X20389   1.429   1.310  16.111 -0.9111  1.2563 -0.6356
  168DOPC   H2Y20390   1.436   1.495  16.134 -0.5749 -1.1373  0.8997
  168DOPC   C2320391   1.152   1.108  16.292  0.2266 -0.0831 -0.2362
  168DOPC   H3R20392   1.123   1.001  16.287  2.5577 -0.9667  2.4269
  168DOPC   H3S20393   1.262   1.120  16.276  0.3932  3.0052  2.1539
  168DOPC   C2420394   1.078   1.185  16.183  0.4268 -0.1888 -0.7087
  168DOPC   H4R20395   1.119   1.287  16.193  0.2776 -0.0603 -1.3624
  168DOPC   H4S20396   0.973   1.195  16.217  0.8547 -0.9893  1.0064
  168DOPC   C2520397   1.110   1.137  16.039 -0.1470  0.1507  1.0484
  168DOPC   H5R20398   1.050   1.045  16.023  0.5916 -0.2616  0.6013
  168DOPC   H5S20399   1.217   1.107  16.031 -0.8586 -1.9968 -1.5687
  168DOPC   C2620400   1.095   1.248  15.934  0.2001  0.1236 -0.0969
  168DOPC   H6R20401   1.120   1.344  15.982  1.5594 -0.3722  0.2307
  168DOPC   H6S20402   0.992   1.249  15.891 -0.4141  1.5677  1.3023
  168DOPC   C2720403   1.198   1.232  15.819 -0.4161 -0.0320 -0.5028
  168DOPC   H7R20404   1.201   1.129  15.777  0.3459 -1.0668  1.9113
  168DOPC   H7S20405   1.300   1.263  15.851 -1.8365  1.8541  2.7766
  168DOPC   C2820406   1.182   1.334  15.705  0.3849 -0.0591 -0.0293
  168DOPC   H8R20407   1.181   1.430  15.761  1.2024 -0.3534  0.5116
  168DOPC   H8S20408   1.082   1.328  15.657 -0.1300 -1.1255  1.1250
  168DOPC   C2920409   1.292   1.320  15.601 -0.4424  0.8012  0.6156
  168DOPC   H9R20410   1.376   1.255  15.631  1.3504  3.2444  1.2310
  168DOPC  C21020411   1.295   1.392  15.488  0.2808  0.1035  0.0468
  168DOPC  H10R20412   1.370   1.357  15.416  1.3340 -1.7658  1.9377
  168DOPC  C21120413   1.200   1.497  15.436  0.3962 -0.9177 -0.4489
  168DOPC  H11R20414   1.255   1.587  15.403  1.8250 -1.6807 -0.2107
  168DOPC  H11S20415   1.127   1.526  15.515  0.1954 -0.5379 -0.7716
  168DOPC  C21220416   1.115   1.444  15.318  0.2120 -0.3032 -0.2838
  168DOPC  H12R20417   1.071   1.345  15.344  1.1356 -0.5980  0.1695
  168DOPC  H12S20418   1.184   1.422  15.234  1.3431 -2.6540  1.1593
  168DOPC  C21320419   1.014   1.545  15.260  0.0146  0.1567  0.0320
  168DOPC  H13R20420   1.040   1.645  15.300  1.6750 -0.2759  0.1084
  168DOPC  H13S20421   0.919   1.516  15.309  0.1940 -0.6740 -0.0989
  168DOPC  C21420422   1.026   1.565  15.104 -0.6873  0.5951 -0.2666
  168DOPC  H14R20423   1.005   1.464  15.064 -0.9644  0.2828  0.6560
  168DOPC  H14S20424   1.130   1.579  15.068 -0.8546 -0.9930 -1.4391
  168DOPC  C21520425   0.943   1.677  15.044 -0.3188 -0.4389 -0.0820
  168DOPC  H15R20426   0.954   1.767  15.108 -1.1590  0.3454 -1.0242
  168DOPC  H15S20427   0.834   1.658  15.048 -0.9953  2.5837 -1.8250
  168DOPC  C21620428   0.993   1.701  14.896 -0.2973  0.0657 -0.0184
  168DOPC  H16R20429   0.981   1.601  14.848  1.0731  0.4732 -1.2659
  168DOPC  H16S20430   1.103   1.716  14.898 -0.1564 -0.8574 -0.4096
  168DOPC  C21720431   0.912   1.809  14.815 -0.3906 -0.0714 -0.4959
  168DOPC  H17R20432   0.944   1.908  14.854  0.4899 -0.4130 -0.3245
  168DOPC  H17S20433   0.805   1.797  14.843  0.3304 -1.7734  1.8014
  168DOPC  C21820434   0.938   1.798  14.661 -0.5332  0.5574  0.1627
  168DOPC  H18R20435   1.045   1.774  14.649 -0.6522  0.0705  0.0630
  168DOPC  H18S20436   0.906   1.886  14.601  0.8126  1.6790  1.0171
  168DOPC  H18T20437   0.882   1.711  14.620  1.2192 -2.1019  3.0068
  168DOPC   C3320438   1.613   1.388  16.040 -0.2918  0.4334  0.1170
  168DOPC   H3X20439   1.670   1.298  16.069 -0.6594  0.1561 -0.0166
  168DOPC   H3Y20440   1.690   1.469  16.047 -0.5436  0.9131 -1.9044
  168DOPC   C3420441   1.565   1.385  15.896 -0.5010  0.6135 -1.0778
  168DOPC   H4X20442   1.494   1.469  15.882  0.1649  1.3040 -0.4470
  168DOPC   H4Y20443   1.528   1.284  15.870 -1.0145  0.1293  1.2940
  168DOPC   C3520444   1.683   1.420  15.811 -0.0280 -0.4036  0.8424
  168DOPC   H5X20445   1.777   1.364  15.829  1.0030  0.5846 -1.1141
  168DOPC   H5Y20446   1.706   1.523  15.846 -0.6450 -0.8537  2.6457
  168DOPC   C3620447   1.646   1.425  15.661  0.6914 -0.1363 -0.7064
  168DOPC   H6X20448   1.604   1.324  15.641  0.5372 -0.3282  0.5357
  168DOPC   H6Y20449   1.557   1.491  15.655 -0.1858 -1.2895 -0.6762
  168DOPC   C3720450   1.758   1.466  15.561 -0.0398 -0.0417  0.1433
  168DOPC   H7X20451   1.780   1.574  15.577  0.7476 -0.6431  4.1283
  168DOPC   H7Y20452   1.853   1.420  15.595 -0.3274  0.2517  1.4210
  168DOPC   C3820453   1.719   1.442  15.416  0.2730  0.4727 -0.2382
  168DOPC   H8X20454   1.698   1.333  15.411  0.5266  0.3065  1.5039
  168DOPC   H8Y20455   1.812   1.463  15.359 -0.2909 -1.6794 -2.1098
  168DOPC   C3920456   1.606   1.523  15.367  0.9220 -0.4274  0.7161
  168DOPC   H9X20457   1.554   1.590  15.437 -0.7791 -0.8132 -0.1230
  168DOPC  C31020458   1.557   1.518  15.243 -0.2728  0.3346  0.2512
  168DOPC  H10X20459   1.467   1.576  15.218  0.7308  1.1130 -1.7870
  168DOPC  C31120460   1.604   1.422  15.136 -0.4503  0.2853 -0.3766
  168DOPC  H11X20461   1.522   1.370  15.083 -2.2229 -1.5032  3.6485
  168DOPC  H11Y20462   1.659   1.341  15.188 -1.7145 -0.9453 -0.8741
  168DOPC  C31220463   1.699   1.499  15.046 -0.8765 -0.2276  0.5360
  168DOPC  H12X20464   1.766   1.573  15.096 -2.0109  1.4605 -0.3149
  168DOPC  H12Y20465   1.627   1.556  14.983 -1.2520 -2.4203 -1.1350
  168DOPC  C31320466   1.796   1.413  14.964  0.1770 -0.3300  0.6770
  168DOPC  H13X20467   1.898   1.453  14.950 -0.2436  1.0502  1.3462
  168DOPC  H13Y20468   1.806   1.329  15.036 -1.4122 -0.7702  0.4260
  168DOPC  C31420469   1.740   1.366  14.829  0.4696  0.4573  0.5191
  168DOPC  H14X20470   1.655   1.295  14.838  0.0132  0.9718  0.3028
  168DOPC  H14Y20471   1.698   1.452  14.772 -1.9024 -0.3036  1.0275
  168DOPC  C31520472   1.845   1.295  14.744  0.9138 -0.0558  0.6406
  168DOPC  H15X20473   1.925   1.365  14.714  0.8520 -1.2640 -2.6841
  168DOPC  H15Y20474   1.796   1.276  14.646 -1.6815  2.8098  1.1969
  168DOPC  C31620475   1.896   1.159  14.800 -0.5201 -0.1651  0.4190
  168DOPC  H16X20476   1.958   1.199  14.883 -1.6420  0.3452  1.0324
  168DOPC  H16Y20477   1.817   1.092  14.840 -1.3686 -0.6330 -1.8967
  168DOPC  C31720478   1.984   1.081  14.698 -0.3128  0.3527 -0.2246
  168DOPC  H17X20479   1.919   1.069  14.609  0.1995  1.4742 -0.7659
  168DOPC  H17Y20480   2.063   1.152  14.664 -0.1293 -1.1610 -3.2481
  168DOPC  C31820481   2.041   0.945  14.747 -1.3448 -0.2171 -0.1880
  168DOPC  H18X20482   1.961   0.892  14.804  1.5783 -2.3381  2.2949
  168DOPC  H18Y20483   2.064   0.882  14.658  1.4024  2.4085 -1.4924
  168DOPC  H18Z20484   2.131   0.953  14.811 -1.7122 -0.9742  0.4414
  169DOPC     N20485   0.477   1.798  17.619 -0.4302  0.7010 -0.4224
  169DOPC   C1220486   0.611   1.868  17.640 -0.4448  0.2861 -0.1915
  169DOPC  H12A20487   0.691   1.796  17.625  0.0191  0.8184 -0.3162
  169DOPC  H12B20488   0.619   1.898  17.744 -3.4041 -1.2405  0.5832
  169DOPC   C1320489   0.363   1.889  17.607  0.4373 -0.1386 -0.7435
  169DOPC  H13A20490   0.327   1.914  17.705  3.0498 -1.0846  0.5442
  169DOPC  H13B20491   0.393   1.980  17.556 -0.2370 -0.8232 -2.4522
  169DOPC  H13C20492   0.276   1.848  17.558  0.0836  0.1713 -0.3834
  169DOPC   C1420493   0.462   1.702  17.735 -0.4474  0.5233  0.3805
  169DOPC  H14A20494   0.363   1.657  17.733 -1.1705  2.0573 -0.3546
  169DOPC  H14B20495   0.534   1.622  17.726  0.3496  1.3928 -1.4461
  169DOPC  H14C20496   0.475   1.753  17.829  0.0303  0.8546  0.1350
  169DOPC   C1520497   0.486   1.717  17.489  0.2548  0.1145 -0.8563
  169DOPC  H15A20498   0.560   1.638  17.488  1.2876  1.0520 -1.7261
  169DOPC  H15B20499   0.515   1.782  17.407  1.0568  0.7131 -0.1212
  169DOPC  H15C20500   0.392   1.672  17.463  0.3257  0.4926 -1.8341
  169DOPC   C1120501   0.641   1.988  17.549  0.5398  0.7106  0.2194
  169DOPC  H11A20502   0.751   2.004  17.540  0.6763  0.8055  1.8035
  169DOPC  H11B20503   0.615   1.969  17.443  4.0186 -0.0966 -0.6032
  169DOPC     P20504   0.528   2.220  17.521 -0.0689  0.3122 -0.3089
  169DOPC   O1320505   0.606   2.339  17.556  0.0726  0.3086  0.1966
  169DOPC   O1420506   0.380   2.228  17.529 -0.7077  0.5147 -0.6469
  169DOPC   O1220507   0.581   2.101  17.611  0.1876 -0.0787  0.5334
  169DOPC   O1120508   0.565   2.183  17.378  0.7262  0.3154  0.8052
  169DOPC    C120509   0.659   2.270  17.311 -0.4030 -0.1379  0.2879
  169DOPC    HA20510   0.761   2.257  17.353 -0.0383  0.1440 -0.4987
  169DOPC    HB20511   0.634   2.378  17.311  0.0663 -0.0250 -0.0478
  169DOPC    C220512   0.666   2.228  17.156 -0.5760 -0.0820 -0.2846
  169DOPC    HS20513   0.757   2.280  17.121  0.8038 -2.0650  0.1801
  169DOPC   O2120514   0.548   2.264  17.082  0.0980 -0.4176 -0.1048
  169DOPC   C2120515   0.537   2.390  17.064  0.1324  0.0292  0.7724
  169DOPC   O2220516   0.618   2.477  17.103 -0.3803 -0.0521  0.3581
  169DOPC   C2220517   0.412   2.424  16.985 -0.1641 -1.2889  0.7512
  169DOPC   H2R20518   0.322   2.393  17.042 -0.1805 -1.8962  0.4131
  169DOPC   H2S20519   0.414   2.353  16.899 -1.9579 -0.2131 -0.2372
  169DOPC    C320520   0.696   2.075  17.138  0.6080  0.0682 -0.0321
  169DOPC    HX20521   0.611   2.012  17.172  0.0565 -1.3523 -3.5562
  169DOPC    HY20522   0.789   2.058  17.196 -0.3967 -2.0182  1.0379
  169DOPC   O3120523   0.724   2.048  17.003  0.1088 -0.2589  0.3395
  169DOPC   C3120524   0.779   1.929  16.975 -0.0578 -0.2039 -0.2378
  169DOPC   O3220525   0.799   1.843  17.056 -0.3039  0.2551 -0.0626
  169DOPC   C3220526   0.816   1.921  16.828 -0.1266 -0.7073  0.5747
  169DOPC   H2X20527   0.737   1.977  16.773  1.3760  0.9571 -0.0052
  169DOPC   H2Y20528   0.914   1.974  16.829  1.2569 -3.0012 -1.6881
  169DOPC   C2320529   0.406   2.568  16.931 -0.1253  0.0113 -0.2071
  169DOPC   H3R20530   0.509   2.595  16.900 -0.3541 -1.2969 -2.3269
  169DOPC   H3S20531   0.381   2.630  17.019 -0.7068  0.2107 -0.5041
  169DOPC   C2420532   0.304   2.601  16.819 -1.1308  1.3941 -1.0440
  169DOPC   H4R20533   0.275   2.708  16.819 -2.9690  0.9728  0.5755
  169DOPC   H4S20534   0.210   2.553  16.855 -0.4199  0.4341 -0.4150
  169DOPC   C2520535   0.359   2.535  16.693 -0.4605 -0.5712 -0.0416
  169DOPC   H5R20536   0.370   2.426  16.711  1.8626 -0.0900  1.8880
  169DOPC   H5S20537   0.457   2.580  16.666 -1.2654  1.4265  0.1886
  169DOPC   C2620538   0.256   2.551  16.575 -0.0651  0.3003  0.6768
  169DOPC   H6R20539   0.230   2.657  16.553 -0.8015  0.3450  1.7185
  169DOPC   H6S20540   0.163   2.503  16.611  1.6346 -2.6782  1.4251
  169DOPC   C2720541   0.317   2.482  16.451 -0.2191  0.0715  0.8082
  169DOPC   H7R20542   0.358   2.383  16.481  2.6579  1.2041  0.8988
  169DOPC   H7S20543   0.398   2.549  16.417  0.4039 -1.6590 -1.3189
  169DOPC   C2820544   0.218   2.450  16.343 -0.3008 -0.8849 -0.3824
  169DOPC   H8R20545   0.131   2.409  16.399  1.0434 -1.2473  1.5647
  169DOPC   H8S20546   0.253   2.381  16.264 -0.7032 -0.0618 -1.2991
  169DOPC   C2920547   0.190   2.583  16.273 -0.3222 -0.2537 -0.0647
  169DOPC   H9R20548   0.133   2.661  16.324 -0.8864 -0.9856  0.4352
  169DOPC  C21020549   0.213   2.606  16.140  0.0348  0.7596 -0.1937
  169DOPC  H10R20550   0.198   2.708  16.100  2.6813  0.7683 -1.4016
  169DOPC  C21120551   0.277   2.506  16.041 -0.2305  0.0366 -0.5392
  169DOPC  H11R20552   0.314   2.408  16.079  0.8878  0.3451 -0.7908
  169DOPC  H11S20553   0.369   2.560  16.011 -1.8680  2.1872 -2.0789
  169DOPC  C21220554   0.200   2.486  15.906  0.6635 -0.3067  0.2231
  169DOPC  H12R20555   0.096   2.468  15.939  0.3933  1.6591  0.6062
  169DOPC  H12S20556   0.234   2.399  15.846 -0.0820 -0.2520 -0.2947
  169DOPC  C21320557   0.206   2.622  15.825  0.3153  0.2336  0.1637
  169DOPC  H13R20558   0.310   2.659  15.830  0.4434 -0.2962  1.8725
  169DOPC  H13S20559   0.137   2.700  15.865  1.2660  1.5410 -0.6770
  169DOPC  C21420560   0.137   2.614  15.686  0.5517 -0.2345 -0.4972
  169DOPC  H14R20561   0.087   2.707  15.653 -0.3937 -0.8446 -0.8119
  169DOPC  H14S20562   0.048   2.550  15.706 -1.4993  2.6862  0.4244
  169DOPC  C21520563   0.235   2.572  15.576 -0.0646  0.1963 -0.6906
  169DOPC  H15R20564   0.274   2.470  15.595  0.1840  0.2210 -1.0549
  169DOPC  H15S20565   0.324   2.638  15.585  0.4795 -0.7409  1.4746
  169DOPC  C21620566   0.180   2.548  15.428  0.1613 -0.2552 -0.0705
  169DOPC  H16R20567   0.127   2.641  15.399 -2.3236 -1.2753  0.9134
  169DOPC  H16S20568   0.105   2.466  15.430 -0.0538 -0.0465  0.7214
  169DOPC  C21720569   0.287   2.513  15.328  0.1610  0.8069  0.4724
  169DOPC  H17R20570   0.350   2.429  15.365 -0.3579  0.8875  1.5721
  169DOPC  H17S20571   0.366   2.591  15.320  0.7452  0.3150  1.3169
  169DOPC  C21820572   0.233   2.474  15.196  0.3894  0.7490 -0.0789
  169DOPC  H18R20573   0.180   2.377  15.204 -0.7564  1.2405 -1.3177
  169DOPC  H18S20574   0.320   2.462  15.127  0.7825  0.6559  0.4311
  169DOPC  H18T20575   0.164   2.555  15.164  0.1280  0.5541 -0.0136
  169DOPC   C3320576   0.835   1.779  16.775  0.2190 -0.0945  0.0989
  169DOPC   H3X20577   0.741   1.720  16.786 -0.0984  0.1146 -1.2871
  169DOPC   H3Y20578   0.916   1.734  16.836 -1.1354  0.2631  2.2483
  169DOPC   C3420579   0.873   1.774  16.626  0.3983  0.0919  0.0713
  169DOPC   H4X20580   0.876   1.671  16.586 -0.3923  0.1928 -0.2565
  169DOPC   H4Y20581   0.977   1.814  16.619  0.2474  0.4040 -0.4380
  169DOPC   C3520582   0.788   1.862  16.534 -0.6028  0.3334  0.1221
  169DOPC   H5X20583   0.809   1.968  16.560  1.4269 -0.2143  0.8853
  169DOPC   H5Y20584   0.680   1.837  16.533 -0.3895 -0.7040 -1.8534
  169DOPC   C3620585   0.835   1.849  16.385 -0.5449 -0.0328  0.3317
  169DOPC   H6X20586   0.913   1.772  16.366  0.5066  1.0668  0.0239
  169DOPC   H6Y20587   0.752   1.816  16.319 -0.2659 -0.9897  0.4492
  169DOPC   C3720588   0.906   1.978  16.341  0.4269 -0.7080 -0.7295
  169DOPC   H7X20589   0.841   2.067  16.349 -0.5839 -1.4338 -0.6406
  169DOPC   H7Y20590   1.001   1.988  16.398 -0.0794  0.7221 -0.0958
  169DOPC   C3820591   0.947   1.967  16.191 -0.4918 -0.3763  0.0813
  169DOPC   H8X20592   0.845   1.955  16.148  0.0539  1.2070 -1.7963
  169DOPC   H8Y20593   1.003   1.872  16.174  1.4359  0.5384  1.0564
  169DOPC   C3920594   1.009   2.088  16.124 -0.1310  0.3580 -0.4534
  169DOPC   H9X20595   1.103   2.116  16.174 -0.8662  1.6866  0.2509
  169DOPC  C31020596   0.957   2.162  16.022  0.3009  0.4938  0.3277
  169DOPC  H10X20597   1.016   2.241  15.973 -1.1635  0.7622 -1.0936
  169DOPC  C31120598   0.837   2.126  15.931  0.2110 -0.1581  0.2357
  169DOPC  H11X20599   0.806   2.213  15.868  0.1123 -0.4708 -0.1530
  169DOPC  H11Y20600   0.744   2.119  15.992 -0.0831 -0.9583 -0.2882
  169DOPC  C31220601   0.847   1.993  15.848 -0.0380  0.3689  0.6442
  169DOPC  H12X20602   0.746   1.954  15.822  0.0992 -0.2872  1.0956
  169DOPC  H12Y20603   0.898   1.919  15.913 -0.4392 -0.6704 -0.1960
  169DOPC  C31320604   0.928   2.027  15.719  0.2666  0.0443  0.3448
  169DOPC  H13X20605   0.903   2.131  15.689  1.0716 -0.6655 -3.3288
  169DOPC  H13Y20606   1.034   2.026  15.751  0.6935  1.3682 -0.9390
  169DOPC  C31420607   0.896   1.944  15.601  0.2120  0.0085  0.6446
  169DOPC  H14X20608   0.938   1.841  15.611 -0.4781 -0.5263 -1.3448
  169DOPC  H14Y20609   0.786   1.933  15.596  0.0879  1.6130 -2.5526
  169DOPC  C31520610   0.953   2.008  15.476 -0.6340 -0.2857  0.1161
  169DOPC  H15X20611   1.064   1.994  15.476 -0.6283 -0.6600  2.5846
  169DOPC  H15Y20612   0.931   2.117  15.478  1.7565  0.2638  2.2158
  169DOPC  C31620613   0.899   1.942  15.354 -0.3701 -0.3403  0.2581
  169DOPC  H16X20614   0.910   1.832  15.361  0.7180 -0.1869  1.0652
  169DOPC  H16Y20615   0.790   1.966  15.357 -0.6941 -1.2729 -1.8251
  169DOPC  C31720616   0.957   2.004  15.220 -0.4476  0.0972  0.0929
  169DOPC  H17X20617   0.899   1.968  15.132  2.5554  1.0703 -2.5174
  169DOPC  H17Y20618   0.924   2.110  15.216  1.7627  0.8393 -0.2517
  169DOPC  C31820619   1.110   2.000  15.194 -0.1304  0.0752 -0.0437
  169DOPC  H18X20620   1.167   2.062  15.267 -1.9379  0.9809  0.6585
  169DOPC  H18Y20621   1.153   1.900  15.215 -0.1520  0.1353  0.2854
  169DOPC  H18Z20622   1.136   2.036  15.092  1.5562 -0.3534  0.2149
  170DOPC     N20623   6.516   1.264  17.826  0.3789  0.7194  0.1036
  170DOPC   C1220624   6.384   1.266  17.750  0.0739 -0.4976 -0.2406
  170DOPC  H12A20625   6.337   1.363  17.761  2.0731  0.3800  1.3138
  170DOPC  H12B20626   6.322   1.187  17.789  0.0046 -0.6874 -0.7279
  170DOPC   C1320627   6.604   1.366  17.779 -0.0048 -0.0136  0.4370
  170DOPC  H13A20628   6.639   1.361  17.677  0.0291 -1.7271  0.4980
  170DOPC  H13B20629   6.554   1.462  17.778  0.5079  0.2618  0.7589
  170DOPC  H13C20630   6.688   1.384  17.844 -1.7084  3.4165  1.9973
  170DOPC   C1420631   6.590   1.137  17.802 -0.5356  0.2543 -0.1506
  170DOPC  H14A20632   6.650   1.143  17.712 -1.5814 -0.1476 -0.8927
  170DOPC  H14B20633   6.650   1.107  17.887  0.9031  2.4918 -0.2952
  170DOPC  H14C20634   6.522   1.058  17.775  0.5893 -0.0145 -2.4231
  170DOPC   C1520635   6.498   1.283  17.969  0.0826  0.0549  0.5071
  170DOPC  H15A20636   6.462   1.194  18.018  3.0096 -2.5588 -1.6537
  170DOPC  H15B20637   6.440   1.371  17.992 -0.8424 -0.1676 -0.8721
  170DOPC  H15C20638   6.596   1.304  18.010  0.7354  0.5101 -1.1975
  170DOPC   C1120639   6.388   1.238  17.600  0.4621  0.0711  0.2163
  170DOPC  H11A20640   6.465   1.308  17.561  1.4476 -1.4336 -0.6339
  170DOPC  H11B20641   6.421   1.134  17.576 -3.5183 -1.6414  1.3354
  170DOPC     P20642   6.147   1.187  17.498 -0.1829  0.4476  0.5630
  170DOPC   O1320643   6.028   1.249  17.558  0.2594  0.4356  0.2113
  170DOPC   O1420644   6.181   1.049  17.540 -0.2455 -0.4251 -0.0090
  170DOPC   O1220645   6.271   1.285  17.533  0.4389  0.8112  0.3792
  170DOPC   O1120646   6.126   1.178  17.343 -0.3223 -0.2158  0.1986
  170DOPC    C120647   6.219   1.242  17.257 -0.1806 -0.2342  0.0961
  170DOPC    HA20648   6.320   1.223  17.300  0.4821  3.2688  0.4197
  170DOPC    HB20649   6.217   1.353  17.261  3.0392 -0.0836  3.9460
  170DOPC    C220650   6.223   1.191  17.109 -0.6581 -0.7782 -0.8614
  170DOPC    HS20651   6.312   1.235  17.060 -1.8866  2.0707 -0.6777
  170DOPC   O2120652   6.104   1.246  17.047  0.2123 -0.7502  0.3350
  170DOPC   C2120653   6.114   1.287  16.919  0.1340 -0.0886  0.2066
  170DOPC   O2220654   6.213   1.283  16.848 -1.3616  0.0215 -0.6770
  170DOPC   C2220655   5.970   1.316  16.875  0.2033 -1.1088 -0.0929
  170DOPC   H2R20656   5.937   1.417  16.908 -1.6061 -1.2741 -1.2194
  170DOPC   H2S20657   5.902   1.243  16.924 -1.4341  1.1447  1.1709
  170DOPC    C320658   6.231   1.037  17.088  0.2343 -0.0084  0.1528
  170DOPC    HX20659   6.147   0.987  17.141 -0.3069  1.2058  0.4753
  170DOPC    HY20660   6.328   1.008  17.135 -0.5789 -1.0522  1.2630
  170DOPC   O3120661   6.232   1.000  16.949 -0.4335 -0.1347  0.6539
  170DOPC   C3120662   6.348   1.004  16.882  0.1675  0.2716  0.0611
  170DOPC   O3220663   6.453   1.045  16.925  0.0445 -0.0850 -0.1344
  170DOPC   C3220664   6.337   0.946  16.738 -0.5867 -0.5016 -0.2170
  170DOPC   H2X20665   6.356   0.836  16.740  1.2217 -0.2936 -2.2412
  170DOPC   H2Y20666   6.232   0.964  16.705 -1.3004  0.9272  2.5152
  170DOPC   C2320667   5.947   1.322  16.721  0.0122  0.3157  0.1649
  170DOPC   H3R20668   5.992   1.415  16.681  2.3347 -0.8853 -0.1822
  170DOPC   H3S20669   5.839   1.345  16.707  0.5113  2.5666 -0.2266
  170DOPC   C2420670   5.989   1.205  16.630  0.2239 -0.0354  0.3245
  170DOPC   H4R20671   5.958   1.111  16.680 -0.7720  0.6925  1.1134
  170DOPC   H4S20672   6.099   1.212  16.614 -0.1211  0.6276 -2.0208
  170DOPC   C2520673   5.920   1.223  16.497 -0.5440 -0.2674 -0.1785
  170DOPC   H5R20674   5.949   1.313  16.439  0.9223 -1.7544 -1.9157
  170DOPC   H5S20675   5.811   1.222  16.518  0.0472 -0.0262  3.4595
  170DOPC   C2620676   5.941   1.099  16.392  0.2011 -0.1212  0.1793
  170DOPC   H6R20677   5.874   1.018  16.430  0.5790 -1.1267 -1.2187
  170DOPC   H6S20678   6.046   1.064  16.388  0.3730  0.5199 -1.8827
  170DOPC   C2720679   5.892   1.140  16.254 -0.6183 -0.4794 -0.5945
  170DOPC   H7R20680   5.800   1.202  16.256 -1.1559 -1.2673 -0.0880
  170DOPC   H7S20681   5.856   1.049  16.201 -0.4673  0.4089 -2.2874
  170DOPC   C2820682   6.000   1.214  16.169  0.3090 -0.5934  0.7131
  170DOPC   H8R20683   6.032   1.307  16.221  1.3923  0.0293 -0.9690
  170DOPC   H8S20684   5.942   1.250  16.082  0.3152 -0.1993  0.8709
  170DOPC   C2920685   6.116   1.129  16.132 -0.2750  0.1651  0.0723
  170DOPC   H9R20686   6.186   1.125  16.217 -0.5812 -0.4055  0.3012
  170DOPC  C21020687   6.140   1.083  16.010  0.3331 -0.0208 -1.1547
  170DOPC  H10R20688   6.243   1.045  16.006  1.2517  1.6868  2.1825
  170DOPC  C21120689   6.051   1.095  15.890  0.3036 -0.3350 -0.8703
  170DOPC  H11R20690   6.026   1.200  15.863 -0.9390 -0.6118 -0.8876
  170DOPC  H11S20691   5.949   1.053  15.902 -0.3331  1.5898  1.1631
  170DOPC  C21220692   6.118   1.031  15.777 -0.4486  0.2571  0.3612
  170DOPC  H12R20693   6.112   0.920  15.785 -0.7775  0.3294  1.2448
  170DOPC  H12S20694   6.225   1.060  15.770 -0.6646  0.9965  0.0230
  170DOPC  C21320695   6.054   1.067  15.642  0.5051 -0.4586  0.3830
  170DOPC  H13R20696   6.027   1.174  15.629 -2.3646 -0.9904  1.2077
  170DOPC  H13S20697   5.956   1.014  15.635  1.0525 -1.7661  2.0063
  170DOPC  C21420698   6.140   1.022  15.526  0.4041  0.3932  0.3660
  170DOPC  H14R20699   6.151   0.914  15.550  1.4154  0.3589 -0.1827
  170DOPC  H14S20700   6.235   1.080  15.533  1.4122 -1.2685  1.0502
  170DOPC  C21520701   6.063   1.043  15.387  0.2920  0.3863 -0.8329
  170DOPC  H15R20702   6.024   1.145  15.411 -0.6108 -0.1150 -0.0846
  170DOPC  H15S20703   5.980   0.970  15.381  1.8783 -1.8023  1.4530
  170DOPC  C21620704   6.150   1.019  15.264 -0.3692 -0.5360  0.2634
  170DOPC  H16R20705   6.207   0.924  15.262 -0.4068 -0.5377 -1.1161
  170DOPC  H16S20706   6.232   1.095  15.270  2.2083 -3.1244 -0.0185
  170DOPC  C21720707   6.077   1.047  15.129  0.3165 -0.0801 -0.7417
  170DOPC  H17R20708   5.993   0.976  15.115  0.3684 -0.1814 -0.5381
  170DOPC  H17S20709   6.142   1.026  15.042  1.7907  0.3376  0.2170
  170DOPC  C21820710   6.027   1.193  15.110 -0.0006 -0.2635 -0.3815
  170DOPC  H18R20711   5.960   1.209  15.023 -0.5259 -0.0620  0.0553
  170DOPC  H18S20712   6.112   1.259  15.080 -0.0715  0.2201  0.4665
  170DOPC  H18T20713   5.977   1.233  15.200 -1.4800  0.1064 -1.3393
  170DOPC   C3320714   6.448   0.994  16.645  0.8931 -0.5182 -0.9830
  170DOPC   H3X20715   6.548   0.971  16.688  1.2713  0.1100 -1.5033
  170DOPC   H3Y20716   6.458   1.103  16.631  0.9976 -0.3129  0.5590
  170DOPC   C3420717   6.437   0.921  16.508 -0.5120  0.1116  0.4591
  170DOPC   H4X20718   6.355   0.962  16.446 -0.1936 -0.3165 -0.2495
  170DOPC   H4Y20719   6.419   0.813  16.525  1.5207 -0.8753 -2.8564
  170DOPC   C3520720   6.564   0.933  16.421 -0.1770  0.7453  0.5678
  170DOPC   H5X20721   6.655   0.905  16.479  1.2368  1.3762 -1.2630
  170DOPC   H5Y20722   6.582   1.038  16.388  0.0852  0.1967 -1.1020
  170DOPC   C3620723   6.538   0.841  16.296 -0.1146 -0.0966 -0.8762
  170DOPC   H6X20724   6.570   0.737  16.319 -0.2449 -0.3049 -1.6204
  170DOPC   H6Y20725   6.430   0.824  16.277  0.3358 -1.4759 -2.4156
  170DOPC   C3720726   6.622   0.892  16.179  0.1266 -0.1551  0.3013
  170DOPC   H7X20727   6.609   1.001  16.161  2.1459  0.0057 -0.5145
  170DOPC   H7Y20728   6.727   0.889  16.215  0.9742 -1.2310 -2.0797
  170DOPC   C3820729   6.597   0.805  16.060 -0.2963 -0.6945 -0.4759
  170DOPC   H8X20730   6.489   0.788  16.041 -0.2203 -0.3072 -1.3274
  170DOPC   H8Y20731   6.641   0.713  16.105  0.7072 -0.1349 -0.2795
  170DOPC   C3920732   6.684   0.844  15.944  0.0835  0.2642  0.1879
  170DOPC   H9X20733   6.782   0.881  15.976 -0.7882  2.2454  0.7034
  170DOPC  C31020734   6.656   0.826  15.817  0.3222  0.1541 -0.3857
  170DOPC  H10X20735   6.731   0.856  15.743  0.7524  0.1295  0.0391
  170DOPC  C31120736   6.525   0.774  15.767  0.5376 -0.3748  0.4142
  170DOPC  H11X20737   6.452   0.738  15.842 -1.0545  0.6260 -0.5982
  170DOPC  H11Y20738   6.548   0.691  15.697  0.1665 -0.1528  0.0275
  170DOPC  C31220739   6.441   0.880  15.691  0.8046 -0.2241 -0.2946
  170DOPC  H12X20740   6.431   0.961  15.766 -0.6061  0.0820 -0.7847
  170DOPC  H12Y20741   6.336   0.849  15.673  0.6590 -1.7282  2.4841
  170DOPC  C31320742   6.494   0.940  15.561 -0.1656 -0.5904 -0.5709
  170DOPC  H13X20743   6.437   1.033  15.542  0.1092 -0.3925 -0.4347
  170DOPC  H13Y20744   6.601   0.972  15.564 -0.9615  2.1937  0.2514
  170DOPC  C31420745   6.452   0.856  15.440  0.4803  0.2404 -0.7742
  170DOPC  H14X20746   6.350   0.815  15.456  2.3229 -4.8441 -0.3100
  170DOPC  H14Y20747   6.455   0.923  15.351  2.1749 -1.3589 -2.0108
  170DOPC  C31520748   6.555   0.731  15.405  0.0413 -0.1774 -0.4654
  170DOPC  H15X20749   6.525   0.638  15.458  1.6089 -0.2266  0.4059
  170DOPC  H15Y20750   6.653   0.760  15.449  0.2864 -1.6419 -0.0014
  170DOPC  C31620751   6.580   0.692  15.253  0.0528 -0.6230 -0.3428
  170DOPC  H16X20752   6.665   0.621  15.240  0.6555 -0.1335  0.7857
  170DOPC  H16Y20753   6.490   0.634  15.225  0.3754 -2.2846  1.7937
  170DOPC  C31720754   6.624   0.809  15.165  0.1791 -0.1023  0.4310
  170DOPC  H17X20755   6.616   0.911  15.210  1.6786  0.9867 -1.5569
  170DOPC  H17Y20756   6.726   0.780  15.132 -1.0095 -3.4126 -0.6815
  170DOPC  C31820757   6.539   0.830  15.038  0.0884 -0.5664  0.1759
  170DOPC  H18X20758   6.580   0.912  14.976 -0.6228 -0.4876 -0.2100
  170DOPC  H18Y20759   6.552   0.743  14.970 -0.4203  0.2397 -0.9865
  170DOPC  H18Z20760   6.438   0.862  15.071 -0.0853  1.5560 -2.1354
  171DOPC     N20761   3.554   4.989  11.910  0.9508  0.8360  0.1308
  171DOPC   C1220762   3.655   4.881  11.932  0.1200  0.7889 -0.2159
  171DOPC  H12A20763   3.734   4.893  11.859 -0.2942  0.8215 -0.6639
  171DOPC  H12B20764   3.600   4.791  11.909 -2.6291  2.5526 -1.0986
  171DOPC   C1320765   3.429   4.973  11.988  0.0443  0.0405 -0.9303
  171DOPC  H13A20766   3.452   4.988  12.092  2.7986  0.5466 -1.5094
  171DOPC  H13B20767   3.369   5.059  11.962 -0.6709 -0.4553 -0.9266
  171DOPC  H13C20768   3.369   4.885  11.974 -0.4835  0.0292  1.1090
  171DOPC   C1420769   3.513   4.993  11.772 -0.5566  0.0346 -0.0108
  171DOPC  H14A20770   3.585   5.038  11.705  0.4134  0.6477  1.4121
  171DOPC  H14B20771   3.493   4.897  11.725  1.1387 -0.2173 -0.2735
  171DOPC  H14C20772   3.426   5.056  11.760 -0.6578 -0.2886 -1.0908
  171DOPC   C1520773   3.614   5.124  11.941  0.4070  0.2864  0.5270
  171DOPC  H15A20774   3.614   5.138  12.048 -1.0032  0.3510  0.5325
  171DOPC  H15B20775   3.544   5.202  11.916  1.0107  0.9108  0.7583
  171DOPC  H15C20776   3.712   5.144  11.900  1.4393 -0.2850  2.5764
  171DOPC   C1120777   3.717   4.874  12.076  0.3780  0.1966 -0.2607
  171DOPC  H11A20778   3.802   4.803  12.073 -1.1062 -1.7343  1.2061
  171DOPC  H11B20779   3.763   4.974  12.094 -0.7238  1.0742 -1.9682
  171DOPC     P20780   3.562   4.699  12.189  0.3369 -0.4420  0.1574
  171DOPC   O1320781   3.577   4.631  12.061  0.7079  0.5725  0.0238
  171DOPC   O1420782   3.418   4.715  12.226 -0.7187  0.9034 -0.4492
  171DOPC   O1220783   3.632   4.847  12.187  0.4912  0.3278  0.1315
  171DOPC   O1120784   3.637   4.614  12.301  0.1602 -0.4651  0.1494
  171DOPC    C120785   3.766   4.645  12.355  0.6142 -0.6177  0.6097
  171DOPC    HA20786   3.769   4.756  12.358 -0.7110 -0.3199 -3.1668
  171DOPC    HB20787   3.853   4.620  12.290 -0.0102  1.8556 -1.3581
  171DOPC    C220788   3.784   4.598  12.502  0.1786 -0.2691 -0.5952
  171DOPC    HS20789   3.872   4.644  12.551 -0.8865  0.3711  0.7933
  171DOPC   O2120790   3.802   4.458  12.492  0.4493  0.1934  0.1486
  171DOPC   C2120791   3.865   4.394  12.588  0.3123  0.0085 -0.0574
  171DOPC   O2220792   3.947   4.445  12.663  0.3288  0.4148 -0.4002
  171DOPC   C2220793   3.838   4.239  12.579 -0.3245 -0.2006  0.0468
  171DOPC   H2R20794   3.910   4.193  12.508  0.8604 -0.8443  1.6219
  171DOPC   H2S20795   3.742   4.230  12.524 -0.0393 -0.4903 -0.4112
  171DOPC    C320796   3.664   4.643  12.588 -0.4694  0.2666 -0.6827
  171DOPC    HX20797   3.577   4.613  12.527 -1.0835  0.5234  0.0536
  171DOPC    HY20798   3.647   4.752  12.601 -2.9449 -0.1377 -0.1189
  171DOPC   O3120799   3.666   4.567  12.714 -0.3661 -0.9126  0.1306
  171DOPC   C3120800   3.742   4.628  12.806  0.3210 -0.0894 -0.2436
  171DOPC   O3220801   3.817   4.722  12.789  0.1325  0.1559  0.0486
  171DOPC   C3220802   3.723   4.554  12.941  0.2539 -0.1321  0.2098
  171DOPC   H2X20803   3.620   4.571  12.981  0.2884  1.7280 -0.3721
  171DOPC   H2Y20804   3.726   4.447  12.914 -2.5847 -0.2301  0.0007
  171DOPC   C2320805   3.838   4.177  12.721  0.4711 -0.0975  0.5128
  171DOPC   H3R20806   3.784   4.083  12.701 -1.6976  1.3985 -1.1061
  171DOPC   H3S20807   3.770   4.235  12.786 -1.9608 -1.9049 -0.3015
  171DOPC   C2420808   3.970   4.139  12.790  0.2122  0.0668  0.6567
  171DOPC   H4R20809   4.028   4.234  12.794  3.2679 -1.4007 -3.0193
  171DOPC   H4S20810   4.023   4.074  12.718  1.1841  0.1846  1.2502
  171DOPC   C2520811   3.954   4.072  12.930 -0.0869  0.0515 -0.2533
  171DOPC   H5R20812   4.047   4.018  12.960 -0.5755 -0.4534  0.3863
  171DOPC   H5S20813   3.867   4.003  12.924  0.9518 -1.4141  0.7687
  171DOPC   C2620814   3.904   4.170  13.036 -0.3266  0.3802 -0.7979
  171DOPC   H6R20815   3.805   4.203  12.998 -0.5632 -0.4943 -0.9688
  171DOPC   H6S20816   3.971   4.258  13.046 -1.4290  1.1382  0.1016
  171DOPC   C2720817   3.868   4.098  13.173  0.2436  0.1659 -0.3008
  171DOPC   H7R20818   3.944   4.018  13.186  0.8302  0.4856 -1.5256
  171DOPC   H7S20819   3.762   4.065  13.177  1.1079 -2.7292  2.3722
  171DOPC   C2820820   3.896   4.191  13.298  0.1840 -0.7145 -0.1279
  171DOPC   H8R20821   3.878   4.132  13.390 -0.7552 -2.1965 -1.2206
  171DOPC   H8S20822   3.813   4.265  13.296  1.0712  0.3427 -2.8188
  171DOPC   C2920823   4.025   4.259  13.303  0.0735  0.0170 -0.5256
  171DOPC   H9R20824   4.087   4.266  13.212  1.1980 -0.3970  0.1860
  171DOPC  C21020825   4.073   4.329  13.416 -0.1400  0.9687  0.3500
  171DOPC  H10R20826   4.179   4.359  13.421  0.4493 -0.5080 -1.7689
  171DOPC  C21120827   3.995   4.325  13.547  0.6617  0.8355  0.1599
  171DOPC  H11R20828   3.943   4.230  13.571  0.9961  0.8353  0.8976
  171DOPC  H11S20829   3.912   4.399  13.546 -0.4212 -0.3131  1.0169
  171DOPC  C21220830   4.100   4.357  13.656 -0.4265 -0.1126 -0.6022
  171DOPC  H12R20831   4.143   4.457  13.636 -1.8794  1.6198  3.8891
  171DOPC  H12S20832   4.183   4.283  13.655  0.2540  0.6342 -0.7054
  171DOPC  C21320833   4.022   4.348  13.784  0.4438 -0.1705 -0.0871
  171DOPC  H13R20834   3.964   4.254  13.796 -0.5679  0.6394  1.6124
  171DOPC  H13S20835   3.949   4.431  13.790  0.5201 -0.2103  1.7930
  171DOPC  C21420836   4.114   4.378  13.899  0.3064  0.3313 -0.0067
  171DOPC  H14R20837   4.192   4.450  13.865 -0.1719 -0.2690 -2.5949
  171DOPC  H14S20838   4.157   4.282  13.934 -0.4859 -0.2427 -0.5791
  171DOPC  C21520839   4.043   4.438  14.022  0.2581 -0.4747  0.0505
  171DOPC  H15R20840   3.974   4.364  14.068  1.2680 -0.8261  1.0647
  171DOPC  H15S20841   3.982   4.528  14.002 -1.8530 -1.7373  0.5702
  171DOPC  C21620842   4.138   4.468  14.143 -0.3185 -0.1662 -0.1760
  171DOPC  H16R20843   4.127   4.574  14.174 -1.4688  0.4577 -2.5190
  171DOPC  H16S20844   4.245   4.456  14.115  0.0994  2.9067 -0.2475
  171DOPC  C21720845   4.116   4.381  14.268 -0.4810 -0.8612 -0.5257
  171DOPC  H17R20846   4.119   4.275  14.233  0.4355 -0.1090 -2.9407
  171DOPC  H17S20847   4.012   4.402  14.303  0.6289  0.0474  2.5323
  171DOPC  C21820848   4.208   4.419  14.381 -0.8401 -0.5048  0.7765
  171DOPC  H18R20849   4.182   4.523  14.409 -0.1177 -0.1660  0.2141
  171DOPC  H18S20850   4.315   4.417  14.353 -0.7080  1.0572  1.0598
  171DOPC  H18T20851   4.196   4.359  14.473  1.2182  1.1547  2.2024
  171DOPC   C3320852   3.833   4.596  13.042  0.2801  0.5699  0.7320
  171DOPC   H3X20853   3.837   4.707  13.044 -0.4984  0.5969  1.2445
  171DOPC   H3Y20854   3.930   4.553  13.012 -0.3932 -0.5767  0.1648
  171DOPC   C3420855   3.796   4.557  13.187 -0.4089  0.4143 -0.1265
  171DOPC   H4X20856   3.838   4.456  13.205 -0.7700  0.6384  2.2707
  171DOPC   H4Y20857   3.687   4.548  13.203 -0.4110 -0.6837 -0.7091
  171DOPC   C3520858   3.852   4.656  13.295 -0.1079 -0.8851 -0.7298
  171DOPC   H5X20859   3.842   4.758  13.254  0.1921 -1.1048 -1.3550
  171DOPC   H5Y20860   3.958   4.636  13.325  0.1533 -0.9222 -1.6439
  171DOPC   C3620861   3.774   4.643  13.425 -0.0652  0.2995  0.0159
  171DOPC   H6X20862   3.672   4.687  13.423 -1.1656 -1.9465  2.2543
  171DOPC   H6Y20863   3.764   4.535  13.448 -1.2029  0.4065  0.0957
  171DOPC   C3720864   3.850   4.706  13.545 -0.6154  0.3065  0.0174
  171DOPC   H7X20865   3.949   4.655  13.548  0.0775  1.4564 -1.6342
  171DOPC   H7Y20866   3.862   4.810  13.509 -1.7220 -0.6290 -3.4709
  171DOPC   C3820867   3.787   4.704  13.688  0.1765 -0.3020  0.0333
  171DOPC   H8X20868   3.866   4.752  13.750  2.0759 -0.1224 -2.3911
  171DOPC   H8Y20869   3.789   4.602  13.732 -1.2639 -0.1797  0.4496
  171DOPC   C3920870   3.653   4.775  13.703  0.3661  0.0453  0.2375
  171DOPC   H9X20871   3.592   4.774  13.611 -0.0316  0.9045  0.4902
  171DOPC  C31020872   3.621   4.859  13.802 -0.0730 -1.1339  0.0199
  171DOPC  H10X20873   3.529   4.919  13.791  0.0098 -0.6346  1.8048
  171DOPC  C31120874   3.707   4.874  13.924 -0.6611  0.2450  0.2222
  171DOPC  H11X20875   3.807   4.913  13.895 -0.5531  1.1002  1.6422
  171DOPC  H11Y20876   3.715   4.775  13.975 -2.6386 -0.2662 -0.3659
  171DOPC  C31220877   3.651   4.965  14.035  0.2362 -0.4553  0.9171
  171DOPC  H12X20878   3.640   5.062  13.982  1.5821 -0.7865 -0.0157
  171DOPC  H12Y20879   3.731   4.991  14.108  0.9678  2.6282 -0.8025
  171DOPC  C31320880   3.531   4.906  14.111 -0.1039 -0.3535  0.3214
  171DOPC  H13X20881   3.471   4.842  14.043 -0.6050 -2.0034  2.2302
  171DOPC  H13Y20882   3.544   4.832  14.193  0.3549  0.1701  0.7246
  171DOPC  C31420883   3.427   5.013  14.162 -0.2318 -0.1847  0.9230
  171DOPC  H14X20884   3.362   4.967  14.239 -1.5974 -0.0876 -0.1283
  171DOPC  H14Y20885   3.480   5.101  14.204 -2.3923  1.7208 -0.1171
  171DOPC  C31520886   3.347   5.067  14.046 -0.3248 -0.3230  0.3980
  171DOPC  H15X20887   3.312   4.977  13.990  0.4798  0.6938 -1.8874
  171DOPC  H15Y20888   3.415   5.125  13.980  0.4601 -3.2264 -1.5660
  171DOPC  C31620889   3.238   5.169  14.079  0.6235 -0.2555 -0.1300
  171DOPC  H16X20890   3.164   5.151  13.999 -0.3869 -2.0152  1.1200
  171DOPC  H16Y20891   3.186   5.146  14.175 -1.5036 -1.7329 -1.5650
  171DOPC  C31720892   3.280   5.316  14.076  0.3738  0.4042  0.0370
  171DOPC  H17X20893   3.359   5.315  14.154  0.7520  0.3588 -0.3410
  171DOPC  H17Y20894   3.319   5.352  13.978 -2.7626  1.6954 -0.8468
  171DOPC  C31820895   3.156   5.405  14.121 -0.2674  0.6296  0.0273
  171DOPC  H18X20896   3.189   5.511  14.120 -0.6203  0.7560 -1.9293
  171DOPC  H18Y20897   3.082   5.404  14.038  0.5255  1.5852 -0.7192
  171DOPC  H18Z20898   3.116   5.365  14.217 -0.2068 -3.1118 -1.3659
  172DOPC     N20899   2.204   5.842  11.632  0.4825  0.1413 -0.0539
  172DOPC   C1220900   2.303   5.857  11.747  0.4403 -0.4116 -0.3710
  172DOPC  H12A20901   2.247   5.814  11.830 -2.1307  1.3293 -1.1055
  172DOPC  H12B20902   2.300   5.963  11.767 -0.5979 -0.3312 -0.8846
  172DOPC   C1320903   2.191   5.697  11.599  0.1533  0.0258  0.2253
  172DOPC  H13A20904   2.288   5.659  11.572  0.2342  1.3813 -1.5576
  172DOPC  H13B20905   2.145   5.658  11.689 -0.3357  2.0471  0.9103
  172DOPC  H13C20906   2.136   5.677  11.508  1.4335 -3.2473  0.0228
  172DOPC   C1420907   2.242   5.913  11.502 -0.6031 -0.2193  0.1532
  172DOPC  H14A20908   2.191   5.877  11.414 -1.0586  0.0795  0.2917
  172DOPC  H14B20909   2.233   6.020  11.501  0.6660 -0.0961 -0.8703
  172DOPC  H14C20910   2.348   5.901  11.485 -0.0252  0.8070  2.5933
  172DOPC   C1520911   2.073   5.904  11.666  0.3120  0.2323  0.1290
  172DOPC  H15A20912   2.064   6.010  11.647 -3.6521  0.3459  1.5999
  172DOPC  H15B20913   2.055   5.888  11.771  0.6981  2.6890  0.6256
  172DOPC  H15C20914   1.989   5.865  11.611  1.8620 -1.7432 -0.9798
  172DOPC   C1120915   2.448   5.810  11.730  0.4871  0.2603 -0.5935
  172DOPC  H11A20916   2.495   5.864  11.645 -1.4091  0.1060 -1.8067
  172DOPC  H11B20917   2.502   5.841  11.822  0.0170  0.1574 -0.2802
  172DOPC     P20918   2.466   5.553  11.805  0.1926 -0.1636 -0.4517
  172DOPC   O1320919   2.530   5.432  11.746  0.2541 -0.3948  0.2328
  172DOPC   O1420920   2.329   5.524  11.866  0.7815 -0.1443  0.4098
  172DOPC   O1220921   2.462   5.675  11.704  0.0806 -0.0460 -0.1824
  172DOPC   O1120922   2.565   5.605  11.907  0.4028  0.1309  0.5377
  172DOPC    C120923   2.704   5.618  11.868  0.5257  0.0649  0.1222
  172DOPC    HA20924   2.709   5.689  11.783 -3.2040 -0.4780 -0.7037
  172DOPC    HB20925   2.755   5.526  11.831  0.3094 -0.1635  0.3890
  172DOPC    C220926   2.784   5.670  11.990  0.1541 -0.2384 -0.2794
  172DOPC    HS20927   2.891   5.653  11.963  0.0091  1.1298 -1.9063
  172DOPC   O2120928   2.748   5.610  12.117 -0.1474  0.8689  0.9550
  172DOPC   C2120929   2.783   5.480  12.132 -0.1600  0.1451  0.2465
  172DOPC   O2220930   2.830   5.410  12.045 -0.1472  0.1226 -0.0651
  172DOPC   C2220931   2.734   5.434  12.268  0.1225 -0.4759  0.2601
  172DOPC   H2R20932   2.626   5.461  12.275  0.0788 -0.2261 -1.2224
  172DOPC   H2S20933   2.806   5.479  12.340  1.8634  0.7613 -2.1225
  172DOPC    C320934   2.758   5.817  12.004  0.1852  0.6777  0.7616
  172DOPC    HX20935   2.656   5.836  12.044 -0.6580 -0.6337 -0.6284
  172DOPC    HY20936   2.759   5.867  11.904  0.8333 -0.9245 -0.0716
  172DOPC   O3120937   2.864   5.880  12.082  0.2108 -0.2854 -0.6739
  172DOPC   C3120938   2.826   5.997  12.139 -0.4452 -0.6359  0.3852
  172DOPC   O3220939   2.728   6.062  12.113 -0.1290  0.3959 -0.5951
  172DOPC   C3220940   2.936   6.048  12.233 -0.0669  0.2185  0.0984
  172DOPC   H2X20941   2.959   6.146  12.187 -1.5014  0.2536 -0.6109
  172DOPC   H2Y20942   2.898   6.056  12.337  0.0791 -2.9019  0.5050
  172DOPC   C2320943   2.736   5.285  12.284 -0.2088 -0.2904 -0.2711
  172DOPC   H3R20944   2.834   5.237  12.260  0.0685  1.4730 -3.2315
  172DOPC   H3S20945   2.658   5.239  12.220  1.3287 -1.6282 -1.2842
  172DOPC   C2420946   2.709   5.234  12.435 -0.2882 -0.9777 -0.8121
  172DOPC   H4R20947   2.799   5.253  12.498 -0.9152 -1.2150  0.1842
  172DOPC   H4S20948   2.693   5.125  12.422 -0.3109 -1.0494 -0.1865
  172DOPC   C2520949   2.586   5.296  12.509 -0.5895 -0.3322 -0.2795
  172DOPC   H5R20950   2.502   5.276  12.439  1.3753 -1.9910 -2.2814
  172DOPC   H5S20951   2.602   5.405  12.522  3.1236 -1.0117  2.2675
  172DOPC   C2620952   2.552   5.227  12.638  0.4270  0.1020 -0.1359
  172DOPC   H6R20953   2.483   5.295  12.693 -2.4620 -3.0523  0.4356
  172DOPC   H6S20954   2.645   5.219  12.699  0.1009  0.6664  0.4525
  172DOPC   C2720955   2.452   5.107  12.626 -0.1235 -0.1628  0.1820
  172DOPC   H7R20956   2.507   5.024  12.575 -1.4328 -1.5719  0.9947
  172DOPC   H7S20957   2.358   5.142  12.579 -0.8190  0.3965  1.9422
  172DOPC   C2820958   2.410   5.059  12.773  0.4063 -0.0063  0.3783
  172DOPC   H8R20959   2.498   5.042  12.838  0.8533  0.3096 -0.1395
  172DOPC   H8S20960   2.339   4.974  12.768 -0.1672  0.0698  4.0545
  172DOPC   C2920961   2.329   5.165  12.841 -0.6410 -0.1936  0.0655
  172DOPC   H9R20962   2.274   5.226  12.766 -0.3956  0.4229  0.3789
  172DOPC  C21020963   2.327   5.207  12.972 -0.1032 -0.1290  1.0688
  172DOPC  H10R20964   2.267   5.294  13.003 -0.0332  0.0902  0.5944
  172DOPC  C21120965   2.409   5.156  13.086 -0.1583  0.2448 -0.6148
  172DOPC  H11R20966   2.455   5.247  13.131 -1.2819  1.6170 -2.1089
  172DOPC  H11S20967   2.487   5.087  13.049  0.1876  0.5335 -0.4308
  172DOPC  C21220968   2.318   5.096  13.186  1.0366 -0.0624  0.0691
  172DOPC  H12R20969   2.276   5.003  13.143  1.3690 -0.3183  0.2936
  172DOPC  H12S20970   2.235   5.164  13.215 -0.6857 -0.8337 -2.6636
  172DOPC  C21320971   2.394   5.052  13.313 -0.0586 -0.5573  0.2735
  172DOPC  H13R20972   2.445   5.138  13.362 -1.4430 -0.0455  0.8526
  172DOPC  H13S20973   2.480   4.987  13.287  0.1449 -0.1056 -0.1954
  172DOPC  C21420974   2.302   4.984  13.411  0.5307  0.4510 -0.3029
  172DOPC  H14R20975   2.262   4.899  13.353  1.0248  1.6326 -2.4723
  172DOPC  H14S20976   2.219   5.054  13.433  0.8095  0.2333  1.5951
  172DOPC  C21520977   2.371   4.934  13.543  0.4841  0.0585 -0.8947
  172DOPC  H15R20978   2.407   5.028  13.591 -1.5222  0.9090 -0.9354
  172DOPC  H15S20979   2.453   4.865  13.514  0.9833  1.0220 -1.8514
  172DOPC  C21620980   2.276   4.863  13.639  0.0366  0.0143 -0.9141
  172DOPC  H16R20981   2.274   4.755  13.615  1.1157  0.0566 -1.2365
  172DOPC  H16S20982   2.174   4.903  13.619 -0.1368  1.1423  1.7719
  172DOPC  C21720983   2.319   4.887  13.786  0.5282 -0.1276 -0.3609
  172DOPC  H17R20984   2.246   4.848  13.860  1.0641  0.5766  0.5660
  172DOPC  H17S20985   2.325   4.995  13.812 -0.6341 -0.7135  2.7752
  172DOPC  C21820986   2.447   4.809  13.827 -0.2037 -0.1727  0.5070
  172DOPC  H18R20987   2.421   4.701  13.827  1.3890 -0.5756  0.7024
  172DOPC  H18S20988   2.461   4.842  13.932  0.1240  0.8736  0.1530
  172DOPC  H18T20989   2.533   4.825  13.759 -0.4944 -0.4484  0.0665
  172DOPC   C3320990   3.051   5.936  12.249 -0.2376 -0.2909 -0.0074
  172DOPC   H3X20991   3.080   5.903  12.147 -1.4027  0.6916 -0.6901
  172DOPC   H3Y20992   3.008   5.846  12.297  0.3223 -0.0355  0.9801
  172DOPC   C3420993   3.169   5.981  12.338  0.1244 -0.1939  0.1278
  172DOPC   H4X20994   3.139   6.069  12.397  1.0831 -0.4574  1.0372
  172DOPC   H4Y20995   3.246   6.010  12.263 -1.1169  1.7441 -0.4811
  172DOPC   C3520996   3.221   5.879  12.432  0.9703  0.1773  0.4012
  172DOPC   H5X20997   3.262   5.791  12.378  0.8663 -0.6202  1.5901
  172DOPC   H5Y20998   3.135   5.839  12.490  0.8618  0.9835  0.8079
  172DOPC   C3620999   3.336   5.932  12.520  0.2101 -0.0443  0.3470
  172DOPC   H6X21000   3.398   5.857  12.572  1.9251  1.4833  0.5927
  172DOPC   H6Y21001   3.408   5.989  12.458  0.8898 -0.1854  0.9918
  172DOPC   C3721002   3.280   6.006  12.640  0.6451 -0.8055 -0.1184
  172DOPC   H7X21003   3.242   6.105  12.610  2.3944  0.5526  1.8055
  172DOPC   H7Y21004   3.195   5.955  12.690  0.7112  0.4241  1.3511
  172DOPC   C3821005   3.375   6.043  12.755  0.1059  0.3857  0.4963
  172DOPC   H8X21006   3.325   6.120  12.818  1.1821  0.4903  1.2573
  172DOPC   H8Y21007   3.470   6.084  12.715  0.0141  0.5218  0.4178
  172DOPC   C3921008   3.423   5.938  12.853  0.3269  0.1902  0.0576
  172DOPC   H9X21009   3.497   5.877  12.800  0.6701  1.3808 -0.8651
  172DOPC  C31021010   3.390   5.906  12.982  0.0608  0.1579 -0.4833
  172DOPC  H10X21011   3.434   5.821  13.035 -0.2672  0.7494  0.7813
  172DOPC  C31121012   3.292   5.984  13.073 -0.8344 -0.0798  0.4446
  172DOPC  H11X21013   3.200   5.997  13.013 -0.4698 -2.7118 -0.8382
  172DOPC  H11Y21014   3.340   6.081  13.098 -0.1399 -0.5886  1.1135
  172DOPC  C31221015   3.267   5.914  13.208  0.1844  0.0660 -0.2074
  172DOPC  H12X21016   3.266   5.805  13.186 -0.1109  0.0996 -0.3788
  172DOPC  H12Y21017   3.173   5.955  13.251  0.2475 -0.1189  0.1052
  172DOPC  C31321018   3.378   5.946  13.319 -0.6407  0.6706 -0.8226
  172DOPC  H13X21019   3.483   5.936  13.283 -0.0314  3.7481 -0.2208
  172DOPC  H13Y21020   3.373   6.055  13.342  3.8215  0.9324 -0.2223
  172DOPC  C31421021   3.351   5.865  13.450 -0.2203 -0.3111 -0.3327
  172DOPC  H14X21022   3.245   5.838  13.470  0.1862 -0.6102  1.5827
  172DOPC  H14Y21023   3.396   5.765  13.434  1.4276  0.4115 -0.4333
  172DOPC  C31521024   3.404   5.939  13.574  0.7107  0.5122  0.6109
  172DOPC  H15X21025   3.386   6.049  13.568  0.5708  0.5948  2.1641
  172DOPC  H15Y21026   3.515   5.934  13.570  0.6674  0.3443 -0.9702
  172DOPC  C31621027   3.354   5.874  13.702  0.1492 -0.3434  0.0618
  172DOPC  H16X21028   3.252   5.918  13.706  0.7883  1.1628  0.3458
  172DOPC  H16Y21029   3.338   5.764  13.699 -0.9537 -0.3366  2.5395
  172DOPC  C31721030   3.451   5.902  13.816 -0.3601  0.0763  0.1477
  172DOPC  H17X21031   3.559   5.889  13.791  0.1296  1.4475  1.3370
  172DOPC  H17Y21032   3.433   6.010  13.834  0.6543  0.0642  1.4427
  172DOPC  C31821033   3.427   5.819  13.949 -0.0553 -0.1626  0.6022
  172DOPC  H18X21034   3.318   5.832  13.966 -0.0888  1.1260 -0.4188
  172DOPC  H18Y21035   3.454   5.714  13.926  1.3521  0.1994  0.4945
  172DOPC  H18Z21036   3.477   5.864  14.037  1.8342 -0.3912 -0.2982
  173DOPC     N21037   2.247   5.046  11.724  0.3482  0.2798  0.2336
  173DOPC   C1221038   2.339   4.959  11.817  0.3181  0.2133  0.5904
  173DOPC  H12A21039   2.280   4.930  11.903 -0.6164  1.5875  0.4465
  173DOPC  H12B21040   2.425   5.015  11.849  0.2917 -0.1400  1.3180
  173DOPC   C1321041   2.138   4.971  11.665 -0.1211 -0.2932 -0.0797
  173DOPC  H13A21042   2.095   5.017  11.577  1.2585  3.3239  0.9454
  173DOPC  H13B21043   2.179   4.871  11.658  0.9519  0.2371 -1.8789
  173DOPC  H13C21044   2.058   4.959  11.737  0.1982 -0.0931  0.3151
  173DOPC   C1421045   2.333   5.103  11.609  0.4655  0.3264 -0.0880
  173DOPC  H14A21046   2.278   5.172  11.548 -0.3037  0.9542  1.2692
  173DOPC  H14B21047   2.424   5.150  11.642  1.6806 -1.3282 -0.9075
  173DOPC  H14C21048   2.361   5.019  11.546 -2.0633 -1.1535  0.6175
  173DOPC   C1521049   2.199   5.175  11.796  0.1314  0.3708 -0.5873
  173DOPC  H15A21050   2.146   5.238  11.726  2.5537  1.9721 -1.1064
  173DOPC  H15B21051   2.290   5.216  11.838  1.3805 -2.4852 -0.2841
  173DOPC  H15C21052   2.130   5.157  11.877  0.8050  2.7145  0.6111
  173DOPC   C1121053   2.401   4.829  11.746  0.2058 -0.4740 -0.3105
  173DOPC  H11A21054   2.445   4.843  11.645  0.2911 -0.2253 -0.2394
  173DOPC  H11B21055   2.491   4.809  11.808  0.7898 -0.1073 -1.0131
  173DOPC     P21056   2.349   4.582  11.700  0.2297  0.0401 -0.0578
  173DOPC   O1321057   2.419   4.596  11.574 -0.8214  0.2576  0.3079
  173DOPC   O1421058   2.223   4.500  11.704 -0.3895 -0.1945  0.3285
  173DOPC   O1221059   2.306   4.725  11.747 -0.1334  0.0626  0.0670
  173DOPC   O1121060   2.451   4.536  11.809 -0.4937  0.1297 -0.3930
  173DOPC    C121061   2.398   4.462  11.921  0.3801  0.3175  0.1081
  173DOPC    HA21062   2.476   4.393  11.959  0.4301  0.9366  1.1767
  173DOPC    HB21063   2.317   4.392  11.891 -0.5674  1.1091  0.7512
  173DOPC    C221064   2.374   4.540  12.051 -0.3033  0.2120  0.3167
  173DOPC    HS21065   2.296   4.612  12.018 -1.8932 -0.1652  2.9720
  173DOPC   O2121066   2.484   4.625  12.079 -0.1253  0.0820  0.5550
  173DOPC   C2121067   2.459   4.752  12.098  0.3570 -0.9470  0.0676
  173DOPC   O2221068   2.348   4.808  12.088  0.0661 -0.1020 -0.0188
  173DOPC   C2221069   2.588   4.821  12.156  0.2513  0.3454 -0.6532
  173DOPC   H2R21070   2.560   4.921  12.195 -1.6278  0.5087 -2.3084
  173DOPC   H2S21071   2.658   4.833  12.070 -0.2291 -1.0586 -1.2731
  173DOPC    C321072   2.329   4.437  12.160 -0.5036 -0.5317  0.4830
  173DOPC    HX21073   2.400   4.352  12.160 -0.4342 -0.4916  1.8844
  173DOPC    HY21074   2.236   4.387  12.125 -1.5242  1.4956  0.1014
  173DOPC   O3121075   2.316   4.493  12.291 -0.0686 -0.2660  0.1052
  173DOPC   C3121076   2.255   4.409  12.373  0.7735  0.7278  0.0374
  173DOPC   O3221077   2.221   4.296  12.339  0.5915 -0.8741 -0.3927
  173DOPC   C3221078   2.260   4.460  12.513 -0.0351 -0.3615  0.0616
  173DOPC   H2X21079   2.364   4.454  12.552  0.0901 -3.1255 -0.4535
  173DOPC   H2Y21080   2.224   4.564  12.522 -0.2813 -0.4063 -0.3967
  173DOPC   C2321081   2.665   4.744  12.265 -0.0016 -0.8261  0.3281
  173DOPC   H3R21082   2.762   4.798  12.254  1.0241 -2.6863 -0.2707
  173DOPC   H3S21083   2.664   4.634  12.251 -4.6170 -0.7994 -1.0416
  173DOPC   C2421084   2.618   4.779  12.410 -0.5779  0.8336  0.5208
  173DOPC   H4R21085   2.507   4.775  12.403 -0.5803  3.3983 -3.0456
  173DOPC   H4S21086   2.651   4.879  12.445  0.5411  0.8063 -0.4311
  173DOPC   C2521087   2.654   4.674  12.515 -0.2553 -0.1959  0.8515
  173DOPC   H5R21088   2.763   4.670  12.537 -0.3303  0.9164  1.4911
  173DOPC   H5S21089   2.619   4.576  12.475 -2.6451  1.1360 -0.5404
  173DOPC   C2621090   2.582   4.695  12.649  0.2762 -0.2258  0.7535
  173DOPC   H6R21091   2.474   4.687  12.622  0.6439 -3.5555 -0.1403
  173DOPC   H6S21092   2.611   4.793  12.693 -0.7475  0.5016 -0.1257
  173DOPC   C2721093   2.604   4.592  12.756  0.4632  1.2687 -0.2207
  173DOPC   H7R21094   2.711   4.596  12.786  1.2186  0.6961 -2.6042
  173DOPC   H7S21095   2.608   4.494  12.704  0.6652  2.0086 -1.6507
  173DOPC   C2821096   2.501   4.604  12.878  0.6046  0.4528  0.1878
  173DOPC   H8R21097   2.530   4.532  12.958  0.0065 -0.2360 -0.2030
  173DOPC   H8S21098   2.404   4.567  12.838  0.8699 -0.3754  0.2778
  173DOPC   C2921099   2.495   4.736  12.943  0.3247  0.4268  0.3561
  173DOPC   H9R21100   2.552   4.818  12.896  2.5076  0.1404  2.3356
  173DOPC  C21021101   2.441   4.770  13.058 -0.1222  0.1029 -0.5555
  173DOPC  H10R21102   2.437   4.874  13.093 -0.8844 -0.0183 -0.2662
  173DOPC  C21121103   2.361   4.682  13.147  0.5904 -0.1215 -0.1963
  173DOPC  H11R21104   2.314   4.601  13.087 -0.2551  0.4206 -0.2895
  173DOPC  H11S21105   2.282   4.740  13.201  1.3750 -0.0743  0.9431
  173DOPC  C21221106   2.459   4.631  13.257  0.3853 -0.1116  0.3571
  173DOPC  H12R21107   2.514   4.717  13.300 -0.4397  0.5698  0.0578
  173DOPC  H12S21108   2.530   4.560  13.209 -0.1191 -0.3083 -0.1082
  173DOPC  C21321109   2.383   4.568  13.373 -0.5056 -0.4221 -0.1044
  173DOPC  H13R21110   2.327   4.481  13.331 -1.1028 -0.1229  0.0630
  173DOPC  H13S21111   2.310   4.635  13.424 -0.2045 -0.1071 -0.0917
  173DOPC  C21421112   2.475   4.521  13.487 -0.5757 -0.0351  0.2548
  173DOPC  H14R21113   2.526   4.608  13.535 -0.2676  0.2783 -0.6252
  173DOPC  H14S21114   2.561   4.467  13.441 -0.3113  0.9873 -0.4890
  173DOPC  C21521115   2.414   4.424  13.584 -0.3989  0.0837 -0.1374
  173DOPC  H15R21116   2.387   4.326  13.539  0.8632  0.5181 -1.9674
  173DOPC  H15S21117   2.326   4.482  13.621  0.6240  1.8901 -0.4106
  173DOPC  C21621118   2.498   4.391  13.706 -0.3988  0.5135  0.3527
  173DOPC  H16R21119   2.550   4.485  13.735  0.2383  0.6482 -1.1253
  173DOPC  H16S21120   2.575   4.321  13.669 -2.0750  0.2570 -3.0798
  173DOPC  C21721121   2.421   4.337  13.824 -0.4248  0.0131 -0.1805
  173DOPC  H17R21122   2.351   4.260  13.785 -1.8211  0.4144  1.4499
  173DOPC  H17S21123   2.355   4.418  13.862 -0.1124  0.2831 -0.2119
  173DOPC  C21821124   2.496   4.272  13.938  0.3291 -0.3779 -0.3598
  173DOPC  H18R21125   2.509   4.163  13.921  0.9891 -0.3268 -0.1672
  173DOPC  H18S21126   2.446   4.282  14.037  0.7764 -0.0930 -0.1584
  173DOPC  H18T21127   2.596   4.319  13.946  0.7009 -0.6735 -2.6338
  173DOPC   C3321128   2.191   4.356  12.610 -0.0916 -0.0331 -0.9683
  173DOPC   H3X21129   2.220   4.252  12.585  3.5954  0.6419 -0.0327
  173DOPC   H3Y21130   2.084   4.376  12.587 -0.9510 -1.2367  1.6439
  173DOPC   C3421131   2.218   4.378  12.758 -0.6391 -0.1592  0.2417
  173DOPC   H4X21132   2.187   4.484  12.772  0.9012  0.1843  1.2913
  173DOPC   H4Y21133   2.326   4.358  12.769 -0.6432 -0.0982  0.4024
  173DOPC   C3521134   2.127   4.301  12.857 -0.5075 -0.5428 -0.7538
  173DOPC   H5X21135   2.142   4.191  12.847  0.1856 -0.3839 -1.6267
  173DOPC   H5Y21136   2.021   4.314  12.826 -0.4879 -0.6064 -0.8505
  173DOPC   C3621137   2.145   4.358  13.000  0.1987  0.0529 -0.4864
  173DOPC   H6X21138   2.251   4.350  13.035 -0.2668  0.8429  1.2244
  173DOPC   H6Y21139   2.116   4.465  13.005  1.9151  0.5192  1.7339
  173DOPC   C3721140   2.059   4.287  13.110 -0.1218 -0.3637  0.3480
  173DOPC   H7X21141   1.967   4.257  13.055  1.7224 -1.2734 -2.4524
  173DOPC   H7Y21142   2.111   4.194  13.140  0.2111 -0.5476 -0.7490
  173DOPC   C3821143   2.025   4.382  13.227  0.2858  0.4437  0.1016
  173DOPC   H8X21144   2.123   4.428  13.254  2.0621 -1.8459 -1.9113
  173DOPC   H8Y21145   2.005   4.322  13.318  2.9994  0.8258  1.0389
  173DOPC   C3921146   1.907   4.478  13.205  0.1550  0.5576  0.0112
  173DOPC   H9X21147   1.826   4.439  13.142  0.2810 -4.1620  2.3044
  173DOPC  C31021148   1.879   4.590  13.278 -0.0320  0.5888  0.1247
  173DOPC  H10X21149   1.789   4.649  13.252 -1.7900 -0.8083  2.5886
  173DOPC  C31121150   1.961   4.640  13.395  0.3664  0.4707  0.2978
  173DOPC  H11X21151   1.961   4.751  13.408 -0.2455  0.6792 -1.2507
  173DOPC  H11Y21152   2.068   4.611  13.389 -0.0177 -0.9505 -0.0703
  173DOPC  C31221153   1.913   4.577  13.527  0.4059 -0.0369 -0.7008
  173DOPC  H12X21154   1.919   4.466  13.522 -0.2834 -0.1788  1.2171
  173DOPC  H12Y21155   1.807   4.610  13.533  0.5733  0.4527 -0.4757
  173DOPC  C31321156   1.985   4.622  13.651 -0.6678 -0.0191  0.7864
  173DOPC  H13X21157   2.090   4.589  13.638 -0.7561  0.3900 -1.4107
  173DOPC  H13Y21158   1.982   4.733  13.645 -3.2191  0.0128  1.2654
  173DOPC  C31421159   1.921   4.573  13.779 -0.8172 -0.0436 -0.3484
  173DOPC  H14X21160   1.817   4.610  13.766 -0.4699  0.2830 -2.4972
  173DOPC  H14Y21161   1.920   4.462  13.778  0.2937 -0.0686  0.2160
  173DOPC  C31521162   1.988   4.620  13.918 -0.2613 -0.1930 -0.1641
  173DOPC  H15X21163   1.912   4.593  13.995  0.5706 -0.5697  0.5518
  173DOPC  H15Y21164   1.992   4.731  13.921  2.5135 -0.2358  1.1431
  173DOPC  C31621165   2.128   4.558  13.942 -0.1241  0.4651 -0.6935
  173DOPC  H16X21166   2.128   4.448  13.926  0.2804  0.3974 -0.2630
  173DOPC  H16Y21167   2.199   4.607  13.872 -1.2497  1.5057 -1.1381
  173DOPC  C31721168   2.170   4.573  14.090 -0.0817  0.0373 -0.0904
  173DOPC  H17X21169   2.271   4.529  14.105  0.4599 -0.3590 -4.0492
  173DOPC  H17Y21170   2.179   4.682  14.112  0.6650 -0.3766  1.8427
  173DOPC  C31821171   2.069   4.529  14.196  0.0466  0.3266 -0.0331
  173DOPC  H18X21172   2.044   4.421  14.188  1.4345 -0.0269  0.1708
  173DOPC  H18Y21173   2.110   4.542  14.299 -0.0605  1.4000 -0.1123
  173DOPC  H18Z21174   1.973   4.585  14.186 -0.7825 -1.4115 -3.1173
  174DOPC     N21175   5.608   3.822  11.902  0.5763 -0.1106 -0.5631
  174DOPC   C1221176   5.530   3.921  11.988  0.2843 -0.0058  0.7508
  174DOPC  H12A21177   5.492   3.994  11.918 -2.2720 -1.2151  0.7475
  174DOPC  H12B21178   5.596   3.974  12.056 -2.5513  0.4939  3.3576
  174DOPC   C1321179   5.689   3.733  12.000 -0.0368 -0.0730  0.0878
  174DOPC  H13A21180   5.614   3.673  12.049 -1.2388 -0.2263 -1.8383
  174DOPC  H13B21181   5.748   3.671  11.934 -1.7590  1.1533 -2.8190
  174DOPC  H13C21182   5.742   3.800  12.066 -1.2366  1.4323 -0.4176
  174DOPC   C1421183   5.710   3.899  11.825 -0.1322 -0.1369  0.0957
  174DOPC  H14A21184   5.786   3.834  11.784 -0.3909 -0.1986 -0.3020
  174DOPC  H14B21185   5.661   3.950  11.743  0.1990 -0.9283 -0.6097
  174DOPC  H14C21186   5.766   3.970  11.884 -1.0754 -0.8974  1.9829
  174DOPC   C1521187   5.524   3.730  11.812 -0.7466 -0.8966 -1.0761
  174DOPC  H15A21188   5.593   3.654  11.778  1.3901  0.0594  0.7968
  174DOPC  H15B21189   5.487   3.777  11.723  0.4855  1.4375 -0.4487
  174DOPC  H15C21190   5.446   3.695  11.878  0.9808 -0.3609  1.4448
  174DOPC   C1121191   5.412   3.867  12.080 -0.2434  0.1214 -0.4883
  174DOPC  H11A21192   5.454   3.783  12.138  0.0809  0.7117  0.1378
  174DOPC  H11B21193   5.379   3.947  12.149 -1.7972  0.0383 -1.0912
  174DOPC     P21194   5.199   3.713  12.065  0.1997  0.2042 -0.0233
  174DOPC   O1321195   5.266   3.580  12.058 -0.0010  0.2205 -0.6578
  174DOPC   O1421196   5.071   3.723  11.994 -0.6533 -0.3221 -0.3679
  174DOPC   O1221197   5.298   3.822  12.001  0.4880  0.2425 -0.3725
  174DOPC   O1121198   5.175   3.761  12.212 -0.7703  0.1683 -0.2180
  174DOPC    C121199   5.219   3.704  12.331  0.1983  0.2236  0.2131
  174DOPC    HA21200   5.176   3.767  12.412 -1.1057 -1.2089  0.6966
  174DOPC    HB21201   5.328   3.708  12.351  0.2049  0.4772  0.1280
  174DOPC    C221202   5.167   3.563  12.373 -0.0413 -0.1533  0.0734
  174DOPC    HS21203   5.192   3.489  12.294  1.3740 -0.8110  1.1030
  174DOPC   O2121204   5.022   3.586  12.394  0.3462  0.4861 -0.0424
  174DOPC   C2121205   4.949   3.473  12.396 -0.4806  0.0079  0.1400
  174DOPC   O2221206   4.997   3.360  12.374 -0.0814  0.1304  0.7397
  174DOPC   C2221207   4.809   3.516  12.421  0.1453  0.4766 -0.0211
  174DOPC   H2R21208   4.779   3.531  12.315 -0.9404 -2.0608 -0.1416
  174DOPC   H2S21209   4.798   3.608  12.482  0.4582  0.4962  0.0085
  174DOPC    C321210   5.242   3.513  12.502 -0.2759  0.5925  0.2926
  174DOPC    HX21211   5.350   3.505  12.482 -0.1255  2.3703  0.2453
  174DOPC    HY21212   5.205   3.412  12.530 -1.2985  0.2503 -2.0226
  174DOPC   O3121213   5.231   3.619  12.602 -0.1242 -0.4732  0.0635
  174DOPC   C3121214   5.137   3.597  12.685 -0.6413 -0.0544 -0.0692
  174DOPC   O3221215   5.054   3.507  12.682  0.1707  0.2305  0.1561
  174DOPC   C3221216   5.144   3.720  12.777 -0.4995 -0.4667  0.5735
  174DOPC   H2X21217   5.236   3.716  12.839  0.3332 -1.0944 -0.6748
  174DOPC   H2Y21218   5.146   3.811  12.714 -0.3849 -0.2606  0.8719
  174DOPC   C2321219   4.721   3.399  12.487  0.1256 -0.1380  0.2463
  174DOPC   H3R21220   4.759   3.299  12.460  1.7323  0.7817 -1.0761
  174DOPC   H3S21221   4.618   3.402  12.445 -0.2877  1.0917  1.2654
  174DOPC   C2421222   4.721   3.421  12.641  0.2423  1.1415  0.2063
  174DOPC   H4R21223   4.798   3.493  12.678  1.3777  0.1990 -0.2347
  174DOPC   H4S21224   4.759   3.327  12.687 -0.4777 -0.3919 -2.1518
  174DOPC   C2521225   4.579   3.442  12.697 -0.6561  0.6782  0.3085
  174DOPC   H5R21226   4.537   3.340  12.715 -0.6488  0.2102 -2.0043
  174DOPC   H5S21227   4.506   3.485  12.626 -0.9587  2.3860  1.6013
  174DOPC   C2621228   4.564   3.519  12.834  0.1497 -0.5246 -0.3968
  174DOPC   H6R21229   4.460   3.544  12.862  0.0693  0.0000 -1.1433
  174DOPC   H6S21230   4.618   3.612  12.809  0.6701  0.1539  2.8591
  174DOPC   C2721231   4.654   3.468  12.943  0.4071 -0.0222  0.1217
  174DOPC   H7R21232   4.746   3.419  12.905  0.4310 -0.0654  0.2355
  174DOPC   H7S21233   4.608   3.385  13.002  1.1655 -0.3823  0.2171
  174DOPC   C2821234   4.705   3.577  13.048  0.2623 -0.3616  0.4327
  174DOPC   H8R21235   4.742   3.667  12.994 -1.2411  0.2370  0.3527
  174DOPC   H8S21236   4.782   3.536  13.117 -0.2241 -0.5346  0.8781
  174DOPC   C2921237   4.602   3.638  13.137  0.1603  0.4761  0.5623
  174DOPC   H9R21238   4.547   3.722  13.092  1.0445 -0.4007 -2.4159
  174DOPC  C21021239   4.578   3.609  13.265  0.7803 -0.3303 -0.1259
  174DOPC  H10R21240   4.504   3.675  13.313  1.2532 -1.2109  1.9098
  174DOPC  C21121241   4.661   3.523  13.360 -0.0692  0.4802 -0.2111
  174DOPC  H11R21242   4.754   3.573  13.393  1.3520 -2.4015  0.4358
  174DOPC  H11S21243   4.694   3.435  13.300  2.4805 -0.9863  3.0697
  174DOPC  C21221244   4.575   3.473  13.480  0.3116  0.3570  0.0482
  174DOPC  H12R21245   4.647   3.406  13.533 -0.2731  0.2556  0.7255
  174DOPC  H12S21246   4.480   3.418  13.466 -0.8426  2.0220  1.0420
  174DOPC  C21321247   4.540   3.594  13.569 -0.7547 -0.3076 -0.0270
  174DOPC  H13R21248   4.456   3.648  13.520 -0.1356  1.2382  0.5418
  174DOPC  H13S21249   4.614   3.676  13.561 -2.3245  1.1517 -0.2682
  174DOPC  C21421250   4.506   3.553  13.720  0.4829  0.7534  0.5509
  174DOPC  H14R21251   4.435   3.469  13.717  1.2004  0.1645 -1.0672
  174DOPC  H14S21252   4.442   3.633  13.762 -0.1605  0.6734 -0.2379
  174DOPC  C21521253   4.620   3.521  13.816  0.6538 -0.4051  1.1571
  174DOPC  H15R21254   4.693   3.604  13.814  0.8583 -0.4970 -2.4025
  174DOPC  H15S21255   4.667   3.437  13.760 -2.0446 -1.0616 -0.3182
  174DOPC  C21621256   4.573   3.485  13.956  0.1007  0.0846 -0.1870
  174DOPC  H16R21257   4.670   3.441  13.989 -0.3097 -0.0757  0.8241
  174DOPC  H16S21258   4.498   3.404  13.947 -0.0796  0.2249  0.0442
  174DOPC  C21721259   4.513   3.589  14.054 -0.0303 -0.1761  0.0086
  174DOPC  H17R21260   4.435   3.641  13.995  1.0180  0.2175 -1.0550
  174DOPC  H17S21261   4.593   3.662  14.078 -0.6189  1.2047 -1.9824
  174DOPC  C21821262   4.458   3.522  14.180  0.4312 -0.4185 -0.8828
  174DOPC  H18R21263   4.371   3.464  14.140  0.5277  0.9108 -3.2232
  174DOPC  H18S21264   4.413   3.601  14.244  1.1504 -1.0043  0.3738
  174DOPC  H18T21265   4.532   3.447  14.214  1.2011  0.3201 -0.8832
  174DOPC   C3321266   5.038   3.715  12.885  0.1481 -0.4162 -0.6467
  174DOPC   H3X21267   5.034   3.618  12.939  0.5441  0.3683  0.8493
  174DOPC   H3Y21268   4.935   3.729  12.846 -0.8397  0.0210  1.9197
  174DOPC   C3421269   5.058   3.821  13.000  0.2901  0.0851 -0.0347
  174DOPC   H4X21270   5.052   3.923  12.956 -2.9863 -0.0848 -0.2541
  174DOPC   H4Y21271   5.159   3.808  13.045 -0.7144  1.4013  2.8988
  174DOPC   C3521272   4.953   3.813  13.115 -0.3119 -0.0438 -0.2412
  174DOPC   H5X21273   4.957   3.706  13.145  0.2655 -0.7694 -2.6653
  174DOPC   H5Y21274   4.851   3.825  13.071 -0.6841  0.2044  0.6730
  174DOPC   C3621275   4.981   3.911  13.227 -0.0443 -0.1859  0.1325
  174DOPC   H6X21276   5.071   3.886  13.288  1.2844 -0.2872 -1.7971
  174DOPC   H6Y21277   4.985   4.013  13.182 -1.0240 -0.0049  0.4231
  174DOPC   C3721278   4.859   3.903  13.318  0.4289  0.6009  0.0355
  174DOPC   H7X21279   4.768   3.921  13.257  0.8378  0.1091 -0.7362
  174DOPC   H7Y21280   4.845   3.796  13.346  2.6612  0.4800  0.8780
  174DOPC   C3821281   4.861   3.979  13.454  0.4085  0.0207  0.4586
  174DOPC   H8X21282   4.763   3.969  13.504 -0.8566  2.4838 -1.3097
  174DOPC   H8Y21283   4.882   4.086  13.432  2.4579 -0.1267  1.4419
  174DOPC   C3921284   4.976   3.937  13.547  0.3921  0.3870 -0.3903
  174DOPC   H9X21285   5.062   3.934  13.479 -0.7544  2.1759 -2.0035
  174DOPC  C31021286   4.971   3.902  13.681 -0.3197  0.0626  0.1025
  174DOPC  H10X21287   5.068   3.873  13.724 -1.0830  0.0137  1.8442
  174DOPC  C31121288   4.855   3.875  13.777 -1.0959 -0.2707  0.7504
  174DOPC  H11X21289   4.883   3.777  13.820  1.2406 -0.8239 -1.7435
  174DOPC  H11Y21290   4.758   3.859  13.725 -0.5924  1.8584 -1.0085
  174DOPC  C31221291   4.849   3.982  13.890  0.2676  0.3365 -0.0673
  174DOPC  H12X21292   4.807   4.074  13.845  0.5782  0.7631  0.5065
  174DOPC  H12Y21293   4.946   4.006  13.937  0.0376 -0.7009  0.9745
  174DOPC  C31321294   4.751   3.950  14.004  0.1090  0.0760 -0.6055
  174DOPC  H13X21295   4.672   4.027  14.014  0.7173  1.0682 -2.8033
  174DOPC  H13Y21296   4.707   3.853  13.971 -1.2520 -0.0862  1.5281
  174DOPC  C31421297   4.818   3.918  14.142 -0.4308  0.2348  0.5514
  174DOPC  H14X21298   4.740   3.872  14.207  0.3850 -2.7186 -0.4118
  174DOPC  H14Y21299   4.888   3.835  14.120 -2.2979 -0.7672 -2.2693
  174DOPC  C31521300   4.885   4.043  14.208  0.4465 -0.2885  0.1945
  174DOPC  H15X21301   4.810   4.124  14.221 -0.0526 -0.7351  0.1121
  174DOPC  H15Y21302   4.958   4.093  14.140 -1.7912  0.0447 -2.1092
  174DOPC  C31621303   4.964   4.005  14.335  1.0900 -0.1071 -0.6971
  174DOPC  H16X21304   5.024   3.912  14.322  2.4981  0.6869 -0.1694
  174DOPC  H16Y21305   5.045   4.077  14.360 -0.1478  0.7735  0.9864
  174DOPC  C31721306   4.866   3.998  14.452 -0.1467 -0.8617 -0.1983
  174DOPC  H17X21307   4.770   3.983  14.398  0.8812 -0.5471 -2.1765
  174DOPC  H17Y21308   4.878   3.914  14.524  0.0686  1.8016  3.1028
  174DOPC  C31821309   4.863   4.136  14.528  0.1756  0.5635 -0.3973
  174DOPC  H18X21310   4.857   4.221  14.457  0.9123  0.7075 -0.2948
  174DOPC  H18Y21311   4.775   4.136  14.596 -1.0919 -1.3714 -1.9389
  174DOPC  H18Z21312   4.955   4.146  14.590 -1.0381  0.3744  1.5224
  175DOPC     N21313   2.998   0.799  12.326 -0.2349  0.4300 -0.5119
  175DOPC   C1221314   2.988   0.944  12.309 -0.4744 -0.0824  0.2361
  175DOPC  H12A21315   2.920   0.958  12.226  1.6061 -0.7194 -1.6757
  175DOPC  H12B21316   3.081   0.993  12.285 -0.8665  0.2751 -0.6252
  175DOPC   C1321317   2.860   0.751  12.352 -0.7007 -0.6291 -0.3704
  175DOPC  H13A21318   2.854   0.645  12.368 -0.7755 -0.5026  0.4923
  175DOPC  H13B21319   2.808   0.797  12.435 -2.4597 -0.9264 -1.2713
  175DOPC  H13C21320   2.803   0.770  12.263  3.5589  1.2577 -3.0099
  175DOPC   C1421321   3.087   0.752  12.437 -0.7187 -0.1312 -0.4956
  175DOPC  H14A21322   3.056   0.804  12.526  0.9921 -1.1620  0.7495
  175DOPC  H14B21323   3.072   0.646  12.449  1.6968 -0.5222 -0.4573
  175DOPC  H14C21324   3.192   0.760  12.413 -0.5540  0.9085  0.5264
  175DOPC   C1521325   3.039   0.728  12.202  0.3879  0.6731 -0.5432
  175DOPC  H15A21326   3.140   0.756  12.176  0.9123  0.9502  1.5909
  175DOPC  H15B21327   2.964   0.742  12.126  0.3309  0.4505 -0.5278
  175DOPC  H15C21328   3.048   0.626  12.235  1.6060  1.0433  0.3661
  175DOPC   C1121329   2.927   1.027  12.427  0.1217 -0.3843 -1.0390
  175DOPC  H11A21330   2.979   0.985  12.516  1.9320 -0.0096 -1.8890
  175DOPC  H11B21331   2.950   1.135  12.416  0.0890 -0.1337  0.9844
  175DOPC     P21332   2.680   1.068  12.339  0.0909  0.1451 -0.0284
  175DOPC   O1321333   2.548   0.994  12.343  0.0921 -0.3632  0.6087
  175DOPC   O1421334   2.736   1.078  12.201 -0.6647  0.1134 -0.0096
  175DOPC   O1221335   2.784   1.006  12.445 -0.4893 -0.2231 -0.1620
  175DOPC   O1121336   2.646   1.219  12.382 -0.3864 -0.3687 -0.2295
  175DOPC    C121337   2.689   1.286  12.504 -0.1006 -0.0763  0.7334
  175DOPC    HA21338   2.700   1.391  12.471  1.2680 -0.3934  0.0985
  175DOPC    HB21339   2.777   1.237  12.550 -2.5570 -3.1668  2.5351
  175DOPC    C221340   2.590   1.282  12.621 -0.6029  0.0814 -0.6039
  175DOPC    HS21341   2.649   1.321  12.706  0.8444 -1.2473 -0.9415
  175DOPC   O2121342   2.560   1.143  12.648 -0.2961 -0.2783 -0.3682
  175DOPC   C2121343   2.549   1.113  12.777  0.4482 -0.2931  0.2887
  175DOPC   O2221344   2.585   1.184  12.869 -0.8239 -0.0819 -0.0124
  175DOPC   C2221345   2.456   0.990  12.790  0.0112 -0.3830 -0.1728
  175DOPC   H2R21346   2.483   0.904  12.725  1.9006  1.5638 -2.1324
  175DOPC   H2S21347   2.357   1.030  12.759  0.7107  0.9343 -0.7643
  175DOPC    C321348   2.457   1.363  12.601  0.3013  0.4995 -0.9020
  175DOPC    HX21349   2.402   1.302  12.526 -1.2091 -1.1378  1.4244
  175DOPC    HY21350   2.472   1.464  12.556 -1.2376  1.8391  1.3694
  175DOPC   O3121351   2.366   1.365  12.718  0.3889 -0.2148  0.2856
  175DOPC   C3121352   2.385   1.475  12.796 -0.2081 -0.3756  0.1995
  175DOPC   O3221353   2.463   1.566  12.770  0.9877  0.3421 -0.3165
  175DOPC   C3221354   2.289   1.473  12.918 -0.8769  0.2009  0.1430
  175DOPC   H2X21355   2.277   1.580  12.948  0.7319  0.3828  0.2218
  175DOPC   H2Y21356   2.201   1.411  12.890 -0.5950  0.0087 -0.3302
  175DOPC   C2321357   2.436   0.951  12.939  0.2588 -0.7539 -0.2530
  175DOPC   H3R21358   2.447   1.040  13.005  2.4527 -0.0471 -1.4666
  175DOPC   H3S21359   2.528   0.896  12.970 -0.5927 -0.7076  2.7294
  175DOPC   C2421360   2.307   0.874  12.958 -0.0233  0.6025 -0.1383
  175DOPC   H4R21361   2.312   0.782  12.896  1.7561  0.6803 -0.1684
  175DOPC   H4S21362   2.229   0.932  12.903 -0.8256 -1.2503 -1.0397
  175DOPC   C2521363   2.275   0.829  13.104 -0.2211  0.1165  0.0838
  175DOPC   H5R21364   2.201   0.746  13.106 -2.6062  2.1457  2.4629
  175DOPC   H5S21365   2.213   0.905  13.155  0.0750 -0.7270  1.7521
  175DOPC   C2621366   2.400   0.788  13.187  0.1707 -0.0034  0.2287
  175DOPC   H6R21367   2.450   0.879  13.227  0.3800  0.1858 -0.4527
  175DOPC   H6S21368   2.471   0.729  13.125  0.3681 -0.3311  0.7611
  175DOPC   C2721369   2.377   0.693  13.309 -0.2729  0.3274  0.2259
  175DOPC   H7R21370   2.480   0.676  13.345  0.4996 -0.1472 -2.0395
  175DOPC   H7S21371   2.340   0.599  13.261  0.8498 -0.5244  0.9606
  175DOPC   C2821372   2.284   0.747  13.416 -0.1322  0.1450 -0.4187
  175DOPC   H8R21373   2.184   0.748  13.367 -0.4549  0.8328  0.2180
  175DOPC   H8S21374   2.301   0.854  13.442  1.9752 -0.3985  0.6177
  175DOPC   C2921375   2.278   0.648  13.533  0.0459  0.0228 -0.0251
  175DOPC   H9R21376   2.240   0.547  13.512 -2.2632  0.9979 -0.7538
  175DOPC  C21021377   2.303   0.674  13.667 -0.0776  0.4114 -0.0994
  175DOPC  H10R21378   2.296   0.578  13.721 -2.8869 -0.2049 -1.3726
  175DOPC  C21121379   2.358   0.798  13.732 -0.2583  0.1318  0.1290
  175DOPC  H11R21380   2.324   0.890  13.679 -1.6458 -0.2949  0.2557
  175DOPC  H11S21381   2.469   0.803  13.725 -0.3551  1.2760 -1.2600
  175DOPC  C21221382   2.311   0.826  13.878 -0.1655  0.6090  0.8234
  175DOPC  H12R21383   2.200   0.827  13.882 -0.1581  0.7854  1.0064
  175DOPC  H12S21384   2.362   0.919  13.912  1.3412  0.6697 -1.3653
  175DOPC  C21321385   2.361   0.731  13.977  0.3525  0.4664 -0.0832
  175DOPC  H13R21386   2.470   0.751  13.986  0.0331  2.0199  0.7089
  175DOPC  H13S21387   2.346   0.627  13.943 -1.0021  1.2875 -2.2301
  175DOPC  C21421388   2.306   0.751  14.112  0.5782  0.2490 -0.6154
  175DOPC  H14R21389   2.197   0.728  14.114  0.7309 -0.4694 -0.0971
  175DOPC  H14S21390   2.305   0.858  14.140  0.1833  0.0119  0.3144
  175DOPC  C21521391   2.371   0.670  14.233  0.2730  0.1960  0.6649
  175DOPC  H15R21392   2.478   0.699  14.241  0.0854  0.5328  2.4056
  175DOPC  H15S21393   2.350   0.563  14.211 -1.5395  0.5607  0.4251
  175DOPC  C21621394   2.307   0.707  14.371 -0.8407  0.1421  0.8910
  175DOPC  H16R21395   2.335   0.624  14.439  2.1775 -1.4063 -1.9395
  175DOPC  H16S21396   2.198   0.710  14.350 -0.6640 -0.4551 -0.2280
  175DOPC  C21721397   2.347   0.851  14.426 -0.2562 -0.0582 -0.4171
  175DOPC  H17R21398   2.273   0.892  14.498 -2.1664 -2.1925 -1.0389
  175DOPC  H17S21399   2.359   0.913  14.334 -0.8014 -1.2893 -1.3631
  175DOPC  C21821400   2.486   0.849  14.498  0.2393 -0.1908 -0.0051
  175DOPC  H18R21401   2.560   0.816  14.421 -0.9656  0.9851 -1.7427
  175DOPC  H18S21402   2.476   0.780  14.583  0.3384  2.8392  2.6665
  175DOPC  H18T21403   2.510   0.950  14.538 -2.0689  0.4370 -0.0795
  175DOPC   C3321404   2.347   1.409  13.049  0.1123 -0.0295 -0.4911
  175DOPC   H3X21405   2.455   1.436  13.050 -0.3416  1.9933 -0.7329
  175DOPC   H3Y21406   2.340   1.302  13.023  0.2388 -0.4044  0.9620
  175DOPC   C3421407   2.277   1.442  13.177 -0.3068  0.6980  0.3959
  175DOPC   H4X21408   2.177   1.395  13.168 -0.1737  0.4119  0.4151
  175DOPC   H4Y21409   2.269   1.552  13.196  1.8813  0.7477  1.3315
  175DOPC   C3521410   2.359   1.394  13.296 -0.0164 -0.0091  0.7806
  175DOPC   H5X21411   2.461   1.437  13.290  1.1372 -2.6927 -0.6084
  175DOPC   H5Y21412   2.378   1.286  13.278  1.0005  0.5826 -2.1385
  175DOPC   C3621413   2.294   1.426  13.433  0.5942 -0.3735  0.0724
  175DOPC   H6X21414   2.255   1.529  13.422  1.3072 -0.2089 -1.1840
  175DOPC   H6Y21415   2.213   1.350  13.437  1.3914 -1.1981  0.9506
  175DOPC   C3721416   2.383   1.422  13.554 -0.3593 -0.8037 -0.4500
  175DOPC   H7X21417   2.452   1.335  13.545 -0.0922 -0.5943 -0.4471
  175DOPC   H7Y21418   2.449   1.511  13.559 -2.2391  0.6115 -0.0444
  175DOPC   C3821419   2.312   1.414  13.693 -0.5563  0.4539  0.7415
  175DOPC   H8X21420   2.245   1.503  13.698  0.3002  1.1512  0.1037
  175DOPC   H8Y21421   2.388   1.424  13.773  1.6430 -0.0916 -1.1752
  175DOPC   C3921422   2.225   1.291  13.718  0.5827 -0.0724  0.3872
  175DOPC   H9X21423   2.158   1.278  13.633  1.1256 -1.1694  0.1171
  175DOPC  C31021424   2.225   1.205  13.818 -1.2668  0.0205  0.1202
  175DOPC  H10X21425   2.159   1.118  13.806 -0.8211 -0.2237 -0.6827
  175DOPC  C31121426   2.303   1.222  13.945  0.3192 -0.1464  0.3697
  175DOPC  H11X21427   2.330   1.329  13.956 -0.1617  0.2308 -1.6137
  175DOPC  H11Y21428   2.391   1.156  13.930  0.4583  0.2475 -0.6740
  175DOPC  C31221429   2.215   1.170  14.061  0.3402  0.3718 -0.5695
  175DOPC  H12X21430   2.199   1.065  14.028 -1.7627  0.6724 -0.6773
  175DOPC  H12Y21431   2.114   1.215  14.069 -0.9181 -2.5452  2.5833
  175DOPC  C31321432   2.289   1.193  14.191  0.5546  0.5956  0.4666
  175DOPC  H13X21433   2.248   1.133  14.275  0.0441  0.1128 -0.1119
  175DOPC  H13Y21434   2.391   1.153  14.175  1.6295  2.9952  0.9770
  175DOPC  C31421435   2.311   1.342  14.228 -0.6886  0.4190 -0.9061
  175DOPC  H14X21436   2.368   1.336  14.322 -1.6123  0.3732 -0.3403
  175DOPC  H14Y21437   2.380   1.387  14.153  0.8525 -1.6184 -0.7959
  175DOPC  C31521438   2.184   1.419  14.254  0.0097  0.3003  0.3170
  175DOPC  H15X21439   2.125   1.374  14.337  0.4529 -0.6054  0.1512
  175DOPC  H15Y21440   2.123   1.408  14.162  0.5867  0.1714 -0.0565
  175DOPC  C31621441   2.195   1.569  14.265 -0.1994 -0.3944 -0.1304
  175DOPC  H16X21442   2.251   1.599  14.357  1.3152 -2.2962 -0.3817
  175DOPC  H16Y21443   2.243   1.617  14.177  1.5345 -1.9662 -0.1008
  175DOPC  C31721444   2.057   1.645  14.299 -0.2066  0.4590  0.0685
  175DOPC  H17X21445   2.089   1.749  14.278 -0.0890  0.1743 -1.3011
  175DOPC  H17Y21446   1.983   1.622  14.219 -0.2237 -1.8528  0.6769
  175DOPC  C31821447   2.002   1.598  14.434 -0.0223  0.0752 -0.2925
  175DOPC  H18X21448   2.077   1.574  14.512 -0.2989 -0.1607 -0.0963
  175DOPC  H18Y21449   1.948   1.686  14.476  1.7774  0.5780  1.1051
  175DOPC  H18Z21450   1.936   1.510  14.435 -0.7653  0.6149  1.2049
  176DOPC     N21451   3.955   2.274  12.253 -0.0999 -0.1392  0.0748
  176DOPC   C1221452   3.871   2.249  12.381  0.0088  0.0013 -0.3951
  176DOPC  H12A21453   3.929   2.270  12.469  0.0752 -0.6926 -0.2688
  176DOPC  H12B21454   3.847   2.145  12.400  0.7370  0.3387  2.9512
  176DOPC   C1321455   4.086   2.197  12.257 -0.6579 -0.3427 -0.5727
  176DOPC  H13A21456   4.070   2.092  12.239 -0.8425 -0.4398  0.1334
  176DOPC  H13B21457   4.156   2.227  12.180 -0.5049 -2.9083 -1.5084
  176DOPC  H13C21458   4.144   2.211  12.347  0.9945 -1.7259 -1.3689
  176DOPC   C1421459   3.984   2.425  12.236 -0.5086 -0.1979 -0.0933
  176DOPC  H14A21460   4.036   2.473  12.317  1.5459 -0.3590 -1.2633
  176DOPC  H14B21461   4.038   2.450  12.145 -0.1307 -0.2438  0.1180
  176DOPC  H14C21462   3.889   2.473  12.214 -0.9276 -0.3255  1.3643
  176DOPC   C1521463   3.874   2.217  12.138 -0.7778 -0.1473  0.3427
  176DOPC  H15A21464   3.849   2.114  12.159  2.4735 -1.4860 -1.5425
  176DOPC  H15B21465   3.933   2.212  12.048 -0.4288 -1.4873  0.6241
  176DOPC  H15C21466   3.781   2.271  12.140 -0.3767  0.6283  2.9203
  176DOPC   C1121467   3.733   2.318  12.392  0.1937 -0.1917  0.2608
  176DOPC  H11A21468   3.698   2.312  12.498 -1.4261 -1.2275 -0.2792
  176DOPC  H11B21469   3.732   2.429  12.385 -0.3782 -0.2446 -0.5949
  176DOPC     P21470   3.498   2.195  12.342 -0.2469 -0.3717 -0.1831
  176DOPC   O1321471   3.442   2.118  12.227 -0.4536 -0.3192  0.7240
  176DOPC   O1421472   3.420   2.304  12.398 -0.3787 -0.3367  0.0826
  176DOPC   O1221473   3.642   2.263  12.297 -0.2918 -0.2669 -0.1824
  176DOPC   O1121474   3.545   2.097  12.456 -0.3636  0.7691  0.3798
  176DOPC    C121475   3.460   2.034  12.555 -0.2460 -0.2990 -0.1199
  176DOPC    HA21476   3.515   1.955  12.611 -0.1383  0.7663  1.3483
  176DOPC    HB21477   3.371   1.982  12.515 -0.2679 -0.3774  0.0277
  176DOPC    C221478   3.413   2.135  12.660 -0.4416 -0.1086  0.4195
  176DOPC    HS21479   3.344   2.203  12.605  0.3823 -0.0424 -0.5572
  176DOPC   O2121480   3.528   2.204  12.711 -0.2438 -0.3008  0.3365
  176DOPC   C2121481   3.512   2.331  12.739 -0.6911  0.4113  0.5264
  176DOPC   O2221482   3.408   2.393  12.729  0.2454 -0.2405 -0.5620
  176DOPC   C2221483   3.642   2.396  12.776 -0.8292 -0.0897  0.3446
  176DOPC   H2R21484   3.699   2.398  12.680 -0.4361 -1.5277  0.5156
  176DOPC   H2S21485   3.712   2.329  12.830  2.4839  1.1424 -2.0549
  176DOPC    C321486   3.323   2.076  12.770 -0.2544  0.2698 -0.1441
  176DOPC    HX21487   3.233   2.029  12.725 -0.1557  0.3260 -0.4013
  176DOPC    HY21488   3.289   2.158  12.836  1.3020  0.5865  0.2960
  176DOPC   O3121489   3.396   1.976  12.844 -0.9367  0.0591 -0.2778
  176DOPC   C3121490   3.479   2.017  12.937  0.5108  0.5435  0.7242
  176DOPC   O3221491   3.474   2.129  12.985  0.5124  0.2307  0.4100
  176DOPC   C3221492   3.576   1.903  12.971  0.0370 -0.3155 -0.2361
  176DOPC   H2X21493   3.565   1.820  12.898  1.8381 -1.5693  0.8372
  176DOPC   H2Y21494   3.679   1.935  12.946 -0.3238 -0.1031 -1.5142
  176DOPC   C2321495   3.636   2.542  12.827 -0.5232  0.3742 -0.5852
  176DOPC   H3R21496   3.572   2.608  12.764 -0.7075  0.5522 -0.2182
  176DOPC   H3S21497   3.735   2.592  12.821 -0.0682 -0.6526 -2.5617
  176DOPC   C2421498   3.593   2.545  12.973  0.6704  0.9405  0.2997
  176DOPC   H4R21499   3.489   2.506  12.970  1.3659 -1.0671 -2.0900
  176DOPC   H4S21500   3.582   2.650  13.004  0.9247  0.8251  0.7893
  176DOPC   C2521501   3.696   2.473  13.065  0.2133  0.4504 -0.4188
  176DOPC   H5R21502   3.787   2.537  13.060 -0.7165  1.7753 -1.1135
  176DOPC   H5S21503   3.728   2.374  13.027 -0.7963 -0.7991  1.7812
  176DOPC   C2621504   3.657   2.473  13.216 -0.3425 -0.0752 -0.5078
  176DOPC   H6R21505   3.562   2.422  13.240 -0.6408  1.4129  1.7985
  176DOPC   H6S21506   3.644   2.580  13.244  0.0540  0.9739 -3.8755
  176DOPC   C2721507   3.761   2.410  13.308 -0.3761  0.3654 -0.4374
  176DOPC   H7R21508   3.853   2.471  13.296  0.1075  0.1319  1.6768
  176DOPC   H7S21509   3.773   2.306  13.273 -0.7778  0.2990 -0.3826
  176DOPC   C2821510   3.714   2.425  13.453  1.4255 -0.6809  0.5461
  176DOPC   H8R21511   3.680   2.527  13.481  0.8591 -0.8731  0.5512
  176DOPC   H8S21512   3.804   2.404  13.515  0.5974 -1.5651  1.4733
  176DOPC   C2921513   3.600   2.328  13.488 -0.2039 -0.5083  0.7823
  176DOPC   H9R21514   3.520   2.313  13.413  2.2088  1.1724 -2.3357
  176DOPC  C21021515   3.602   2.240  13.590 -0.6218  0.1981  0.1753
  176DOPC  H10R21516   3.514   2.175  13.603  0.3428 -0.6580  3.3099
  176DOPC  C21121517   3.710   2.219  13.699 -0.1244 -0.0315  0.7181
  176DOPC  H11R21518   3.804   2.254  13.651 -1.1676  0.4184 -1.0980
  176DOPC  H11S21519   3.726   2.111  13.715 -0.4524 -0.5953 -2.1027
  176DOPC  C21221520   3.678   2.293  13.831  0.1572 -0.1811  0.7399
  176DOPC  H12R21521   3.579   2.260  13.869 -0.1585  0.0720  0.1443
  176DOPC  H12S21522   3.681   2.403  13.818  0.3102 -0.0472  1.8033
  176DOPC  C21321523   3.780   2.247  13.939  0.1993 -0.5222  0.9500
  176DOPC  H13R21524   3.873   2.277  13.887 -0.5601 -0.8083 -0.6435
  176DOPC  H13S21525   3.770   2.137  13.944  1.1242 -0.9553 -3.0051
  176DOPC  C21421526   3.756   2.314  14.075  0.3322  0.1549 -0.0060
  176DOPC  H14R21527   3.656   2.291  14.118  0.4231  0.8712  0.6174
  176DOPC  H14S21528   3.763   2.425  14.070  1.3128  0.2152  1.9317
  176DOPC  C21521529   3.868   2.273  14.170  0.0395 -0.9209  0.6345
  176DOPC  H15R21530   3.972   2.291  14.133  0.3208  0.0042  1.8013
  176DOPC  H15S21531   3.850   2.164  14.182 -1.7700 -0.8160 -0.7324
  176DOPC  C21621532   3.869   2.329  14.314  0.1296  0.0608  0.0875
  176DOPC  H16R21533   3.868   2.440  14.301  2.6807  0.3836  1.7933
  176DOPC  H16S21534   3.968   2.322  14.364  1.0819 -2.1184 -1.9290
  176DOPC  C21721535   3.746   2.279  14.399  0.0963 -0.3164  0.2669
  176DOPC  H17R21536   3.748   2.171  14.372  0.5602  0.2874 -2.4328
  176DOPC  H17S21537   3.651   2.324  14.363  1.2601  0.5350 -1.9467
  176DOPC  C21821538   3.761   2.293  14.550 -0.3453 -0.0245 -0.3495
  176DOPC  H18R21539   3.677   2.238  14.599 -0.2927  0.5008  0.3423
  176DOPC  H18S21540   3.766   2.394  14.596  0.5254 -0.1859 -0.0733
  176DOPC  H18T21541   3.843   2.225  14.583 -1.7785 -1.7002 -0.0997
  176DOPC   C3321542   3.566   1.863  13.115  0.4733 -0.0923 -0.6255
  176DOPC   H3X21543   3.473   1.806  13.135 -0.4627  1.2206 -1.0948
  176DOPC   H3Y21544   3.554   1.956  13.175 -2.2976 -1.5200  1.2413
  176DOPC   C3421545   3.684   1.780  13.166  0.1623  0.1559 -0.1792
  176DOPC   H4X21546   3.771   1.848  13.156 -0.5601  1.0505 -0.5557
  176DOPC   H4Y21547   3.699   1.689  13.103 -1.9169  0.9855 -2.0287
  176DOPC   C3521548   3.659   1.755  13.321  0.7280  0.0728  1.3301
  176DOPC   H5X21549   3.613   1.654  13.324 -1.0219  0.8005  0.6107
  176DOPC   H5Y21550   3.583   1.824  13.364  1.8315  0.3786  2.8694
  176DOPC   C3621551   3.786   1.759  13.414  0.4097  0.3920  0.6671
  176DOPC   H6X21552   3.865   1.698  13.366 -0.1562  0.9103 -1.0246
  176DOPC   H6Y21553   3.832   1.860  13.406  0.3207  0.3106 -3.4180
  176DOPC   C3721554   3.758   1.715  13.554  0.2553  0.6474  0.5203
  176DOPC   H7X21555   3.688   1.629  13.544  1.8901 -0.5914 -0.9799
  176DOPC   H7Y21556   3.851   1.679  13.601 -0.1948  1.0541  1.7585
  176DOPC   C3821557   3.697   1.829  13.648 -0.3406  0.5323  0.3200
  176DOPC   H8X21558   3.609   1.878  13.602 -0.4884 -0.2074 -0.1986
  176DOPC   H8Y21559   3.769   1.913  13.634  1.3069 -1.1085 -1.8501
  176DOPC   C3921560   3.668   1.798  13.792  0.0227  0.3586 -1.3235
  176DOPC   H9X21561   3.564   1.778  13.821  0.7539 -1.2300  0.4279
  176DOPC  C31021562   3.760   1.784  13.889  0.7370  0.4533 -0.3643
  176DOPC  H10X21563   3.727   1.764  13.992  1.6541 -0.7476 -0.2749
  176DOPC  C31121564   3.906   1.804  13.857 -0.1231 -0.0513  0.0281
  176DOPC  H11X21565   3.913   1.885  13.781 -3.1398  1.4657  1.1581
  176DOPC  H11Y21566   3.943   1.708  13.817 -0.6238  1.2819 -4.1119
  176DOPC  C31221567   3.988   1.861  13.979  0.2812 -0.1273 -0.2258
  176DOPC  H12X21568   3.944   1.951  14.027  2.2247  0.6780  0.1450
  176DOPC  H12Y21569   4.091   1.890  13.946 -0.2072  1.8604 -0.1438
  176DOPC  C31321570   4.010   1.757  14.102 -0.6100 -0.6130  1.1525
  176DOPC  H13X21571   3.916   1.701  14.120 -0.0609 -2.5207 -1.3485
  176DOPC  H13Y21572   4.080   1.683  14.059 -1.3326 -1.2716  1.0852
  176DOPC  C31421573   4.058   1.830  14.231 -1.0493  0.2359  0.2240
  176DOPC  H14X21574   4.147   1.893  14.210  0.0508 -1.4881 -0.5287
  176DOPC  H14Y21575   3.987   1.909  14.263 -0.1672  1.0004  0.3362
  176DOPC  C31521576   4.079   1.724  14.336  0.3357  0.4367 -0.5322
  176DOPC  H15X21577   4.155   1.653  14.297  1.2936 -0.1820  2.1846
  176DOPC  H15Y21578   3.984   1.669  14.355 -0.1167  0.9619 -1.2403
  176DOPC  C31621579   4.120   1.788  14.469 -0.1587  0.4665 -0.4205
  176DOPC  H16X21580   4.030   1.844  14.501 -1.3195 -1.5996  0.1429
  176DOPC  H16Y21581   4.147   1.708  14.542  1.6158  2.9348  1.8043
  176DOPC  C31721582   4.243   1.875  14.472  0.2052  0.5746  0.2615
  176DOPC  H17X21583   4.330   1.824  14.425  0.3602 -2.1030  3.1006
  176DOPC  H17Y21584   4.217   1.973  14.426 -3.0866 -0.1156  0.4407
  176DOPC  C31821585   4.281   1.909  14.618 -0.1204  0.6280  0.0370
  176DOPC  H18X21586   4.194   1.948  14.675 -0.8413 -3.5227  2.1834
  176DOPC  H18Y21587   4.309   1.821  14.679  1.1033 -0.2044 -1.6333
  176DOPC  H18Z21588   4.366   1.980  14.632 -0.7619  1.2901  0.6424
  177DOPC     N21589   3.961   6.422  11.357 -0.2421 -0.3020 -0.8353
  177DOPC   C1221590   4.050   6.367  11.467  0.1397  0.4291  0.1765
  177DOPC  H12A21591   4.152   6.345  11.439  0.0674 -3.2436  2.1201
  177DOPC  H12B21592   4.022   6.265  11.491  0.6302 -0.2878 -2.0366
  177DOPC   C1321593   3.943   6.320  11.255 -0.1793  0.2418 -0.1491
  177DOPC  H13A21594   3.887   6.240  11.301  1.7388 -0.7688  0.5180
  177DOPC  H13B21595   3.884   6.373  11.182  1.6833 -0.1656 -2.0571
  177DOPC  H13C21596   4.036   6.280  11.218 -1.3375 -0.3017 -2.7209
  177DOPC   C1421597   4.013   6.549  11.306 -0.2930  0.1929  0.5872
  177DOPC  H14A21598   3.955   6.589  11.224  1.0671  1.2554  0.1005
  177DOPC  H14B21599   4.043   6.616  11.386  0.0704 -0.0762  0.6801
  177DOPC  H14C21600   4.111   6.526  11.267  0.3826  1.8486  1.1964
  177DOPC   C1521601   3.826   6.450  11.407  0.8297 -0.4671 -0.0375
  177DOPC  H15A21602   3.760   6.481  11.327 -0.1931  0.3446  1.0830
  177DOPC  H15B21603   3.828   6.524  11.486 -1.9846 -0.6203  0.2805
  177DOPC  H15C21604   3.785   6.354  11.435 -0.7466  0.3830  0.7478
  177DOPC   C1121605   4.059   6.440  11.606 -0.2714  0.2048 -0.1860
  177DOPC  H11A21606   3.964   6.426  11.662  0.2184  1.5864  1.0487
  177DOPC  H11B21607   4.147   6.394  11.656  1.0202  0.4130 -2.1616
  177DOPC     P21608   4.015   6.688  11.666 -0.0504  0.2955  0.1884
  177DOPC   O1321609   3.872   6.684  11.634 -0.2577 -0.3024 -0.2685
  177DOPC   O1421610   4.089   6.815  11.633  0.7415  0.8519 -0.1806
  177DOPC   O1221611   4.091   6.576  11.590  0.0143 -0.1399 -0.0385
  177DOPC   O1121612   4.026   6.634  11.813  0.1715  0.3007 -0.1291
  177DOPC    C121613   4.153   6.651  11.879 -0.2504 -0.0484 -0.3165
  177DOPC    HA21614   4.185   6.758  11.878 -0.8173  0.1235 -0.8297
  177DOPC    HB21615   4.235   6.604  11.821 -1.3578 -0.0951 -1.8950
  177DOPC    C221616   4.160   6.593  12.023  0.7182  0.8395 -0.5687
  177DOPC    HS21617   4.129   6.487  12.014  0.2161  1.0183 -1.0175
  177DOPC   O2121618   4.075   6.679  12.107 -0.2944  0.1343 -0.0330
  177DOPC   C2121619   4.005   6.609  12.189 -0.2108 -0.7001  0.3643
  177DOPC   O2221620   4.004   6.489  12.200 -0.0061  0.2759  0.2841
  177DOPC   C2221621   3.935   6.701  12.292  0.1864  0.4870 -0.8254
  177DOPC   H2R21622   3.826   6.713  12.274  0.2341  0.7488 -0.9374
  177DOPC   H2S21623   3.978   6.803  12.287  3.4793 -0.6815  0.8195
  177DOPC    C321624   4.310   6.600  12.079  0.4642  0.2554  0.1455
  177DOPC    HX21625   4.337   6.708  12.073 -1.7368  0.7605 -2.9790
  177DOPC    HY21626   4.383   6.552  12.011  0.5587  1.9000 -0.9755
  177DOPC   O3121627   4.309   6.549  12.212 -0.0040  0.4171  0.1308
  177DOPC   C3121628   4.322   6.424  12.228 -0.0400 -0.1085  0.2164
  177DOPC   O3221629   4.330   6.337  12.142 -0.3583 -0.1727 -0.1979
  177DOPC   C3221630   4.346   6.385  12.374 -0.0645 -0.0584  0.2539
  177DOPC   H2X21631   4.384   6.473  12.430  0.8812  1.0168 -1.9806
  177DOPC   H2Y21632   4.246   6.366  12.419 -1.2455  4.2401 -0.1693
  177DOPC   C2321633   3.948   6.641  12.432  0.1137 -0.1216 -0.4651
  177DOPC   H3R21634   3.917   6.534  12.435  0.4487 -0.2063  0.3693
  177DOPC   H3S21635   3.885   6.693  12.508  1.1328  0.4210  0.0395
  177DOPC   C2421636   4.088   6.663  12.485 -0.5905 -0.1652 -0.1011
  177DOPC   H4R21637   4.103   6.772  12.497 -0.8961 -0.2157  0.8661
  177DOPC   H4S21638   4.176   6.634  12.425 -0.3502  0.1502  0.0984
  177DOPC   C2521639   4.114   6.609  12.631 -0.8557  0.2492  0.2670
  177DOPC   H5R21640   4.105   6.498  12.636 -2.4943  0.3554  0.4551
  177DOPC   H5S21641   4.027   6.652  12.685 -0.3034  0.6700  0.8420
  177DOPC   C2621642   4.241   6.666  12.699  0.5030  0.1846  0.1401
  177DOPC   H6R21643   4.261   6.772  12.672 -0.8494 -0.1933 -2.7137
  177DOPC   H6S21644   4.322   6.607  12.652 -0.5302 -0.9196 -0.3204
  177DOPC   C2721645   4.240   6.638  12.849  0.4645  0.6876  0.2578
  177DOPC   H7R21646   4.161   6.687  12.910 -0.4642 -2.7005  1.9849
  177DOPC   H7S21647   4.327   6.701  12.879  0.4112  0.9928 -0.2148
  177DOPC   C2821648   4.242   6.492  12.900  0.1185  0.9519  0.5074
  177DOPC   H8R21649   4.145   6.446  12.872  0.3421 -0.2729  1.6356
  177DOPC   H8S21650   4.227   6.498  13.010 -1.6760 -0.6534  0.4097
  177DOPC   C2921651   4.357   6.402  12.859 -0.1686  0.5145  0.1858
  177DOPC   H9R21652   4.355   6.368  12.755  4.6420  3.0162 -0.9969
  177DOPC  C21021653   4.454   6.351  12.937  0.3196 -0.0665  0.3368
  177DOPC  H10R21654   4.516   6.268  12.900 -0.2035 -0.4631  0.3459
  177DOPC  C21121655   4.472   6.374  13.085 -0.6289  0.6338 -0.0034
  177DOPC  H11R21656   4.472   6.278  13.141 -0.3503  0.4059 -0.3942
  177DOPC  H11S21657   4.387   6.434  13.125  1.4112  2.6357  1.6102
  177DOPC  C21221658   4.612   6.440  13.120 -0.3808 -0.0895 -0.2011
  177DOPC  H12R21659   4.599   6.549  13.130  0.8144 -0.1190  2.5836
  177DOPC  H12S21660   4.682   6.414  13.038 -2.0007 -3.2133 -0.7790
  177DOPC  C21321661   4.662   6.404  13.267 -0.2298 -0.1979  0.0358
  177DOPC  H13R21662   4.765   6.447  13.270 -1.4285  2.8986  0.5993
  177DOPC  H13S21663   4.676   6.294  13.265  0.2019 -0.1444  0.0064
  177DOPC  C21421664   4.579   6.463  13.384  0.1155  0.0297 -0.0495
  177DOPC  H14R21665   4.470   6.463  13.363  0.3175 -0.0910 -1.1689
  177DOPC  H14S21666   4.603   6.571  13.394  0.2491 -0.0392  0.4085
  177DOPC  C21521667   4.595   6.389  13.515 -0.1094 -0.4249 -0.1441
  177DOPC  H15R21668   4.701   6.380  13.547 -0.6725 -1.1573  1.5966
  177DOPC  H15S21669   4.549   6.288  13.502 -1.2126 -0.1326  1.2877
  177DOPC  C21621670   4.506   6.449  13.623  0.1423 -0.1210  0.2279
  177DOPC  H16R21671   4.408   6.469  13.576  0.0433 -1.4242 -0.1757
  177DOPC  H16S21672   4.542   6.553  13.636  2.5258 -0.6995 -1.1289
  177DOPC  C21721673   4.507   6.359  13.748 -0.0528 -0.5342  0.5540
  177DOPC  H17R21674   4.614   6.339  13.771 -0.2905 -0.4022  1.8091
  177DOPC  H17S21675   4.450   6.269  13.715 -0.9392 -0.4490  1.8155
  177DOPC  C21821676   4.438   6.420  13.867 -0.4670  0.4115  0.0326
  177DOPC  H18R21677   4.487   6.516  13.891 -2.3365  1.2070  0.9251
  177DOPC  H18S21678   4.434   6.350  13.954  0.7677  1.0204  0.5899
  177DOPC  H18T21679   4.335   6.444  13.832 -0.8355 -0.6520  0.3350
  177DOPC   C3321680   4.447   6.263  12.386 -0.6263 -0.6830 -0.4237
  177DOPC   H3X21681   4.543   6.302  12.344 -0.8563 -0.6843 -0.9536
  177DOPC   H3Y21682   4.409   6.179  12.325 -0.4846  0.5523 -2.3100
  177DOPC   C3421683   4.470   6.233  12.534 -0.0204 -0.6032 -0.0214
  177DOPC   H4X21684   4.366   6.217  12.570  0.0980 -3.6861 -0.7264
  177DOPC   H4Y21685   4.528   6.311  12.587 -1.3492 -0.5131  1.3638
  177DOPC   C3521686   4.551   6.105  12.561  0.2343 -0.0099 -0.3996
  177DOPC   H5X21687   4.632   6.111  12.485  2.3710  2.2395  1.8776
  177DOPC   H5Y21688   4.487   6.015  12.547  1.4553 -0.7274 -1.5861
  177DOPC   C3621689   4.605   6.081  12.700  0.1631 -0.1621  0.0892
  177DOPC   H6X21690   4.527   6.090  12.778  0.2916  1.4830  0.0637
  177DOPC   H6Y21691   4.643   5.977  12.704 -0.5939 -0.4769 -0.5148
  177DOPC   C3721692   4.719   6.178  12.735  0.1032  0.1204  0.1347
  177DOPC   H7X21693   4.767   6.177  12.635 -1.5953 -0.4428 -0.7088
  177DOPC   H7Y21694   4.688   6.281  12.760  1.2248  0.2700  1.0028
  177DOPC   C3821695   4.823   6.127  12.834 -0.7910  0.1137 -0.3419
  177DOPC   H8X21696   4.829   6.019  12.856  2.8502  0.8010  3.1883
  177DOPC   H8Y21697   4.786   6.174  12.927  0.3558  1.0446 -0.3352
  177DOPC   C3921698   4.962   6.174  12.813 -0.0230  0.0709  0.0458
  177DOPC   H9X21699   4.987   6.196  12.708 -1.4676  2.9441  0.2063
  177DOPC  C31021700   5.051   6.214  12.901 -0.5525 -0.4232 -0.2944
  177DOPC  H10X21701   5.144   6.240  12.849 -1.1703 -0.5314 -1.4949
  177DOPC  C31121702   5.057   6.202  13.048  0.5184 -0.2342  0.0428
  177DOPC  H11X21703   5.063   6.305  13.088  1.5086  0.7251 -2.4499
  177DOPC  H11Y21704   5.155   6.156  13.072  1.4594  2.1505  0.9676
  177DOPC  C31221705   4.959   6.128  13.143  0.6652  0.8676 -0.2090
  177DOPC  H12X21706   4.932   6.031  13.096  0.4838  0.9783 -0.3368
  177DOPC  H12Y21707   4.863   6.184  13.148 -1.1760 -1.9015 -1.5323
  177DOPC  C31321708   5.023   6.104  13.283 -0.2754 -0.1320  0.1392
  177DOPC  H13X21709   5.058   5.999  13.269 -0.1223 -0.0187 -0.3670
  177DOPC  H13Y21710   5.117   6.158  13.303  0.9465 -2.4391  1.0667
  177DOPC  C31421711   4.929   6.116  13.405  0.3794  0.1405 -0.1447
  177DOPC  H14X21712   4.920   6.223  13.432  0.2671  0.6868 -2.1906
  177DOPC  H14Y21713   4.833   6.076  13.366  0.3405  0.1632 -0.0722
  177DOPC  C31521714   4.950   6.029  13.529 -0.1685 -0.0431  0.0757
  177DOPC  H15X21715   5.057   6.040  13.558 -0.5902  1.5098  1.1696
  177DOPC  H15Y21716   4.922   5.925  13.501  0.6031 -0.0493 -0.7214
  177DOPC  C31621717   4.862   6.077  13.648 -0.0096  0.3194 -0.3012
  177DOPC  H16X21718   4.868   6.187  13.659  1.1192  0.3445 -0.9984
  177DOPC  H16Y21719   4.758   6.040  13.635  0.7971 -1.8745 -0.9625
  177DOPC  C31721720   4.911   6.006  13.777 -0.3959 -0.1537 -0.3360
  177DOPC  H17X21721   4.964   5.909  13.762  1.4645  0.4250  1.8937
  177DOPC  H17Y21722   5.000   6.060  13.815  0.0339 -1.9121  1.3289
  177DOPC  C31821723   4.815   6.008  13.890  0.1872  1.1264  0.7077
  177DOPC  H18X21724   4.794   6.114  13.915  1.9313  1.6166  0.2691
  177DOPC  H18Y21725   4.722   5.953  13.863  1.8200 -1.7095  0.4812
  177DOPC  H18Z21726   4.860   5.958  13.978 -2.2984  0.8945  1.9290
  178DOPC     N21727   2.372   0.797  12.005 -0.2586  0.2294 -0.4057
  178DOPC   C1221728   2.304   0.695  12.096  0.1318 -0.0211  0.2972
  178DOPC  H12A21729   2.289   0.605  12.038 -2.3784  1.7159 -2.0094
  178DOPC  H12B21730   2.206   0.741  12.108  0.9670  2.2470 -0.9825
  178DOPC   C1321731   2.286   0.843  11.890  0.0974 -0.7257  0.1442
  178DOPC  H13A21732   2.257   0.759  11.828 -1.0769 -0.8326  0.7832
  178DOPC  H13B21733   2.200   0.898  11.926  0.0212  0.5514 -1.8780
  178DOPC  H13C21734   2.343   0.900  11.819 -1.2850 -0.8244 -1.1041
  178DOPC   C1421735   2.491   0.731  11.945 -0.8172  0.6573  0.3875
  178DOPC  H14A21736   2.551   0.805  11.894 -4.0368  1.9482 -1.8704
  178DOPC  H14B21737   2.553   0.678  12.016 -0.7103 -2.5929 -1.9077
  178DOPC  H14C21738   2.463   0.654  11.875  2.6734 -0.6116  0.1717
  178DOPC   C1521739   2.412   0.922  12.080 -0.3906  0.4419 -0.0197
  178DOPC  H15A21740   2.461   0.991  12.012 -1.0445 -1.1957 -2.2777
  178DOPC  H15B21741   2.480   0.912  12.163  0.0990  1.5751 -0.2581
  178DOPC  H15C21742   2.325   0.977  12.111  0.5857  1.5607  0.8210
  178DOPC   C1121743   2.385   0.668  12.229  0.1160  0.1601 -0.8079
  178DOPC  H11A21744   2.422   0.762  12.276  0.5107  0.4170 -1.6105
  178DOPC  H11B21745   2.318   0.625  12.307  0.6947  0.9524  0.1490
  178DOPC     P21746   2.491   0.428  12.209 -0.5892 -0.4127 -0.3251
  178DOPC   O1321747   2.596   0.374  12.120 -0.2315  0.2479 -0.0658
  178DOPC   O1421748   2.352   0.383  12.170 -0.3371 -0.2432  0.7375
  178DOPC   O1221749   2.498   0.586  12.195  0.8428  0.0842  0.1737
  178DOPC   O1121750   2.532   0.378  12.355 -0.2324  0.1863  0.3264
  178DOPC    C121751   2.623   0.452  12.429 -0.4718  0.0242 -0.0948
  178DOPC    HA21752   2.611   0.562  12.437  3.9385  0.5913  0.9426
  178DOPC    HB21753   2.722   0.430  12.385 -0.7528 -1.1811 -0.1796
  178DOPC    C221754   2.629   0.408  12.573  0.0293  0.0087  0.2551
  178DOPC    HS21755   2.716   0.454  12.624  0.2396 -1.1705  0.9964
  178DOPC   O2121756   2.626   0.262  12.579  0.2367 -0.6770  0.1429
  178DOPC   C2121757   2.730   0.217  12.635 -0.4075 -0.1702  0.2709
  178DOPC   O2221758   2.831   0.279  12.670  0.4400 -0.5241 -0.4431
  178DOPC   C2221759   2.699   0.070  12.649 -0.4649 -0.2544 -0.3468
  178DOPC   H2R21760   2.747   0.020  12.562 -2.0631  0.3543 -1.6492
  178DOPC   H2S21761   2.592   0.047  12.631 -0.3936 -0.1009 -1.0044
  178DOPC    C321762   2.500   0.467  12.652  0.2563  0.5439  0.4796
  178DOPC    HX21763   2.409   0.429  12.602  0.1946  2.1237 -0.6880
  178DOPC    HY21764   2.512   0.576  12.631  1.9068 -0.1132 -2.5269
  178DOPC   O3121765   2.510   0.436  12.796 -0.6400  0.0786 -0.2394
  178DOPC   C3121766   2.395   0.409  12.859 -0.3612 -0.2216 -0.9095
  178DOPC   O3221767   2.285   0.414  12.810  0.1194  0.8218  0.1972
  178DOPC   C3221768   2.432   0.398  13.010 -0.3341 -0.3914 -0.2974
  178DOPC   H2X21769   2.517   0.326  13.016  0.6096  0.6675 -0.8034
  178DOPC   H2Y21770   2.468   0.496  13.048 -0.3298 -0.4642 -0.1121
  178DOPC   C2321771   2.748  -0.004  12.776  0.0492 -0.2689 -0.0737
  178DOPC   H3R21772   2.858  -0.012  12.785 -0.1119 -0.0372  2.7831
  178DOPC   H3S21773   2.713  -0.110  12.769 -1.1599  0.0953  0.2693
  178DOPC   C2421774   2.681   0.061  12.889 -0.2430 -0.5075 -0.1195
  178DOPC   H4R21775   2.570   0.049  12.889 -0.0270 -3.3790  0.8517
  178DOPC   H4S21776   2.717   0.165  12.893  1.2389 -1.0116  0.3198
  178DOPC   C2521777   2.733   0.009  13.027  0.2522  0.6181 -0.2336
  178DOPC   H5R21778   2.839   0.044  13.031  0.5167  0.0862 -1.8527
  178DOPC   H5S21779   2.718  -0.101  13.026 -3.2148  0.9748  1.2332
  178DOPC   C2621780   2.663   0.068  13.147  0.0901 -0.3940 -0.7612
  178DOPC   H6R21781   2.555   0.080  13.125 -0.1636  1.3324  1.1023
  178DOPC   H6S21782   2.712   0.160  13.186  0.4400 -2.0574  3.1552
  178DOPC   C2721783   2.663  -0.044  13.261 -0.1329  0.2892 -0.5178
  178DOPC   H7R21784   2.766  -0.077  13.288 -0.2439  0.4048  0.0540
  178DOPC   H7S21785   2.603  -0.124  13.212  0.7027 -0.8982  0.3391
  178DOPC   C2821786   2.581  -0.005  13.390  0.3876 -0.4914  0.5932
  178DOPC   H8R21787   2.484   0.044  13.367  1.3550  1.9239  1.3341
  178DOPC   H8S21788   2.631   0.081  13.438 -2.1017  1.4259 -0.0190
  178DOPC   C2921789   2.560  -0.120  13.486  0.9584  0.1939 -0.4310
  178DOPC   H9R21790   2.513  -0.208  13.439  0.7832  0.1008 -0.0822
  178DOPC  C21021791   2.597  -0.132  13.621 -0.3729  0.1073 -0.3436
  178DOPC  H10R21792   2.584  -0.234  13.659 -0.9462  0.4008  0.2706
  178DOPC  C21121793   2.654  -0.030  13.717 -0.6728  0.4159  0.5937
  178DOPC  H11R21794   2.569   0.016  13.773 -1.2429 -1.2772  1.1701
  178DOPC  H11S21795   2.720   0.041  13.662 -0.7901 -0.3614 -0.5819
  178DOPC  C21221796   2.735  -0.100  13.834 -0.0933  0.1488  0.4262
  178DOPC  H12R21797   2.828  -0.135  13.784 -0.4815  1.4847 -1.3553
  178DOPC  H12S21798   2.678  -0.187  13.872  1.2668 -0.9093  0.1429
  178DOPC  C21321799   2.756   0.003  13.945 -0.0642  0.1310  0.0179
  178DOPC  H13R21800   2.650   0.018  13.976 -0.7302 -1.4509 -1.3367
  178DOPC  H13S21801   2.786   0.097  13.893 -1.0378  1.0507  1.0480
  178DOPC  C21421802   2.835  -0.052  14.063 -0.1037  0.5205 -0.0049
  178DOPC  H14R21803   2.844  -0.162  14.048 -1.5168  0.5164 -1.1390
  178DOPC  H14S21804   2.768  -0.040  14.151 -2.3059 -0.8376 -1.3640
  178DOPC  C21521805   2.967   0.009  14.075 -0.1693 -0.5679 -0.0109
  178DOPC  H15R21806   2.966   0.119  14.056  1.2535 -0.3020  1.2351
  178DOPC  H15S21807   3.015  -0.034  13.985  0.7864  1.7800 -0.7105
  178DOPC  C21621808   3.055  -0.037  14.196 -0.2465 -0.0726  0.2225
  178DOPC  H16R21809   3.163  -0.031  14.168 -0.8796 -0.4696 -2.6094
  178DOPC  H16S21810   3.026  -0.141  14.223 -1.0914 -0.1220 -0.7963
  178DOPC  C21721811   3.042   0.053  14.318 -0.8063 -0.7309 -0.4844
  178DOPC  H17R21812   2.934   0.070  14.341 -0.8514 -0.9256 -0.5483
  178DOPC  H17S21813   3.075   0.153  14.282 -1.0857 -0.0889  0.9664
  178DOPC  C21821814   3.118   0.007  14.444  0.7997 -0.3652  0.0069
  178DOPC  H18R21815   3.110   0.097  14.508 -0.3725  1.0707 -2.0682
  178DOPC  H18S21816   3.226  -0.015  14.431  0.5209 -1.2701 -0.8718
  178DOPC  H18T21817   3.062  -0.082  14.482 -1.1190  2.2168  3.9540
  178DOPC   C3321818   2.314   0.350  13.098 -0.3017  0.0008  0.0618
  178DOPC   H3X21819   2.283   0.255  13.049 -0.4018  0.3613 -0.5841
  178DOPC   H3Y21820   2.226   0.417  13.096 -1.8001 -1.8799 -0.1750
  178DOPC   C3421821   2.364   0.304  13.245  0.3700  0.4784 -0.4409
  178DOPC   H4X21822   2.409   0.388  13.302  1.0936 -2.1664  3.2737
  178DOPC   H4Y21823   2.453   0.240  13.226  1.9631  2.1318  1.0793
  178DOPC   C3521824   2.255   0.232  13.322  0.6542  0.1475 -0.0057
  178DOPC   H5X21825   2.232   0.137  13.269 -0.3773  0.3769  0.0128
  178DOPC   H5Y21826   2.170   0.304  13.325  1.9010  1.7073  2.9524
  178DOPC   C3621827   2.302   0.233  13.471  1.0832 -0.3221 -0.2174
  178DOPC   H6X21828   2.402   0.190  13.494  0.8510  0.1328  1.7981
  178DOPC   H6Y21829   2.329   0.339  13.494 -0.2959 -0.2836  1.3956
  178DOPC   C3721830   2.201   0.189  13.571  0.5033  0.5745 -0.6787
  178DOPC   H7X21831   2.122   0.266  13.569 -0.0964  0.0544  1.3861
  178DOPC   H7Y21832   2.162   0.087  13.553 -3.1815  1.4400  1.4067
  178DOPC   C3821833   2.259   0.196  13.714  0.0543 -0.0749  0.1319
  178DOPC   H8X21834   2.348   0.262  13.720  1.0527 -1.4519  0.8443
  178DOPC   H8Y21835   2.301   0.095  13.734  0.1627  0.2871  1.8881
  178DOPC   C3921836   2.146   0.211  13.817 -0.1692  0.0041  0.1028
  178DOPC   H9X21837   2.062   0.272  13.780 -1.6142 -2.3575 -0.6856
  178DOPC  C31021838   2.149   0.170  13.939  0.6139 -0.1444 -0.1869
  178DOPC  H10X21839   2.083   0.204  14.020 -0.6454  0.0588 -1.2620
  178DOPC  C31121840   2.257   0.092  14.004 -0.0610  0.7027 -0.0135
  178DOPC  H11X21841   2.332   0.077  13.923  2.5140  5.4692  1.1062
  178DOPC  H11Y21842   2.216  -0.005  14.038  1.6452 -0.2701 -0.5986
  178DOPC  C31221843   2.330   0.163  14.120 -0.1681  0.3141 -0.4538
  178DOPC  H12X21844   2.384   0.254  14.086 -0.0149  1.0415  1.6128
  178DOPC  H12Y21845   2.412   0.094  14.149 -0.7309 -0.6184 -1.0016
  178DOPC  C31321846   2.238   0.204  14.230  0.2351  0.1577  0.1057
  178DOPC  H13X21847   2.294   0.261  14.308 -0.5103  2.8782 -1.2156
  178DOPC  H13Y21848   2.159   0.274  14.194 -1.5890 -2.6648 -1.8203
  178DOPC  C31421849   2.166   0.090  14.306  0.0167 -0.9455  0.9960
  178DOPC  H14X21850   2.114   0.127  14.396  2.1268 -0.9192  2.2701
  178DOPC  H14Y21851   2.088   0.053  14.235  0.0888  0.6466  0.0328
  178DOPC  C31521852   2.258  -0.018  14.349 -0.3701 -0.0810  0.1272
  178DOPC  H15X21853   2.290  -0.074  14.258 -2.2608 -0.5484 -0.2855
  178DOPC  H15Y21854   2.212  -0.096  14.414  1.8936 -0.9174  0.8379
  178DOPC  C31621855   2.387   0.029  14.438  0.5161 -0.1074 -0.1142
  178DOPC  H16X21856   2.463   0.079  14.376  1.4439 -0.1109  0.9867
  178DOPC  H16Y21857   2.350   0.095  14.519  0.7575 -1.4553  1.1424
  178DOPC  C31721858   2.454  -0.085  14.509  0.4407  0.6721  0.4402
  178DOPC  H17X21859   2.375  -0.149  14.552 -0.4131  2.6787  1.9959
  178DOPC  H17Y21860   2.513  -0.139  14.431 -0.5509  1.0424 -0.6027
  178DOPC  C31821861   2.546  -0.040  14.622 -0.0371 -0.1847  0.5333
  178DOPC  H18X21862   2.636  -0.106  14.627  0.5626  0.6480  1.0510
  178DOPC  H18Y21863   2.578   0.066  14.618 -1.1860  0.2192  1.3433
  178DOPC  H18Z21864   2.494  -0.041  14.720 -0.5303  0.2907  0.2804
  179DOPC     N21865   5.417   6.154  11.848 -0.1447 -0.0610  0.6749
  179DOPC   C1221866   5.280   6.228  11.827  0.3281  0.3749 -0.5710
  179DOPC  H12A21867   5.272   6.314  11.892  1.2400 -1.0697  1.5881
  179DOPC  H12B21868   5.197   6.163  11.850 -0.5969  1.6072 -0.3179
  179DOPC   C1321869   5.431   6.078  11.981  0.9097 -0.0410  0.3823
  179DOPC  H13A21870   5.370   5.990  11.967 -0.3566  0.9442 -0.5784
  179DOPC  H13B21871   5.532   6.040  11.989  0.5540 -1.2948 -0.5967
  179DOPC  H13C21872   5.403   6.139  12.065 -0.0964 -0.7528  0.5782
  179DOPC   C1421873   5.528   6.255  11.852 -0.3541 -0.0741  0.7647
  179DOPC  H14A21874   5.567   6.290  11.757  0.1745 -1.2469  0.5242
  179DOPC  H14B21875   5.513   6.337  11.920  1.6665 -1.3047  2.8593
  179DOPC  H14C21876   5.617   6.201  11.879  0.8707  0.5670 -1.7008
  179DOPC   C1521877   5.436   6.052  11.734  0.1027  0.1539  0.1498
  179DOPC  H15A21878   5.531   6.007  11.760 -0.9268 -1.8116  0.7447
  179DOPC  H15B21879   5.444   6.113  11.645  0.8164  1.1782  0.8956
  179DOPC  H15C21880   5.361   5.975  11.721 -0.3197  0.7312 -0.9587
  179DOPC   C1121881   5.250   6.281  11.687 -0.8484  0.5132  0.5303
  179DOPC  H11A21882   5.164   6.351  11.682 -0.0414  1.5214  0.1941
  179DOPC  H11B21883   5.331   6.350  11.654 -1.3193  1.4130  1.2117
  179DOPC     P21884   5.094   6.101  11.562 -0.2288 -0.1533 -0.2853
  179DOPC   O1321885   5.125   5.958  11.529 -0.4991 -0.0102  0.1917
  179DOPC   O1421886   5.017   6.174  11.460 -0.1013 -0.2905 -0.1337
  179DOPC   O1221887   5.231   6.173  11.594  0.1681  0.6153 -0.4401
  179DOPC   O1121888   5.029   6.124  11.709  0.2064 -0.1656  0.3999
  179DOPC    C121889   5.043   6.011  11.793  0.5527  0.0068 -0.5850
  179DOPC    HA21890   5.150   5.995  11.820  0.8345  0.8720 -1.1618
  179DOPC    HB21891   5.003   5.918  11.747 -0.6465 -0.1141  0.6348
  179DOPC    C221892   4.963   6.038  11.931 -0.0950 -0.7455 -0.0763
  179DOPC    HS21893   4.855   6.050  11.909 -0.2429  3.0915  1.9281
  179DOPC   O2121894   5.006   6.162  11.988 -0.0970 -0.2147 -0.1993
  179DOPC   C2121895   4.926   6.210  12.079 -0.2493 -0.5746  0.1229
  179DOPC   O2221896   4.820   6.162  12.120 -0.2079  0.2524  0.0644
  179DOPC   C2221897   4.993   6.341  12.141  0.0745  0.0545  0.6288
  179DOPC   H2R21898   4.975   6.422  12.067 -0.8143 -0.1410  0.6225
  179DOPC   H2S21899   5.101   6.320  12.154  0.5324 -1.1864 -3.5234
  179DOPC    C321900   4.993   5.909  12.019  0.4304 -0.1923  0.1564
  179DOPC    HX21901   5.099   5.877  12.010  0.8474  0.7022  1.6413
  179DOPC    HY21902   4.932   5.828  11.973  1.2361 -0.7502  0.0432
  179DOPC   O3121903   4.975   5.936  12.155  0.7275 -0.0362 -0.6234
  179DOPC   C3121904   4.897   5.852  12.220 -0.4746  0.6837 -0.9026
  179DOPC   O3221905   4.861   5.746  12.176  0.5124 -0.5440 -0.5633
  179DOPC   C3221906   4.869   5.888  12.364 -0.4448 -0.5197  0.3111
  179DOPC   H2X21907   4.836   5.994  12.374 -1.2004 -0.5686 -1.2694
  179DOPC   H2Y21908   4.792   5.829  12.418 -1.5635  0.4205 -0.2010
  179DOPC   C2321909   4.936   6.384  12.276 -0.3118 -0.1805  0.1942
  179DOPC   H3R21910   4.828   6.411  12.270 -0.2952  0.6535  2.5634
  179DOPC   H3S21911   4.987   6.476  12.310  0.4345 -0.0379 -1.2419
  179DOPC   C2421912   4.951   6.278  12.387  0.3676 -0.8267  0.3411
  179DOPC   H4R21913   4.905   6.182  12.358  0.7932 -1.3533  1.3297
  179DOPC   H4S21914   4.895   6.317  12.475  1.7792  1.1217  0.4509
  179DOPC   C2521915   5.095   6.258  12.431 -0.2217 -0.2933  0.4488
  179DOPC   H5R21916   5.160   6.258  12.341 -2.1292 -2.9397 -1.0886
  179DOPC   H5S21917   5.102   6.162  12.486  0.6943 -0.8951 -0.6877
  179DOPC   C2621918   5.137   6.370  12.520  0.1046 -0.4409  0.5154
  179DOPC   H6R21919   5.056   6.382  12.595  2.2508  1.8668  2.6416
  179DOPC   H6S21920   5.139   6.468  12.467 -0.7213 -1.8116 -2.2572
  179DOPC   C2721921   5.274   6.344  12.586 -0.2119 -0.8487 -0.1707
  179DOPC   H7R21922   5.340   6.303  12.507  0.3998 -0.9755  0.3989
  179DOPC   H7S21923   5.265   6.259  12.657 -1.3958 -1.8618 -1.4740
  179DOPC   C2821924   5.347   6.456  12.657  0.4836  0.4339  0.4230
  179DOPC   H8R21925   5.379   6.530  12.581  1.7535  1.0668  1.5417
  179DOPC   H8S21926   5.438   6.410  12.700 -0.4941 -0.7718  1.2833
  179DOPC   C2921927   5.269   6.512  12.767 -0.4192  0.0918  0.3343
  179DOPC   H9R21928   5.163   6.532  12.750 -0.0351  0.7024 -1.4987
  179DOPC  C21021929   5.314   6.535  12.893  0.4735 -0.1551  0.2259
  179DOPC  H10R21930   5.258   6.598  12.963  0.0719 -1.6805  1.3435
  179DOPC  C21121931   5.459   6.527  12.929  0.3423  0.5907  0.6471
  179DOPC  H11R21932   5.516   6.605  12.874  0.6895  0.2233  0.4779
  179DOPC  H11S21933   5.501   6.424  12.917  2.8615  1.8780 -3.7970
  179DOPC  C21221934   5.486   6.563  13.083  0.6082  0.5287 -0.3900
  179DOPC  H12R21935   5.433   6.657  13.111 -0.1841 -0.1851  0.6343
  179DOPC  H12S21936   5.590   6.592  13.108  0.2211  1.6348  0.0046
  179DOPC  C21321937   5.431   6.455  13.174  0.6011  0.0704 -0.0574
  179DOPC  H13R21938   5.495   6.366  13.156 -0.4250 -0.2974 -2.2733
  179DOPC  H13S21939   5.341   6.411  13.126  2.4759 -2.3811 -1.6217
  179DOPC  C21421940   5.411   6.491  13.324 -0.3064 -0.1120 -0.0628
  179DOPC  H14R21941   5.376   6.595  13.335  1.4337  0.6538 -1.2616
  179DOPC  H14S21942   5.505   6.509  13.381  0.4028  0.6437 -1.4316
  179DOPC  C21521943   5.296   6.419  13.403  0.2088  0.1090  0.6323
  179DOPC  H15R21944   5.310   6.309  13.399  1.3419  0.1421 -5.2047
  179DOPC  H15S21945   5.209   6.431  13.336  0.4686  1.1306  0.4572
  179DOPC  C21621946   5.261   6.494  13.529 -0.4321 -1.1205 -0.2057
  179DOPC  H16R21947   5.262   6.601  13.499  1.2603 -0.9018  0.5086
  179DOPC  H16S21948   5.333   6.469  13.610 -2.6214 -1.0860  1.8616
  179DOPC  C21721949   5.126   6.462  13.593  0.0105 -0.0571  0.0545
  179DOPC  H17R21950   5.067   6.419  13.509  1.0578  0.3322 -0.9012
  179DOPC  H17S21951   5.073   6.557  13.615 -0.5424  0.2493 -2.3014
  179DOPC  C21821952   5.129   6.366  13.708 -0.5567  0.2921 -0.1657
  179DOPC  H18R21953   5.146   6.267  13.660  0.7235  0.1964  0.4465
  179DOPC  H18S21954   5.033   6.370  13.764  1.3305  1.0518  3.3157
  179DOPC  H18T21955   5.206   6.395  13.782 -2.3522  3.0078  0.7930
  179DOPC   C3321956   4.992   5.867  12.449 -0.0213  0.0282 -0.9961
  179DOPC   H3X21957   5.081   5.921  12.410  0.3225  0.6083  0.5218
  179DOPC   H3Y21958   5.021   5.760  12.449  0.4641  0.1571 -0.3564
  179DOPC   C3421959   4.969   5.885  12.602 -0.5614  0.3967 -0.2397
  179DOPC   H4X21960   4.905   5.800  12.635 -0.0684 -0.1701 -0.7200
  179DOPC   H4Y21961   4.908   5.976  12.617  0.9152  1.2357  0.8838
  179DOPC   C3521962   5.096   5.889  12.687  0.4952  0.4897  0.2976
  179DOPC   H5X21963   5.076   5.927  12.790  3.5573 -0.0343  1.1941
  179DOPC   H5Y21964   5.161   5.961  12.634  0.6137 -1.0829 -1.8111
  179DOPC   C3621965   5.161   5.747  12.681  0.2176 -0.7393 -0.4629
  179DOPC   H6X21966   5.089   5.663  12.694  0.3748 -0.8892 -0.5648
  179DOPC   H6Y21967   5.218   5.739  12.586  0.2504 -1.2472 -0.4033
  179DOPC   C3721968   5.265   5.731  12.800  0.3336 -0.2966 -0.2591
  179DOPC   H7X21969   5.339   5.650  12.779 -0.0922 -0.8203  0.2344
  179DOPC   H7Y21970   5.306   5.834  12.805  1.3223 -0.6903  0.1326
  179DOPC   C3821971   5.190   5.706  12.935  0.6867  0.5376  0.2941
  179DOPC   H8X21972   5.095   5.762  12.936  1.3905  1.7833  1.1857
  179DOPC   H8Y21973   5.244   5.762  13.015 -0.6003 -0.0508  1.6135
  179DOPC   C3921974   5.176   5.557  12.983  0.1934 -0.2240 -0.4445
  179DOPC   H9X21975   5.161   5.490  12.897 -0.5366 -0.6866  0.0434
  179DOPC  C31021976   5.193   5.515  13.113 -0.3664  0.0326  0.2280
  179DOPC  H10X21977   5.196   5.406  13.122  2.0887 -0.0753 -0.9490
  179DOPC  C31121978   5.218   5.603  13.234 -0.7036  0.1490 -0.2223
  179DOPC  H11X21979   5.208   5.711  13.207  0.4388  0.5253  0.7428
  179DOPC  H11Y21980   5.326   5.599  13.259 -0.5401 -0.5548 -1.0291
  179DOPC  C31221981   5.128   5.568  13.354 -0.0480 -0.4335  0.0483
  179DOPC  H12X21982   5.124   5.458  13.369  2.2097 -0.9110 -2.1365
  179DOPC  H12Y21983   5.026   5.608  13.341  0.1151  0.3392  1.0603
  179DOPC  C31321984   5.183   5.628  13.489 -0.0275 -0.6048  0.5080
  179DOPC  H13X21985   5.276   5.575  13.522  0.3123  1.8036  3.9238
  179DOPC  H13Y21986   5.210   5.735  13.477 -0.4385 -0.4494  0.9513
  179DOPC  C31421987   5.083   5.596  13.596  0.6796  0.1483  0.3117
  179DOPC  H14X21988   5.003   5.670  13.575  0.6705 -0.7121 -3.3045
  179DOPC  H14Y21989   5.045   5.492  13.586 -0.4468  0.5498  0.2405
  179DOPC  C31521990   5.149   5.631  13.735  0.9095  0.3359 -0.2884
  179DOPC  H15X21991   5.182   5.737  13.728 -0.8556  0.8478 -1.5143
  179DOPC  H15Y21992   5.240   5.572  13.759  0.0670 -0.3227  1.4852
  179DOPC  C31621993   5.045   5.631  13.848 -0.0510 -0.1808 -0.5664
  179DOPC  H16X21994   4.951   5.681  13.815  0.3225  0.0375 -1.3374
  179DOPC  H16Y21995   5.019   5.525  13.870  3.9070 -0.9026  1.4948
  179DOPC  C31721996   5.102   5.707  13.972  0.1518 -0.1030 -0.4010
  179DOPC  H17X21997   5.194   5.663  14.016  0.5691 -0.6672 -1.7659
  179DOPC  H17Y21998   5.125   5.806  13.927 -0.0440  1.0508  1.9097
  179DOPC  C31821999   4.997   5.731  14.081  0.1556  0.8428 -0.8885
  179DOPC  H18X22000   4.893   5.723  14.043  0.0709  0.1983 -0.5374
  179DOPC  H18Y22001   5.017   5.655  14.159  0.2520 -0.3633 -2.0361
  179DOPC  H18Z22002   5.011   5.831  14.127 -0.8816  1.2415 -1.3988
  180DOPC     N22003   6.585   3.575  11.606 -0.6195  0.6411 -0.1556
  180DOPC   C1222004   6.525   3.523  11.735  0.6488 -0.2805  0.0907
  180DOPC  H12A22005   6.485   3.423  11.725 -2.7818  1.0959 -1.1499
  180DOPC  H12B22006   6.432   3.572  11.759  0.3875 -2.0424  3.2439
  180DOPC   C1322007   6.699   3.482  11.557  0.0544  0.4936 -0.4065
  180DOPC  H13A22008   6.664   3.381  11.542  0.1089  0.6101 -1.4343
  180DOPC  H13B22009   6.730   3.521  11.461  1.3492  0.3491 -0.0544
  180DOPC  H13C22010   6.781   3.486  11.627 -0.0551  2.1500 -0.3259
  180DOPC   C1422011   6.645   3.705  11.637  0.8230  0.2456  0.7182
  180DOPC  H14A22012   6.702   3.696  11.729  1.9484  0.7475  0.0917
  180DOPC  H14B22013   6.705   3.740  11.555 -0.0126 -0.6102 -0.2848
  180DOPC  H14C22014   6.575   3.785  11.654  1.7492  1.1026  0.6096
  180DOPC   C1522015   6.486   3.588  11.497  0.4513 -0.2049 -0.3003
  180DOPC  H15A22016   6.416   3.663  11.529  0.6922  0.2738 -0.8714
  180DOPC  H15B22017   6.425   3.500  11.487  1.4541 -0.9458 -0.1283
  180DOPC  H15C22018   6.532   3.622  11.405 -0.0160  0.7560 -0.1900
  180DOPC   C1122019   6.616   3.522  11.866 -0.4029 -0.3222 -0.1484
  180DOPC  H11A22020   6.561   3.453  11.934 -1.1699  0.5442  0.1396
  180DOPC  H11B22021   6.715   3.476  11.847  0.0338 -0.1158  1.5011
  180DOPC     P22022   6.515   3.738  11.986  0.1877  0.2336 -0.0913
  180DOPC   O1322023   6.378   3.684  11.973 -0.2744  0.0710 -0.5349
  180DOPC   O1422024   6.532   3.880  11.945  0.4813 -0.1689 -0.4882
  180DOPC   O1222025   6.635   3.650  11.929  0.2923  0.1115  0.4060
  180DOPC   O1122026   6.561   3.725  12.137  0.3207 -0.0854  0.3363
  180DOPC    C122027   6.569   3.599  12.198 -0.2918  0.3033  0.6019
  180DOPC    HA22028   6.678   3.577  12.197 -0.0973  1.0680 -1.7594
  180DOPC    HB22029   6.523   3.514  12.145 -0.5885  0.8220  0.0167
  180DOPC    C222030   6.526   3.598  12.349 -0.6854  0.3283 -0.0465
  180DOPC    HS22031   6.417   3.614  12.360 -0.8710 -0.3432 -0.8007
  180DOPC   O2122032   6.609   3.694  12.423 -0.3444 -0.4606 -0.0810
  180DOPC   C2122033   6.560   3.722  12.545 -0.4016  0.4310  0.0636
  180DOPC   O2222034   6.447   3.689  12.584  0.6387 -0.1162  0.2531
  180DOPC   C2222035   6.661   3.805  12.627  0.0075  0.2539  0.0449
  180DOPC   H2R22036   6.633   3.911  12.611  2.0238  1.1228  1.8756
  180DOPC   H2S22037   6.760   3.784  12.580 -1.4636 -2.4935 -2.1788
  180DOPC    C322038   6.561   3.455  12.391  0.1596  0.1340 -0.1409
  180DOPC    HX22039   6.668   3.444  12.364  0.0105  0.7790 -1.0056
  180DOPC    HY22040   6.506   3.371  12.344 -0.7862 -1.2060  3.0307
  180DOPC   O3122041   6.558   3.436  12.541  0.4950 -0.5374 -0.3133
  180DOPC   C3122042   6.461   3.365  12.599 -0.0760  0.2193 -0.1754
  180DOPC   O3222043   6.392   3.277  12.544  0.2007  0.5590 -0.0372
  180DOPC   C3222044   6.454   3.412  12.746 -0.3848  0.2889 -0.6650
  180DOPC   H2X22045   6.543   3.475  12.770 -0.6584  0.9169 -1.2857
  180DOPC   H2Y22046   6.362   3.474  12.742  0.7172  2.2309  1.5538
  180DOPC   C2322047   6.669   3.772  12.779  0.8009  0.6108 -0.2312
  180DOPC   H3R22048   6.761   3.821  12.819  0.7153  1.5307 -1.1144
  180DOPC   H3S22049   6.691   3.664  12.785  1.1657  0.6652 -0.5252
  180DOPC   C2422050   6.543   3.827  12.854  0.1547 -0.3133  0.7776
  180DOPC   H4R22051   6.458   3.779  12.802 -0.8612  1.4240  0.7405
  180DOPC   H4S22052   6.540   3.938  12.854  0.4036 -0.3048  0.6828
  180DOPC   C2522053   6.530   3.777  13.001  0.2908  0.6664 -0.0050
  180DOPC   H5R22054   6.542   3.667  12.994 -0.7717  0.4350  1.2689
  180DOPC   H5S22055   6.423   3.790  13.030 -0.4658 -2.0125 -1.3037
  180DOPC   C2622056   6.626   3.846  13.101  0.6359  0.3134  0.4621
  180DOPC   H6R22057   6.594   3.952  13.117  0.1337  0.1220  0.7581
  180DOPC   H6S22058   6.724   3.841  13.049 -0.1383 -2.7477 -0.8857
  180DOPC   C2722059   6.643   3.780  13.237 -0.2157  0.1282 -0.1165
  180DOPC   H7R22060   6.713   3.835  13.304  1.8171 -0.3111 -1.7640
  180DOPC   H7S22061   6.681   3.677  13.222  1.5985  0.7130  0.1691
  180DOPC   C2822062   6.505   3.764  13.302 -0.1958  0.1682 -0.2971
  180DOPC   H8R22063   6.501   3.697  13.391  0.3622  0.8374  0.2433
  180DOPC   H8S22064   6.438   3.716  13.228 -0.7688  2.9944 -1.7650
  180DOPC   C2922065   6.447   3.900  13.333 -0.2653 -0.6259 -0.4876
  180DOPC   H9R22066   6.389   3.935  13.246  2.1501  0.5748 -1.7106
  180DOPC  C21022067   6.475   3.971  13.441  0.0267 -0.2084 -0.1276
  180DOPC  H10R22068   6.442   4.075  13.455  1.0540  0.2450 -0.8933
  180DOPC  C21122069   6.564   3.930  13.554 -0.4165 -0.6288 -1.0463
  180DOPC  H11R22070   6.671   3.951  13.532  0.4995 -1.2870  2.3205
  180DOPC  H11S22071   6.558   3.824  13.585 -0.2291  0.3515  2.7484
  180DOPC  C21222072   6.541   4.002  13.690  0.1205  0.9285 -0.6184
  180DOPC  H12R22073   6.549   4.110  13.663 -2.9537  0.7965 -2.5488
  180DOPC  H12S22074   6.618   3.975  13.765 -2.3106 -1.4599  1.1882
  180DOPC  C21322075   6.403   3.961  13.746  0.0037 -0.5799 -0.0349
  180DOPC  H13R22076   6.409   3.851  13.754  1.7501 -0.5835 -0.9693
  180DOPC  H13S22077   6.336   4.001  13.667  0.7564 -0.0037 -0.3943
  180DOPC  C21422078   6.377   4.022  13.889 -0.8242 -0.3405  0.1268
  180DOPC  H14R22079   6.406   4.129  13.883  0.0479 -0.3955  2.3054
  180DOPC  H14S22080   6.441   3.963  13.958 -1.9221 -1.7221  0.0159
  180DOPC  C21522081   6.233   4.010  13.922 -0.1816 -0.1561  0.6697
  180DOPC  H15R22082   6.194   3.912  13.887  2.9972 -1.9080  1.6309
  180DOPC  H15S22083   6.180   4.095  13.874 -3.0902 -1.5224  1.2374
  180DOPC  C21622084   6.201   4.019  14.075  0.1880 -0.6214  0.2880
  180DOPC  H16R22085   6.226   3.924  14.126 -0.7400 -1.7591 -1.3176
  180DOPC  H16S22086   6.090   4.026  14.068  0.2557  0.4387 -0.0110
  180DOPC  C21722087   6.250   4.149  14.137 -0.1096 -0.6998 -0.4780
  180DOPC  H17R22088   6.256   4.224  14.055  0.2571 -0.6805 -0.4327
  180DOPC  H17S22089   6.343   4.130  14.195  0.4560 -0.2834 -1.2330
  180DOPC  C21822090   6.158   4.211  14.246  0.2816 -0.2490  0.3524
  180DOPC  H18R22091   6.115   4.132  14.312 -0.1802 -0.0797  0.2592
  180DOPC  H18S22092   6.067   4.266  14.213  1.6505  2.4634  0.8227
  180DOPC  H18T22093   6.215   4.280  14.311  0.8480 -1.5186  1.2555
  180DOPC   C3322094   6.431   3.303  12.854  0.9225  0.3365 -0.5918
  180DOPC   H3X22095   6.531   3.261  12.880  1.3515  0.7845 -1.4608
  180DOPC   H3Y22096   6.362   3.225  12.817 -0.7728  1.6543 -0.3122
  180DOPC   C3422097   6.357   3.367  12.983  0.5472 -0.6259 -0.0322
  180DOPC   H4X22098   6.250   3.342  12.999  0.0960  0.9823 -0.2859
  180DOPC   H4Y22099   6.374   3.476  12.972 -2.1302 -0.3360 -2.3980
  180DOPC   C3522100   6.427   3.316  13.112 -0.5201  0.2594  0.3134
  180DOPC   H5X22101   6.537   3.322  13.096 -0.6247  2.9356  0.0928
  180DOPC   H5Y22102   6.395   3.211  13.130 -0.3714 -0.0147 -0.8874
  180DOPC   C3622103   6.398   3.388  13.239 -0.1582  1.3673 -0.3462
  180DOPC   H6X22104   6.450   3.486  13.236  1.3814  0.6358  0.7843
  180DOPC   H6Y22105   6.289   3.406  13.241 -0.5991 -0.9688 -0.2270
  180DOPC   C3722106   6.449   3.318  13.364 -0.3666 -0.1475 -0.2479
  180DOPC   H7X22107   6.392   3.224  13.385  0.8368 -0.4327  1.9855
  180DOPC   H7Y22108   6.549   3.285  13.330 -1.1631 -1.4902 -1.4676
  180DOPC   C3822109   6.463   3.414  13.481  0.6250  0.9921  0.7528
  180DOPC   H8X22110   6.360   3.448  13.506  0.7763  1.1086  1.2311
  180DOPC   H8Y22111   6.514   3.509  13.456 -0.2437  1.0380 -1.0103
  180DOPC   C3922112   6.523   3.357  13.605  0.3018 -0.5151  0.1318
  180DOPC   H9X22113   6.626   3.317  13.603  0.3710 -0.4164  1.1497
  180DOPC  C31022114   6.459   3.325  13.711 -0.5038 -0.3811  0.1192
  180DOPC  H10X22115   6.521   3.272  13.785  1.1779  1.2245 -0.0703
  180DOPC  C31122116   6.313   3.346  13.746  0.4125 -0.3390  0.6566
  180DOPC  H11X22117   6.260   3.250  13.731 -0.5514  0.5258 -2.0127
  180DOPC  H11Y22118   6.269   3.427  13.684  0.9737 -0.7432 -0.2934
  180DOPC  C31222119   6.294   3.396  13.883  0.1698  0.4673 -0.2621
  180DOPC  H12X22120   6.342   3.329  13.957  1.8666  0.5143 -1.2632
  180DOPC  H12Y22121   6.184   3.391  13.900 -0.1602 -4.6022 -2.2081
  180DOPC  C31322122   6.345   3.539  13.903  1.0023  0.0944 -1.0021
  180DOPC  H13X22123   6.451   3.560  13.875  1.1793  0.0883 -0.3381
  180DOPC  H13Y22124   6.290   3.603  13.831  2.1904  3.3617  0.7977
  180DOPC  C31422125   6.318   3.589  14.041 -0.1751 -0.1994  0.0688
  180DOPC  H14X22126   6.323   3.700  14.047 -0.0127 -0.2648  1.5445
  180DOPC  H14Y22127   6.211   3.568  14.063  0.0157 -1.4504 -0.1440
  180DOPC  C31522128   6.405   3.530  14.147 -0.1975  0.2565  0.1883
  180DOPC  H15X22129   6.508   3.570  14.132 -0.1858  0.2889  0.3534
  180DOPC  H15Y22130   6.417   3.419  14.146  2.2504  0.4545  0.1033
  180DOPC  C31622131   6.363   3.575  14.285  0.1832  0.4768 -0.6519
  180DOPC  H16X22132   6.386   3.681  14.310  1.5832  0.2129 -0.7437
  180DOPC  H16Y22133   6.256   3.561  14.313  0.3074  0.0925 -0.3606
  180DOPC  C31722134   6.452   3.510  14.387  0.3147 -0.1563 -0.0379
  180DOPC  H17X22135   6.424   3.403  14.403  0.8281 -0.4318 -0.9461
  180DOPC  H17Y22136   6.558   3.515  14.355  0.5527  3.7880  0.9509
  180DOPC  C31822137   6.458   3.581  14.525 -0.2590  0.2509 -0.3908
  180DOPC  H18X22138   6.537   3.540  14.591 -0.3773  1.1249  0.3179
  180DOPC  H18Y22139   6.485   3.685  14.497  1.6827  0.3953  1.7292
  180DOPC  H18Z22140   6.360   3.576  14.579 -1.2568  0.1878 -2.1384
  181DOPC     N22141   0.964   3.811  11.952 -0.3892  0.1669 -0.1469
  181DOPC   C1222142   1.039   3.859  12.076 -0.6427 -0.6831 -0.7585
  181DOPC  H12A22143   1.070   3.961  12.063 -0.1757 -0.7348 -0.0809
  181DOPC  H12B22144   1.122   3.790  12.084 -0.4018 -0.3995 -0.7852
  181DOPC   C1322145   0.933   3.667  11.985  0.4570  0.0506 -0.4606
  181DOPC  H13A22146   0.865   3.615  11.920 -0.0537  1.9119 -1.4807
  181DOPC  H13B22147   1.019   3.602  11.989 -1.0302 -2.0735 -1.1604
  181DOPC  H13C22148   0.882   3.658  12.080  0.4169 -0.6506 -0.5444
  181DOPC   C1422149   1.040   3.822  11.826  0.5506  1.3147  0.3659
  181DOPC  H14A22150   1.072   3.922  11.801  2.0911  0.7948  0.1235
  181DOPC  H14B22151   1.129   3.760  11.823 -1.1521 -1.3101 -0.0579
  181DOPC  H14C22152   0.975   3.783  11.748 -0.6761  0.5533  1.7259
  181DOPC   C1522153   0.839   3.893  11.939  0.4028  0.6433  0.1555
  181DOPC  H15A22154   0.778   3.890  12.028 -3.6437  0.3634 -2.3914
  181DOPC  H15B22155   0.781   3.848  11.860  1.9074  0.4012 -0.8661
  181DOPC  H15C22156   0.852   3.994  11.905  0.2889  0.9531  1.0040
  181DOPC   C1122157   0.970   3.869  12.217 -0.0822  0.1098  0.1045
  181DOPC  H11A22158   1.036   3.926  12.286  1.1718 -0.0260 -0.9587
  181DOPC  H11B22159   0.880   3.931  12.196 -0.3512 -0.4700 -0.4906
  181DOPC     P22160   1.035   3.649  12.337 -0.1417 -0.1763 -0.0095
  181DOPC   O1322161   1.169   3.693  12.295  0.1381  0.3810 -0.0875
  181DOPC   O1422162   0.997   3.511  12.295 -0.6639 -0.0491 -0.5502
  181DOPC   O1222163   0.929   3.743  12.266  0.1062  0.2488 -0.2930
  181DOPC   O1122164   1.021   3.680  12.498  0.0892  0.4474  1.0722
  181DOPC    C122165   0.953   3.795  12.550  0.3315 -0.2128  1.0860
  181DOPC    HA22166   0.851   3.811  12.509  1.7813  2.3580 -1.9379
  181DOPC    HB22167   1.002   3.891  12.525 -0.3800 -0.5295 -1.9114
  181DOPC    C222168   0.926   3.792  12.695 -0.4027 -0.3699  0.7137
  181DOPC    HS22169   0.830   3.846  12.709 -0.7152 -0.1169 -2.0332
  181DOPC   O2122170   1.031   3.855  12.759 -0.6527 -0.4054 -0.4769
  181DOPC   C2122171   1.001   3.939  12.857 -0.3499 -0.0046  0.1234
  181DOPC   O2222172   0.889   3.971  12.894 -0.1330 -0.3494 -0.4264
  181DOPC   C2222173   1.136   4.013  12.888  0.2993 -0.3087  0.1429
  181DOPC   H2R22174   1.127   4.105  12.827 -0.3331 -1.0651 -0.9352
  181DOPC   H2S22175   1.222   3.954  12.850  0.1631  0.4900 -1.5140
  181DOPC    C322176   0.910   3.644  12.740  0.4914  0.2903  0.2750
  181DOPC    HX22177   1.010   3.601  12.762  0.5043  0.0626 -0.2136
  181DOPC    HY22178   0.876   3.583  12.654  0.6101  0.6993 -0.0696
  181DOPC   O3122179   0.811   3.633  12.846  0.3468  0.4710  0.1550
  181DOPC   C3122180   0.860   3.640  12.968 -0.3496  0.1125 -0.9505
  181DOPC   O3222181   0.980   3.647  12.993  0.1684  0.4256  0.2602
  181DOPC   C3222182   0.744   3.632  13.069  0.2107  0.1012  0.2184
  181DOPC   H2X22183   0.683   3.724  13.064  1.1620  0.7968  1.0681
  181DOPC   H2Y22184   0.683   3.543  13.043 -0.5173  0.8556 -0.7258
  181DOPC   C2322185   1.146   4.061  13.035  0.8581  1.0398 -0.1135
  181DOPC   H3R22186   1.084   4.152  13.050  1.8976  1.8610 -0.6609
  181DOPC   H3S22187   1.250   4.090  13.061  0.8669  0.6893  0.2514
  181DOPC   C2422188   1.087   3.950  13.128 -0.2270 -0.0248 -0.1187
  181DOPC   H4R22189   1.135   3.853  13.102 -1.1913 -0.9721  1.4352
  181DOPC   H4S22190   0.977   3.936  13.123 -0.3216  0.0784  1.3351
  181DOPC   C2522191   1.121   3.976  13.273  0.0696  0.4746  0.1097
  181DOPC   H5R22192   1.057   4.054  13.320 -0.6596  0.0770 -0.2095
  181DOPC   H5S22193   1.224   4.016  13.278  0.8205 -1.3392 -0.2084
  181DOPC   C2622194   1.112   3.854  13.362  0.1446 -0.0496 -1.3579
  181DOPC   H6R22195   1.182   3.775  13.331  0.5383 -1.0855  1.7903
  181DOPC   H6S22196   1.008   3.814  13.363 -0.1139  0.5443  0.6487
  181DOPC   C2722197   1.164   3.876  13.502 -0.6611 -0.3220  0.1935
  181DOPC   H7R22198   1.113   3.962  13.550  2.4110  0.8840  1.5434
  181DOPC   H7S22199   1.268   3.913  13.489 -0.9745  0.1831 -1.0552
  181DOPC   C2822200   1.155   3.755  13.596 -0.6616  0.5938  0.0255
  181DOPC   H8R22201   1.236   3.760  13.672 -1.7440  1.8327  1.1448
  181DOPC   H8S22202   1.184   3.663  13.541 -0.2417  2.0313 -2.2947
  181DOPC   C2922203   1.023   3.737  13.664  0.7833  0.2832  0.0850
  181DOPC   H9R22204   0.939   3.705  13.601  2.7037 -1.8303 -1.5977
  181DOPC  C21022205   1.001   3.723  13.797 -0.0424 -0.8884  0.7528
  181DOPC  H10R22206   0.896   3.711  13.829 -0.5490 -0.1354 -0.5778
  181DOPC  C21122207   1.106   3.721  13.905 -0.0266  0.2839 -0.6671
  181DOPC  H11R22208   1.199   3.773  13.873  1.7919 -1.9891  0.5840
  181DOPC  H11S22209   1.130   3.616  13.933  0.0621  0.5760  0.3893
  181DOPC  C21222210   1.048   3.786  14.029 -0.4899 -0.1069 -0.5689
  181DOPC  H12R22211   1.009   3.882  13.989  0.5965 -0.0507 -1.5455
  181DOPC  H12S22212   1.131   3.816  14.097 -0.3594 -0.0091 -0.7698
  181DOPC  C21322213   0.944   3.704  14.100  0.0429  0.4040 -0.1499
  181DOPC  H13R22214   0.980   3.601  14.122  0.9484  0.7782  0.1595
  181DOPC  H13S22215   0.860   3.699  14.028 -1.1420  0.2863  1.1869
  181DOPC  C21422216   0.884   3.765  14.225  0.0048  0.4173 -0.2443
  181DOPC  H14R22217   0.846   3.868  14.206  2.0781  1.3828  0.5484
  181DOPC  H14S22218   0.966   3.774  14.299 -0.1129 -0.1973 -0.0356
  181DOPC  C21522219   0.773   3.678  14.284  0.0549 -0.0369 -0.1853
  181DOPC  H15R22220   0.804   3.572  14.293  2.5502  0.7433  1.9533
  181DOPC  H15S22221   0.692   3.685  14.209 -0.1694 -1.7531 -0.1322
  181DOPC  C21622222   0.736   3.735  14.424  0.7849 -0.8371  0.5572
  181DOPC  H16R22223   0.640   3.688  14.455  0.9835  0.0991  2.8380
  181DOPC  H16S22224   0.718   3.845  14.424  2.0726 -0.6006  1.2879
  181DOPC  C21722225   0.834   3.687  14.536 -0.0855  0.5121 -0.2108
  181DOPC  H17R22226   0.932   3.663  14.490  0.0101  0.1723  0.1705
  181DOPC  H17S22227   0.799   3.591  14.579 -1.2277  1.5124  1.1738
  181DOPC  C21822228   0.847   3.790  14.647  0.6825  0.7002 -0.0894
  181DOPC  H18R22229   0.934   3.767  14.712  0.7290 -0.4250 -0.5308
  181DOPC  H18S22230   0.753   3.800  14.706  1.8215  2.2209  1.5556
  181DOPC  H18T22231   0.862   3.888  14.596 -1.9728  0.1963 -2.0756
  181DOPC   C3322232   0.797   3.628  13.207  0.3846  0.4129 -0.5100
  181DOPC   H3X22233   0.851   3.724  13.221 -1.5131  1.5811 -0.8501
  181DOPC   H3Y22234   0.873   3.548  13.224 -1.3558 -1.7204 -2.1081
  181DOPC   C3422235   0.680   3.622  13.314 -0.0954 -0.1926 -0.1276
  181DOPC   H4X22236   0.611   3.538  13.292 -0.8696  0.8045 -1.6691
  181DOPC   H4Y22237   0.624   3.713  13.284 -0.4789 -1.1995 -2.6975
  181DOPC   C3522238   0.720   3.633  13.454 -0.1008  0.2978  0.0280
  181DOPC   H5X22239   0.759   3.736  13.468  1.4807  0.1504 -2.6499
  181DOPC   H5Y22240   0.806   3.566  13.477 -1.4413 -1.4300  0.2342
  181DOPC   C3622241   0.602   3.601  13.559 -0.3823  0.8101  0.5735
  181DOPC   H6X22242   0.507   3.652  13.533 -1.3558  0.2183  2.7434
  181DOPC   H6Y22243   0.580   3.493  13.559 -0.8570  0.8802 -0.8384
  181DOPC   C3722244   0.646   3.629  13.701 -0.5694 -0.1572  0.2370
  181DOPC   H7X22245   0.745   3.586  13.726  1.6773  3.2177 -2.0023
  181DOPC   H7Y22246   0.657   3.739  13.703 -1.3898 -0.0530 -0.4755
  181DOPC   C3822247   0.543   3.594  13.813 -0.0051 -0.0054 -0.5244
  181DOPC   H8X22248   0.449   3.652  13.799 -0.3248  0.1245  1.7761
  181DOPC   H8Y22249   0.590   3.644  13.900  1.1783  0.6906 -1.5347
  181DOPC   C3922250   0.519   3.451  13.827 -0.5469 -0.3191 -0.3332
  181DOPC   H9X22251   0.417   3.432  13.789 -1.0157 -1.8278  1.5278
  181DOPC  C31022252   0.592   3.361  13.889  0.4729  0.5563  0.0535
  181DOPC  H10X22253   0.572   3.254  13.879  0.8606  0.6249 -1.7038
  181DOPC  C31122254   0.724   3.389  13.951 -0.0668 -0.9630  0.0928
  181DOPC  H11X22255   0.733   3.489  14.000  1.4668 -0.2590 -1.5262
  181DOPC  H11Y22256   0.793   3.389  13.864 -1.0467 -0.1751 -0.7083
  181DOPC  C31222257   0.773   3.304  14.075 -0.2729  0.4206  0.6179
  181DOPC  H12X22258   0.875   3.345  14.092 -0.0832  0.0902  0.2846
  181DOPC  H12Y22259   0.796   3.200  14.041 -0.6571  0.8390 -1.0264
  181DOPC  C31322260   0.689   3.317  14.197  1.1470  0.3190 -0.0461
  181DOPC  H13X22261   0.667   3.425  14.203  1.0145  0.6152 -3.5041
  181DOPC  H13Y22262   0.595   3.266  14.166 -0.0851  1.4445  1.6850
  181DOPC  C31422263   0.747   3.243  14.315  0.0321 -0.4469 -0.0985
  181DOPC  H14X22264   0.762   3.136  14.291  2.5448 -0.0338 -0.6732
  181DOPC  H14Y22265   0.852   3.280  14.324 -0.3156  0.2411  1.4648
  181DOPC  C31522266   0.674   3.256  14.449 -0.1390 -0.4761  0.5233
  181DOPC  H15X22267   0.567   3.262  14.418  0.0470  2.3868  0.1494
  181DOPC  H15Y22268   0.688   3.354  14.498 -1.0388 -0.1588  0.1737
  181DOPC  C31622269   0.695   3.147  14.563 -0.6881 -0.4969 -0.0190
  181DOPC  H16X22270   0.700   3.043  14.527  2.2407  0.3900 -2.5877
  181DOPC  H16Y22271   0.789   3.161  14.621 -0.8088  2.4515 -0.3527
  181DOPC  C31722272   0.581   3.147  14.675 -0.4399 -0.0420  0.4722
  181DOPC  H17X22273   0.480   3.150  14.628  0.5242  2.0085 -1.6502
  181DOPC  H17Y22274   0.591   3.053  14.735  1.4005  0.2301  0.6437
  181DOPC  C31822275   0.586   3.272  14.760 -0.3710  0.1315 -0.4215
  181DOPC  H18X22276   0.560   3.356  14.692 -3.7792 -1.6838 -1.6372
  181DOPC  H18Y22277   0.511   3.271  14.842 -0.2560 -0.0518 -0.3190
  181DOPC  H18Z22278   0.689   3.283  14.798  0.4389  2.3755 -2.9844
  182DOPC     N22279   1.772   2.354  12.579  0.4337  0.1607 -0.1295
  182DOPC   C1222280   1.848   2.361  12.708  0.0448 -0.0394 -0.0694
  182DOPC  H12A22281   1.794   2.428  12.774  0.2880 -1.0171  1.1685
  182DOPC  H12B22282   1.949   2.400  12.706  0.0880 -0.0869  0.8628
  182DOPC   C1322283   1.741   2.494  12.539 -0.0447 -0.4017  0.0418
  182DOPC  H13A22284   1.823   2.550  12.496 -0.3563 -0.4265 -0.5981
  182DOPC  H13B22285   1.671   2.493  12.457  3.0272 -1.7382 -2.7605
  182DOPC  H13C22286   1.693   2.554  12.615 -0.1989  0.3438 -0.6346
  182DOPC   C1422287   1.640   2.297  12.601 -0.5625 -0.4003 -0.2209
  182DOPC  H14A22288   1.578   2.294  12.512 -0.0800 -1.0122 -0.5457
  182DOPC  H14B22289   1.639   2.191  12.621  1.4577 -0.8624 -2.1329
  182DOPC  H14C22290   1.578   2.344  12.676 -1.1829 -0.3636 -0.7485
  182DOPC   C1522291   1.838   2.279  12.471  0.2077  0.0663 -0.2176
  182DOPC  H15A22292   1.919   2.331  12.420  1.0420  1.0979  2.0113
  182DOPC  H15B22293   1.757   2.258  12.402  1.4995 -0.2334 -1.7200
  182DOPC  H15C22294   1.888   2.191  12.509 -1.2404 -0.9026 -0.4889
  182DOPC   C1122295   1.852   2.229  12.783 -0.7205  0.1362 -0.1498
  182DOPC  H11A22296   1.891   2.229  12.887 -0.3155  1.5119 -0.2771
  182DOPC  H11B22297   1.755   2.178  12.798 -0.7182  0.2452  0.2450
  182DOPC     P22298   2.091   2.135  12.727  0.2776  0.4267 -0.0437
  182DOPC   O1322299   2.138   2.274  12.726  0.2103  0.0042 -0.0558
  182DOPC   O1422300   2.144   2.042  12.626  0.2641 -0.0631 -0.3853
  182DOPC   O1222301   1.938   2.137  12.712  0.2493 -0.6183  0.1349
  182DOPC   O1122302   2.110   2.074  12.872 -0.0957 -0.0666  0.0561
  182DOPC    C122303   2.033   1.960  12.917 -0.4032 -0.7688 -0.2767
  182DOPC    HA22304   2.032   1.873  12.848 -1.3068  0.1653 -1.4830
  182DOPC    HB22305   1.928   1.991  12.935 -0.5682 -1.2841 -0.3556
  182DOPC    C222306   2.100   1.902  13.046  0.1418 -0.1961 -0.8498
  182DOPC    HS22307   2.188   1.840  13.021  0.0827 -0.4623 -0.3967
  182DOPC   O2122308   1.999   1.824  13.114  0.0065 -0.0840 -0.4302
  182DOPC   C2122309   1.980   1.704  13.068 -0.0496  0.2352 -0.8416
  182DOPC   O2222310   2.021   1.656  12.964 -0.7192  0.0968  0.9913
  182DOPC   C2222311   1.906   1.628  13.181  0.1849 -0.3230  0.3882
  182DOPC   H2R22312   1.904   1.522  13.149  1.4854 -0.2899  0.1500
  182DOPC   H2S22313   1.805   1.673  13.177  0.6073  0.5501 -1.1526
  182DOPC    C322314   2.161   1.996  13.147 -0.2220 -0.0817  0.0503
  182DOPC    HX22315   2.083   2.062  13.189 -1.8998 -2.2055  0.4705
  182DOPC    HY22316   2.233   2.058  13.089  0.9497 -0.4104  1.1038
  182DOPC   O3122317   2.234   1.914  13.242  0.1330 -0.9196  0.9462
  182DOPC   C3122318   2.256   1.967  13.359  1.2972 -0.5533 -1.0206
  182DOPC   O3222319   2.217   2.075  13.404 -0.9345  0.0374 -0.6022
  182DOPC   C3222320   2.328   1.867  13.445  0.0517  0.0912 -0.0196
  182DOPC   H2X22321   2.263   1.777  13.444 -1.5253  1.1895 -0.3068
  182DOPC   H2Y22322   2.422   1.847  13.390  0.3888  0.7319  0.3090
  182DOPC   C2322323   1.968   1.637  13.321  0.6942  0.3833  0.2480
  182DOPC   H3R22324   1.982   1.745  13.342  1.1017  0.2152  0.8440
  182DOPC   H3S22325   2.072   1.600  13.331  1.1149  1.9224  2.1048
  182DOPC   C2422326   1.881   1.561  13.418  0.0216  0.3583  0.7865
  182DOPC   H4R22327   1.872   1.453  13.392  0.5740  0.3390  0.6695
  182DOPC   H4S22328   1.778   1.602  13.418 -0.3562 -0.5661 -0.2843
  182DOPC   C2522329   1.939   1.568  13.562  0.4130 -0.1332  0.1063
  182DOPC   H5R22330   1.953   1.677  13.580 -0.0927  0.3665 -2.2250
  182DOPC   H5S22331   2.042   1.527  13.570  0.4147 -0.0740  0.4097
  182DOPC   C2622332   1.848   1.493  13.665 -0.5733  0.4213  0.4585
  182DOPC   H6R22333   1.826   1.387  13.638 -1.6012  0.1241  2.3277
  182DOPC   H6S22334   1.741   1.524  13.657 -0.4303  0.5437 -1.4900
  182DOPC   C2722335   1.910   1.518  13.799  0.1058  0.1390 -0.5663
  182DOPC   H7R22336   1.890   1.624  13.822  0.8921 -0.5498  4.3548
  182DOPC   H7S22337   2.020   1.503  13.787  0.2123 -2.1484  2.0865
  182DOPC   C2822338   1.875   1.416  13.910  0.2531 -0.1713 -0.2679
  182DOPC   H8R22339   1.927   1.459  13.999 -2.0323 -0.4685  1.2954
  182DOPC   H8S22340   1.913   1.316  13.881 -0.2228 -0.3530 -0.2694
  182DOPC   C2922341   1.727   1.390  13.944  0.6511 -0.5791  0.4199
  182DOPC   H9R22342   1.667   1.360  13.857 -1.1594  3.3513  0.0827
  182DOPC  C21022343   1.669   1.404  14.062  0.6011 -0.8483 -0.9412
  182DOPC  H10R22344   1.564   1.375  14.076  0.4234 -0.1902 -0.8454
  182DOPC  C21122345   1.728   1.449  14.193  0.2570  0.4157 -0.3869
  182DOPC  H11R22346   1.662   1.509  14.259 -0.6527 -0.8128 -0.1531
  182DOPC  H11S22347   1.826   1.498  14.172  1.1144 -1.3280 -0.5830
  182DOPC  C21222348   1.753   1.316  14.273 -0.0887 -0.7040  0.1158
  182DOPC  H12R22349   1.836   1.342  14.342  1.2639  0.5810 -1.9133
  182DOPC  H12S22350   1.797   1.234  14.212 -1.4644 -0.0433 -1.8507
  182DOPC  C21322351   1.628   1.258  14.344  0.1657  0.0908 -0.0336
  182DOPC  H13R22352   1.534   1.258  14.285 -0.1138 -0.8621  0.3800
  182DOPC  H13S22353   1.613   1.333  14.423  2.3207  0.3425  0.1974
  182DOPC  C21422354   1.650   1.128  14.411  0.9595  0.0921 -0.4556
  182DOPC  H14R22355   1.731   1.137  14.486 -1.1716 -1.3303  2.2137
  182DOPC  H14S22356   1.675   1.051  14.336 -1.5634 -4.0942  2.5465
  182DOPC  C21522357   1.514   1.086  14.487 -0.0999  0.2896 -0.5865
  182DOPC  H15R22358   1.433   1.064  14.414 -1.2873  0.3815  0.6597
  182DOPC  H15S22359   1.489   1.174  14.550 -0.0646  0.4575 -0.8018
  182DOPC  C21622360   1.527   0.961  14.574  0.3788  0.6271 -0.2945
  182DOPC  H16R22361   1.541   0.880  14.500  0.8637 -0.1181  0.5919
  182DOPC  H16S22362   1.436   0.942  14.635  1.0933 -1.3547  0.2133
  182DOPC  C21722363   1.651   0.957  14.668  0.1504  0.1893  1.3775
  182DOPC  H17R22364   1.664   1.056  14.717  0.4088  2.0889 -2.1685
  182DOPC  H17S22365   1.737   0.938  14.600  1.7636  0.5693  3.2032
  182DOPC  C21822366   1.643   0.838  14.760 -0.0280  0.4599  0.0526
  182DOPC  H18R22367   1.622   0.745  14.703 -0.1136  0.0916  0.6677
  182DOPC  H18S22368   1.577   0.845  14.849  1.1643 -0.3994  1.0365
  182DOPC  H18T22369   1.739   0.820  14.812  0.1005 -0.1148 -0.3710
  182DOPC   C3322370   2.345   1.910  13.592  0.2410  0.2898 -0.4464
  182DOPC   H3X22371   2.247   1.929  13.639  0.4162 -1.5152  0.7381
  182DOPC   H3Y22372   2.402   2.005  13.590  0.3054  0.2781  0.6171
  182DOPC   C3422373   2.415   1.805  13.675  0.4300  0.7988 -0.5241
  182DOPC   H4X22374   2.510   1.766  13.631 -0.9742 -2.6537 -0.8781
  182DOPC   H4Y22375   2.351   1.716  13.696  1.7044  0.3518  1.7587
  182DOPC   C3522376   2.450   1.857  13.816 -0.3019  0.4418  0.0548
  182DOPC   H5X22377   2.469   1.967  13.810  0.2172  0.2926 -1.3457
  182DOPC   H5Y22378   2.538   1.803  13.856 -0.8858  1.5086  3.1004
  182DOPC   C3622379   2.342   1.825  13.921 -0.4254 -0.0692 -0.0302
  182DOPC   H6X22380   2.244   1.868  13.892 -0.3171  0.4013  0.2942
  182DOPC   H6Y22381   2.327   1.715  13.914 -1.1809  0.0495 -0.4268
  182DOPC   C3722382   2.384   1.882  14.063  0.6720  0.6088  0.5353
  182DOPC   H7X22383   2.319   1.822  14.131 -1.8246  1.5327 -0.9127
  182DOPC   H7Y22384   2.491   1.861  14.085  0.4539  0.5138  1.5294
  182DOPC   C3822385   2.348   2.033  14.089  0.2232 -0.1763  0.0950
  182DOPC   H8X22386   2.401   2.098  14.016 -0.3158  0.5801  0.3689
  182DOPC   H8Y22387   2.392   2.068  14.184  0.3623  2.2187 -0.7900
  182DOPC   C3922388   2.198   2.063  14.094 -0.1635  0.5572  0.4927
  182DOPC   H9X22389   2.148   2.002  14.171  1.1988  0.9455  1.7344
  182DOPC  C31022390   2.114   2.145  14.023 -0.2031  0.1719  1.6515
  182DOPC  H10X22391   2.006   2.139  14.038 -0.5222  0.3160 -0.3813
  182DOPC  C31122392   2.165   2.248  13.918  0.1385  1.0086 -0.0239
  182DOPC  H11X22393   2.275   2.262  13.918  0.2349  0.4885  1.9737
  182DOPC  H11Y22394   2.110   2.343  13.937  1.4478  1.5553  1.2100
  182DOPC  C31222395   2.125   2.210  13.775 -0.1197  1.0091 -0.4461
  182DOPC  H12X22396   2.123   2.101  13.755 -1.5225  0.8274  0.4811
  182DOPC  H12Y22397   2.208   2.248  13.712  2.2617 -1.2924  1.0964
  182DOPC  C31322398   1.985   2.252  13.738 -0.0754 -0.0410  0.2768
  182DOPC  H13X22399   1.912   2.213  13.813 -1.7914 -0.9126 -1.7274
  182DOPC  H13Y22400   1.989   2.363  13.734 -0.4741  0.0075  1.1143
  182DOPC  C31422401   1.953   2.191  13.608  0.2904 -0.6544  0.6036
  182DOPC  H14X22402   2.025   2.218  13.527 -0.2210  1.9859  0.9445
  182DOPC  H14Y22403   1.950   2.081  13.621 -0.7442 -0.7961 -0.5852
  182DOPC  C31522404   1.818   2.236  13.547 -0.2814  0.2978 -0.2752
  182DOPC  H15X22405   1.810   2.342  13.577  1.5666  0.0438  1.2880
  182DOPC  H15Y22406   1.740   2.173  13.594 -1.9228  1.6469 -1.0818
  182DOPC  C31622407   1.805   2.220  13.390  0.1910 -0.2699 -0.1768
  182DOPC  H16X22408   1.871   2.285  13.330  1.0397 -1.4658 -0.5732
  182DOPC  H16Y22409   1.835   2.119  13.355 -1.2348 -0.8795  0.2846
  182DOPC  C31722410   1.660   2.217  13.331 -0.2915 -0.3007  0.3960
  182DOPC  H17X22411   1.590   2.153  13.389 -0.4254 -2.3962 -1.9032
  182DOPC  H17Y22412   1.614   2.318  13.330  1.0126  0.4022  2.9086
  182DOPC  C31822413   1.661   2.168  13.186  0.2993 -0.1961  0.2030
  182DOPC  H18X22414   1.559   2.192  13.149 -0.1578  3.2018  3.1076
  182DOPC  H18Y22415   1.738   2.222  13.127  2.1882 -1.8882  0.9940
  182DOPC  H18Z22416   1.691   2.061  13.183  0.2529 -0.2848  1.8676
  183DOPC     N22417   6.179   4.405  11.496 -0.3280 -0.2404  0.4344
  183DOPC   C1222418   6.326   4.417  11.518 -0.2260 -0.0876 -0.1117
  183DOPC  H12A22419   6.360   4.502  11.460  2.1420 -0.9594 -0.1331
  183DOPC  H12B22420   6.372   4.331  11.472  0.3477  0.2704 -0.2253
  183DOPC   C1322421   6.157   4.378  11.347  0.2905  0.2565  0.2067
  183DOPC  H13A22422   6.050   4.384  11.330  0.6232 -0.5768 -2.6594
  183DOPC  H13B22423   6.200   4.458  11.290  1.1581  0.4810  1.1570
  183DOPC  H13C22424   6.191   4.276  11.333  1.1963  0.4306  1.0586
  183DOPC   C1422425   6.113   4.538  11.529  0.4527 -1.0235  0.2452
  183DOPC  H14A22426   6.007   4.533  11.509  0.5552 -1.1246 -0.2898
  183DOPC  H14B22427   6.129   4.546  11.636  1.2041 -2.4356  0.2601
  183DOPC  H14C22428   6.154   4.626  11.480 -0.4041  0.0053  1.3215
  183DOPC   C1522429   6.121   4.292  11.570 -0.6702 -0.2102  0.2347
  183DOPC  H15A22430   6.131   4.308  11.676 -2.2946  0.0209  0.3682
  183DOPC  H15B22431   6.171   4.197  11.554 -2.0248 -0.6665 -1.6377
  183DOPC  H15C22432   6.015   4.276  11.556 -0.9860  0.2495  1.9699
  183DOPC   C1122433   6.376   4.432  11.663  0.2130  0.8541 -0.2825
  183DOPC  H11A22434   6.326   4.358  11.729  1.2094  0.1808 -0.2548
  183DOPC  H11B22435   6.482   4.407  11.686  0.4417 -0.7554 -2.6807
  183DOPC     P22436   6.293   4.613  11.835  0.1643 -0.1746  0.4692
  183DOPC   O1322437   6.150   4.590  11.829  0.1213 -0.3383 -0.1560
  183DOPC   O1422438   6.340   4.751  11.848 -0.1862 -0.2126 -0.1299
  183DOPC   O1222439   6.353   4.566  11.696 -0.1814 -0.0693  0.2460
  183DOPC   O1122440   6.363   4.521  11.947 -0.0875 -0.0205 -0.0196
  183DOPC    C122441   6.502   4.527  11.984 -0.5293 -0.0671 -0.6211
  183DOPC    HA22442   6.565   4.594  11.921  1.4603 -0.7995  0.5208
  183DOPC    HB22443   6.543   4.425  11.970 -0.2454 -0.0595  0.1179
  183DOPC    C222444   6.512   4.550  12.138 -0.7912 -0.0977  0.1890
  183DOPC    HS22445   6.614   4.523  12.171 -0.5083  0.2661 -0.3597
  183DOPC   O2122446   6.412   4.469  12.208  0.0168  0.1339 -0.0538
  183DOPC   C2122447   6.456   4.428  12.329  1.0139 -0.1425  0.9247
  183DOPC   O2222448   6.560   4.452  12.380  0.1789  0.1764  0.0134
  183DOPC   C2222449   6.354   4.347  12.399 -0.2835  0.0828  0.3022
  183DOPC   H2R22450   6.360   4.244  12.356  0.9821  0.6517 -0.9529
  183DOPC   H2S22451   6.255   4.389  12.372  0.9725  1.8717 -1.7342
  183DOPC    C322452   6.489   4.698  12.169  0.5679 -0.0934  0.7709
  183DOPC    HX22453   6.384   4.729  12.151  0.7382 -0.6802 -1.6135
  183DOPC    HY22454   6.551   4.762  12.103 -3.2396  1.2420 -1.8500
  183DOPC   O3122455   6.520   4.727  12.307  0.3294 -0.5070  0.1389
  183DOPC   C3122456   6.644   4.731  12.337 -0.0738  0.3505 -0.5374
  183DOPC   O3222457   6.740   4.744  12.261  0.0095  0.5661  0.5638
  183DOPC   C3222458   6.648   4.751  12.492 -0.7159  0.1421  0.4850
  183DOPC   H2X22459   6.671   4.859  12.509 -1.6147  0.3234  0.5849
  183DOPC   H2Y22460   6.552   4.726  12.542 -1.2859 -0.7603 -0.9911
  183DOPC   C2322461   6.377   4.343  12.554 -0.1050 -0.5681 -1.1465
  183DOPC   H3R22462   6.370   4.448  12.588 -2.1820 -1.0301  0.0545
  183DOPC   H3S22463   6.484   4.315  12.562  0.2617  0.7051 -1.3112
  183DOPC   C2422464   6.279   4.248  12.624  0.2649  0.1408  0.1570
  183DOPC   H4R22465   6.281   4.146  12.581  1.7480  0.6147 -0.9841
  183DOPC   H4S22466   6.174   4.282  12.614  0.2924  0.3018  0.3951
  183DOPC   C2522467   6.288   4.249  12.775 -0.8868  0.5628 -0.3953
  183DOPC   H5R22468   6.203   4.194  12.821 -0.1906 -0.3122 -0.1215
  183DOPC   H5S22469   6.281   4.353  12.812 -0.9242  0.5873 -0.4732
  183DOPC   C2622470   6.427   4.201  12.823  0.3082 -0.0909 -0.9116
  183DOPC   H6R22471   6.499   4.284  12.810 -1.0662  1.5410  1.1923
  183DOPC   H6S22472   6.460   4.115  12.760 -0.0572 -0.9418  0.0286
  183DOPC   C2722473   6.435   4.170  12.974  0.0669  0.1212  0.0308
  183DOPC   H7R22474   6.542   4.146  12.993 -0.3251  0.0851  2.6452
  183DOPC   H7S22475   6.377   4.076  12.986  1.1621 -0.3807  1.7979
  183DOPC   C2822476   6.381   4.289  13.059 -0.1014 -0.5174  0.2387
  183DOPC   H8R22477   6.374   4.254  13.164 -1.9507  1.3809  0.8250
  183DOPC   H8S22478   6.275   4.308  13.033 -0.5945 -1.1898  1.6786
  183DOPC   C2922479   6.463   4.419  13.061  0.0138 -0.3195 -0.0344
  183DOPC   H9R22480   6.469   4.482  12.971  0.8663  1.9032  1.4908
  183DOPC  C21022481   6.548   4.462  13.158 -0.0297  0.1420 -0.3231
  183DOPC  H10R22482   6.609   4.553  13.146 -0.5259  0.4301 -0.6699
  183DOPC  C21122483   6.581   4.382  13.284  0.3158 -0.0842  0.1897
  183DOPC  H11R22484   6.689   4.389  13.309  0.2675  0.7037  0.2086
  183DOPC  H11S22485   6.558   4.273  13.280 -0.1136  0.0169 -0.1403
  183DOPC  C21222486   6.496   4.433  13.402  0.1906  0.1218  0.2212
  183DOPC  H12R22487   6.387   4.416  13.385  0.6070 -1.4413 -1.2234
  183DOPC  H12S22488   6.507   4.544  13.402 -2.7808  0.5249 -1.3065
  183DOPC  C21322489   6.539   4.376  13.543  0.5084 -0.6480  0.2668
  183DOPC  H13R22490   6.641   4.416  13.560  0.6937  0.4972 -2.7530
  183DOPC  H13S22491   6.548   4.266  13.538  1.0488 -0.5752 -0.6926
  183DOPC  C21422492   6.457   4.428  13.663  0.0371 -0.3873 -0.6081
  183DOPC  H14R22493   6.354   4.389  13.653  0.4859 -1.2082 -2.4799
  183DOPC  H14S22494   6.444   4.538  13.657 -1.6088 -0.3652  1.7803
  183DOPC  C21522495   6.527   4.406  13.794 -0.7657 -0.1954 -0.1743
  183DOPC  H15R22496   6.633   4.437  13.792 -0.1103 -2.2902 -1.6129
  183DOPC  H15S22497   6.516   4.296  13.802 -2.2507 -0.3177 -2.8330
  183DOPC  C21622498   6.454   4.486  13.907 -0.1179  0.7896  0.5991
  183DOPC  H16R22499   6.344   4.480  13.890 -0.0952 -1.3020  0.9661
  183DOPC  H16S22500   6.483   4.591  13.885 -1.1848  0.9702 -0.0155
  183DOPC  C21722501   6.500   4.431  14.037 -0.2326  0.3469 -0.3640
  183DOPC  H17R22502   6.598   4.475  14.062  0.3668 -1.4216  0.5628
  183DOPC  H17S22503   6.525   4.323  14.037  1.7007  0.7267  1.4344
  183DOPC  C21822504   6.412   4.464  14.164  0.2540  0.5234  0.3755
  183DOPC  H18R22505   6.304   4.455  14.140 -0.0930  1.9723  1.2730
  183DOPC  H18S22506   6.438   4.563  14.208  0.4873  0.5816  0.1110
  183DOPC  H18T22507   6.441   4.384  14.235 -0.0690  1.1561  1.2335
  183DOPC   C3322508   6.774   4.672  12.543  0.4608  0.0729 -0.1510
  183DOPC   H3X22509   6.868   4.728  12.525  1.6466 -0.9409  2.3845
  183DOPC   H3Y22510   6.775   4.573  12.492  1.1875  0.3165 -0.6270
  183DOPC   C3422511   6.761   4.638  12.690  0.3245  0.1909 -0.3741
  183DOPC   H4X22512   6.856   4.583  12.708  0.9052  0.5077 -2.1903
  183DOPC   H4Y22513   6.682   4.561  12.699 -0.0705  0.2230 -2.7163
  183DOPC   C3522514   6.758   4.755  12.781  0.7889 -0.0184  0.2584
  183DOPC   H5X22515   6.650   4.783  12.784  0.5384 -0.7748 -0.9908
  183DOPC   H5Y22516   6.810   4.845  12.744 -0.3127  0.4636 -0.1804
  183DOPC   C3622517   6.817   4.717  12.925  0.5664 -0.6325  0.4060
  183DOPC   H6X22518   6.753   4.629  12.949 -0.4156  0.1320  0.6359
  183DOPC   H6Y22519   6.922   4.681  12.928  1.0282  0.7359  1.2759
  183DOPC   C3722520   6.798   4.826  13.041 -0.2938  0.2275 -0.0437
  183DOPC   H7X22521   6.869   4.908  13.019 -0.3486  0.4318  0.5504
  183DOPC   H7Y22522   6.692   4.859  13.044 -0.1482  0.6561  0.3226
  183DOPC   C3822523   6.840   4.770  13.177 -0.1598  0.9487 -0.1769
  183DOPC   H8X22524   6.946   4.736  13.177 -0.1380  1.0118  0.6333
  183DOPC   H8Y22525   6.776   4.680  13.191 -0.7893  1.0800 -1.9607
  183DOPC   C3922526   6.828   4.857  13.294  0.1712 -0.4433 -0.3501
  183DOPC   H9X22527   6.846   4.965  13.284 -0.4718 -0.2547  0.4154
  183DOPC  C31022528   6.785   4.832  13.419  0.9995  0.9182 -0.0664
  183DOPC  H10X22529   6.768   4.925  13.476 -2.1499  1.1443 -1.1913
  183DOPC  C31122530   6.750   4.698  13.483  0.0009  0.4282 -0.4034
  183DOPC  H11X22531   6.784   4.618  13.414  0.0018  0.7592 -0.7922
  183DOPC  H11Y22532   6.639   4.702  13.479  0.0588  2.9256 -1.8916
  183DOPC  C31222533   6.824   4.664  13.627  0.3220 -0.4469  0.5077
  183DOPC  H12X22534   6.929   4.697  13.614  0.0212  0.5612  0.5821
  183DOPC  H12Y22535   6.828   4.554  13.643 -0.6160 -0.8235 -1.5321
  183DOPC  C31322536   6.759   4.728  13.740  0.9310 -0.4889 -0.4266
  183DOPC  H13X22537   6.777   4.838  13.734 -3.2698  0.6275  2.6568
  183DOPC  H13Y22538   6.649   4.721  13.728  0.8998  1.1821 -1.5656
  183DOPC  C31422539   6.816   4.676  13.870  0.5393 -0.3426 -0.1688
  183DOPC  H14X22540   6.804   4.565  13.864 -1.9782 -0.1078 -0.5967
  183DOPC  H14Y22541   6.926   4.693  13.864  0.4214  0.1719 -1.1953
  183DOPC  C31522542   6.757   4.744  13.997 -0.0648 -0.0885  0.0188
  183DOPC  H15X22543   6.659   4.693  14.011  0.6347 -0.8421  2.7470
  183DOPC  H15Y22544   6.752   4.855  13.990 -2.8352 -0.1655 -0.4730
  183DOPC  C31622545   6.845   4.710  14.124 -0.1331 -0.9612  0.5428
  183DOPC  H16X22546   6.845   4.600  14.134 -1.6609 -1.1463 -0.9636
  183DOPC  H16Y22547   6.950   4.744  14.109  0.2262 -1.8595  0.9998
  183DOPC  C31722548   6.798   4.768  14.260  0.2069 -0.0000  0.3284
  183DOPC  H17X22549   6.861   4.744  14.349  0.0787 -0.1355  0.3836
  183DOPC  H17Y22550   6.797   4.878  14.250 -0.0922 -0.1271 -1.1676
  183DOPC  C31822551   6.654   4.724  14.295  0.2840  1.1660  0.1523
  183DOPC  H18X22552   6.645   4.742  14.404 -0.5153  2.5397 -0.1117
  183DOPC  H18Y22553   6.564   4.778  14.258 -2.2801 -0.8701  2.9376
  183DOPC  H18Z22554   6.649   4.615  14.278 -2.0671  1.3172 -0.4713
  184DOPC     N22555   4.095   1.548  11.680  0.5529 -0.0376  0.0385
  184DOPC   C1222556   4.087   1.635  11.804 -0.6710  0.5933  0.5732
  184DOPC  H12A22557   4.041   1.577  11.882 -0.5956 -0.1068  0.1006
  184DOPC  H12B22558   4.009   1.709  11.791 -0.8821  0.1169 -1.1784
  184DOPC   C1322559   3.955   1.501  11.635  0.3520  0.3873  0.7472
  184DOPC  H13A22560   3.912   1.430  11.704  0.9856 -1.3169 -0.5322
  184DOPC  H13B22561   3.882   1.581  11.629 -0.3350 -0.2315  0.7119
  184DOPC  H13C22562   3.954   1.465  11.533 -2.6487 -0.6888  1.0524
  184DOPC   C1422563   4.179   1.426  11.699 -0.3315 -0.1808 -0.2342
  184DOPC  H14A22564   4.275   1.459  11.736  1.2936 -1.6253 -2.8203
  184DOPC  H14B22565   4.131   1.357  11.767  0.1735 -0.5805 -0.2805
  184DOPC  H14C22566   4.186   1.369  11.607 -2.0015  0.6451 -0.9151
  184DOPC   C1522567   4.147   1.629  11.563  0.1333 -0.3363  0.1605
  184DOPC  H15A22568   4.247   1.666  11.578  0.7181 -1.2461 -1.3049
  184DOPC  H15B22569   4.086   1.716  11.542  1.7110  0.6730 -0.4156
  184DOPC  H15C22570   4.150   1.584  11.465  1.7251 -1.6577  0.7703
  184DOPC   C1122571   4.216   1.706  11.843  0.1548  0.1916 -0.4378
  184DOPC  H11A22572   4.266   1.768  11.766  3.1647  0.9081  1.9031
  184DOPC  H11B22573   4.192   1.783  11.919 -3.3519  0.3595 -1.5333
  184DOPC     P22574   4.306   1.558  12.041  0.0495  0.6297 -0.5588
  184DOPC   O1322575   4.300   1.409  12.028 -0.2689  0.3792 -0.3412
  184DOPC   O1422576   4.187   1.627  12.095  0.3518 -0.5132  0.4566
  184DOPC   O1222577   4.322   1.616  11.891 -0.0062 -0.1431 -0.1830
  184DOPC   O1122578   4.437   1.609  12.104  0.4042 -0.1316 -0.0979
  184DOPC    C122579   4.459   1.635  12.241 -0.1885  0.5063  0.6530
  184DOPC    HA22580   4.395   1.718  12.277  0.3707  0.4332  1.8657
  184DOPC    HB22581   4.564   1.671  12.244  0.8270 -2.1035 -0.2425
  184DOPC    C222582   4.448   1.502  12.324 -0.1518 -0.4214 -0.3269
  184DOPC    HS22583   4.512   1.427  12.272  2.2172  1.2162  0.0856
  184DOPC   O2122584   4.312   1.454  12.348 -0.2998  0.1100  0.0153
  184DOPC   C2122585   4.298   1.322  12.327 -0.2264  0.0845  0.3531
  184DOPC   O2222586   4.389   1.246  12.300 -0.3322 -0.0649 -0.3862
  184DOPC   C2222587   4.149   1.273  12.336 -0.5114 -0.4080 -0.3454
  184DOPC   H2R22588   4.108   1.234  12.240 -0.7366  2.3925 -1.4892
  184DOPC   H2S22589   4.084   1.362  12.352  0.3143  0.1892 -0.2325
  184DOPC    C322590   4.513   1.526  12.463  0.0342 -0.1887  0.1738
  184DOPC    HX22591   4.435   1.580  12.522 -1.2194 -0.1807 -1.4024
  184DOPC    HY22592   4.602   1.592  12.453 -1.7092  2.0005 -2.7461
  184DOPC   O3122593   4.521   1.396  12.530  0.4273  0.2677  0.3484
  184DOPC   C3122594   4.639   1.340  12.551  0.8075  0.3375 -0.1990
  184DOPC   O3222595   4.747   1.401  12.541  0.1813 -0.4261  0.1537
  184DOPC   C3222596   4.620   1.187  12.578  0.1728  0.4853  0.0341
  184DOPC   H2X22597   4.514   1.168  12.605 -0.3026 -1.0427 -2.5019
  184DOPC   H2Y22598   4.636   1.142  12.477 -1.6971  0.9750 -0.5356
  184DOPC   C2322599   4.110   1.177  12.449 -0.3308  0.2799  0.1833
  184DOPC   H3R22600   4.185   1.096  12.450 -0.6837 -0.0782 -0.7629
  184DOPC   H3S22601   4.010   1.128  12.455 -0.1438 -0.2339 -0.7504
  184DOPC   C2422602   4.123   1.246  12.589  0.2233 -0.1780 -0.2701
  184DOPC   H4R22603   4.061   1.338  12.578  0.8273  0.1367 -1.1532
  184DOPC   H4S22604   4.228   1.282  12.593  1.3594 -3.2664  0.1631
  184DOPC   C2522605   4.103   1.162  12.717 -0.0372  0.3746 -0.0925
  184DOPC   H5R22606   4.182   1.085  12.706  0.4877  0.6230  1.6138
  184DOPC   H5S22607   4.008   1.105  12.718 -0.6547  1.3685 -0.0392
  184DOPC   C2622608   4.132   1.244  12.840  0.0533 -0.8883  0.2355
  184DOPC   H6R22609   4.038   1.302  12.850  0.4509 -0.0876 -0.5044
  184DOPC   H6S22610   4.219   1.313  12.832 -0.3653 -0.2919  0.7169
  184DOPC   C2722611   4.128   1.161  12.962 -0.5693  0.4527  0.0886
  184DOPC   H7R22612   4.202   1.078  12.964 -1.0895 -0.1109  4.1041
  184DOPC   H7S22613   4.024   1.123  12.965  0.2242 -1.7737  1.6476
  184DOPC   C2822614   4.153   1.242  13.087  0.1052  0.7892 -0.4941
  184DOPC   H8R22615   4.063   1.306  13.096 -0.6186 -0.2371 -0.3114
  184DOPC   H8S22616   4.232   1.317  13.066 -0.3868  0.9400 -1.9925
  184DOPC   C2922617   4.164   1.162  13.218  0.1344 -0.4265 -0.6570
  184DOPC   H9R22618   4.068   1.131  13.262  0.3866  0.7836  0.8458
  184DOPC  C21022619   4.274   1.134  13.293 -0.3175 -0.1032  0.2443
  184DOPC  H10R22620   4.258   1.088  13.391  1.0848  1.5614  1.3116
  184DOPC  C21122621   4.417   1.172  13.257  0.4161 -0.1044  0.0825
  184DOPC  H11R22622   4.415   1.241  13.169  0.3524  0.7581  0.7387
  184DOPC  H11S22623   4.479   1.087  13.224  0.1340 -0.2406 -0.0943
  184DOPC  C21222624   4.499   1.236  13.373  0.6986 -0.0491  0.8380
  184DOPC  H12R22625   4.440   1.319  13.417  0.4273 -0.3263  1.0029
  184DOPC  H12S22626   4.594   1.277  13.331  0.9366 -1.9382 -0.6038
  184DOPC  C21322627   4.524   1.132  13.487  0.3002 -0.1344 -0.2981
  184DOPC  H13R22628   4.595   1.054  13.452 -1.0632 -0.3737 -2.7751
  184DOPC  H13S22629   4.432   1.074  13.508 -1.2191  2.3498  0.2879
  184DOPC  C21422630   4.560   1.198  13.618  0.1006 -0.3388  1.1573
  184DOPC  H14R22631   4.479   1.272  13.637  0.5422  0.0223  1.6815
  184DOPC  H14S22632   4.657   1.245  13.590 -0.9224  0.0432 -2.2306
  184DOPC  C21522633   4.577   1.104  13.731 -0.0875  0.0729 -0.0880
  184DOPC  H15R22634   4.653   1.023  13.722 -1.4947 -1.4481  1.1994
  184DOPC  H15S22635   4.483   1.048  13.748  0.1233 -0.4279 -0.5251
  184DOPC  C21622636   4.604   1.185  13.859 -0.6627  0.5526  0.6531
  184DOPC  H16R22637   4.528   1.258  13.893 -0.1941  0.0247  3.0140
  184DOPC  H16S22638   4.703   1.234  13.847  0.1414 -0.9371  0.9985
  184DOPC  C21722639   4.618   1.092  13.980 -0.4777  0.2801 -0.7776
  184DOPC  H17R22640   4.700   1.018  13.973  1.5229  2.2806  0.1880
  184DOPC  H17S22641   4.529   1.026  13.983 -0.3583  0.1480  0.9822
  184DOPC  C21822642   4.638   1.162  14.119 -0.0154  0.2493  0.2174
  184DOPC  H18R22643   4.733   1.219  14.124 -0.3324  0.6805  1.8295
  184DOPC  H18S22644   4.633   1.099  14.211 -2.9582  0.0096 -0.0056
  184DOPC  H18T22645   4.554   1.232  14.137 -3.5262 -3.5064 -0.1004
  184DOPC   C3322646   4.722   1.138  12.681  0.0125  0.7638 -0.0654
  184DOPC   H3X22647   4.826   1.164  12.654 -0.1059  0.0010 -1.3131
  184DOPC   H3Y22648   4.711   1.028  12.684  0.5613  0.6704 -1.1234
  184DOPC   C3422649   4.679   1.200  12.822 -0.5539 -0.2986 -0.0547
  184DOPC   H4X22650   4.568   1.199  12.835 -0.5382 -3.9532  0.9080
  184DOPC   H4Y22651   4.718   1.304  12.831 -2.3541  0.4575 -0.5018
  184DOPC   C3522652   4.746   1.114  12.923 -0.7332  0.1152 -0.1747
  184DOPC   H5X22653   4.839   1.068  12.884 -0.0183  2.1820 -1.0366
  184DOPC   H5Y22654   4.671   1.035  12.948 -0.1752 -0.7848 -1.2373
  184DOPC   C3622655   4.804   1.186  13.043 -0.3792  0.2086 -0.2068
  184DOPC   H6X22656   4.898   1.233  13.007 -0.3064 -1.2936 -2.1472
  184DOPC   H6Y22657   4.729   1.260  13.077 -0.6943  0.1658 -0.7951
  184DOPC   C3722658   4.817   1.083  13.168 -0.0229  0.4237 -0.3436
  184DOPC   H7X22659   4.718   1.036  13.185  0.2533 -0.0675 -0.0842
  184DOPC   H7Y22660   4.881   1.000  13.131  1.2741  0.8924  0.7353
  184DOPC   C3822661   4.862   1.155  13.293 -0.7805 -0.0717  0.4899
  184DOPC   H8X22662   4.826   1.103  13.385 -2.5705 -0.9367 -0.6354
  184DOPC   H8Y22663   4.803   1.249  13.302 -1.3142 -0.4180  0.6564
  184DOPC   C3922664   5.014   1.182  13.292 -0.0092 -0.8116  0.0503
  184DOPC   H9X22665   5.050   1.217  13.195 -1.3620 -1.8162 -0.8618
  184DOPC  C31022666   5.090   1.166  13.397  0.1930 -0.1298 -0.1015
  184DOPC  H10X22667   5.198   1.184  13.386  0.0384  0.5619 -0.5254
  184DOPC  C31122668   5.038   1.120  13.535 -0.0902  0.1398  0.6142
  184DOPC  H11X22669   5.005   1.014  13.539 -1.7038  0.6348  1.2336
  184DOPC  H11Y22670   4.950   1.182  13.560  0.6255  1.5560 -0.2341
  184DOPC  C31222671   5.148   1.157  13.637 -0.3358 -0.1446 -0.1752
  184DOPC  H12X22672   5.202   1.249  13.606  0.1240 -0.4261 -0.2349
  184DOPC  H12Y22673   5.220   1.073  13.626  0.2677  0.5258 -1.6921
  184DOPC  C31322674   5.094   1.163  13.781  0.3033 -0.4922 -0.7718
  184DOPC  H13X22675   5.001   1.218  13.805 -0.0827 -1.5908  0.3885
  184DOPC  H13Y22676   5.070   1.060  13.814  2.2165 -0.8371 -0.2974
  184DOPC  C31422677   5.204   1.198  13.891  0.0224 -0.1702  0.3268
  184DOPC  H14X22678   5.291   1.131  13.877  0.4812  0.2848  0.9269
  184DOPC  H14Y22679   5.242   1.299  13.865  0.3123 -0.3005  0.2331
  184DOPC  C31522680   5.155   1.211  14.037  0.7052 -0.1117 -0.2277
  184DOPC  H15X22681   5.156   1.105  14.071 -0.4447  0.1420  0.6545
  184DOPC  H15Y22682   5.052   1.253  14.030  1.8407  2.7681 -1.3585
  184DOPC  C31622683   5.251   1.295  14.123 -0.1761 -0.3493 -0.6512
  184DOPC  H16X22684   5.334   1.335  14.061  0.7009  1.0710  1.3186
  184DOPC  H16Y22685   5.194   1.383  14.161  0.5475 -0.1098 -0.0989
  184DOPC  C31722686   5.306   1.210  14.242 -0.1538 -0.0414 -0.3912
  184DOPC  H17X22687   5.218   1.162  14.287 -1.0604  0.5374 -1.4806
  184DOPC  H17Y22688   5.367   1.133  14.190 -1.3055  0.3404 -2.4135
  184DOPC  C31822689   5.387   1.287  14.349  0.7948 -0.1038  0.0453
  184DOPC  H18X22690   5.391   1.237  14.448  3.2509 -0.6878 -0.2926
  184DOPC  H18Y22691   5.489   1.307  14.310  0.9389  0.2750  0.5935
  184DOPC  H18Z22692   5.343   1.389  14.362 -1.4134 -1.1193  1.0390
  185DOPC     N22693   5.897   5.650  11.695  0.1146 -1.1832  0.3261
  185DOPC   C1222694   5.818   5.589  11.812 -0.6348  0.1476 -0.3341
  185DOPC  H12A22695   5.816   5.481  11.811  0.6961  0.0986  0.4881
  185DOPC  H12B22696   5.712   5.606  11.800 -0.6756 -0.1901 -0.4774
  185DOPC   C1322697   6.038   5.597  11.689  0.0033 -0.5639  0.7646
  185DOPC  H13A22698   6.083   5.596  11.590 -1.1046  0.1275  0.2315
  185DOPC  H13B22699   6.096   5.659  11.754  0.5018 -0.6150  0.3755
  185DOPC  H13C22700   6.039   5.492  11.715  1.6134 -1.0644 -1.0661
  185DOPC   C1422701   5.900   5.806  11.692  0.1688 -0.3184 -0.4759
  185DOPC  H14A22702   5.803   5.853  11.689  1.0552  1.6117 -0.7793
  185DOPC  H14B22703   5.951   5.850  11.777  0.1924 -1.4633  0.1222
  185DOPC  H14C22704   5.944   5.843  11.600  1.3812 -0.3511  0.0737
  185DOPC   C1522705   5.819   5.603  11.576 -0.0780  0.1678 -1.0931
  185DOPC  H15A22706   5.820   5.496  11.564  1.5119  0.2513 -2.0225
  185DOPC  H15B22707   5.864   5.642  11.486  1.3046 -1.4560 -1.1462
  185DOPC  H15C22708   5.716   5.635  11.583  0.0091  0.2411  0.0383
  185DOPC   C1122709   5.866   5.632  11.954 -0.6720  0.6909 -1.0597
  185DOPC  H11A22710   5.824   5.572  12.038  1.7240 -0.0742 -0.3190
  185DOPC  H11B22711   5.971   5.595  11.958 -1.5932 -2.0632  0.6274
  185DOPC     P22712   5.727   5.840  12.017 -0.4657 -0.2519  0.1501
  185DOPC   O1322713   5.627   5.730  12.008 -0.4423  0.2430  1.1759
  185DOPC   O1422714   5.704   5.964  11.935  0.4713 -0.5143 -0.4196
  185DOPC   O1222715   5.863   5.771  11.983 -0.7254 -0.3193 -0.4242
  185DOPC   O1122716   5.736   5.875  12.170 -0.2655  0.3752 -0.1301
  185DOPC    C122717   5.751   5.770  12.267  0.2877 -0.1720  0.2652
  185DOPC    HA22718   5.834   5.700  12.242  0.4308 -0.5656  1.7394
  185DOPC    HB22719   5.662   5.710  12.295  0.0701  0.5334  1.1613
  185DOPC    C222720   5.811   5.822  12.399  0.3439 -0.3489 -0.6670
  185DOPC    HS22721   5.795   5.741  12.473 -1.5064  0.5490 -0.0155
  185DOPC   O2122722   5.749   5.941  12.443  0.0039 -0.0122 -0.5182
  185DOPC   C2122723   5.618   5.925  12.489 -0.0771 -0.5156  0.2227
  185DOPC   O2222724   5.570   5.820  12.522 -0.0850 -0.6155 -0.1835
  185DOPC   C2222725   5.541   6.058  12.500 -0.5264  0.4159  0.7618
  185DOPC   H2R22726   5.435   6.033  12.524 -0.1343 -2.1310  0.1052
  185DOPC   H2S22727   5.538   6.102  12.398  1.5282 -2.6714 -0.7864
  185DOPC    C322728   5.962   5.852  12.385 -0.3276  0.7282  0.1326
  185DOPC    HX22729   5.972   5.933  12.310  0.1194  0.0168 -0.5898
  185DOPC    HY22730   6.018   5.765  12.344 -1.5364 -0.6166  1.1973
  185DOPC   O3122731   6.011   5.865  12.514  0.0254 -0.3253  0.0265
  185DOPC   C3122732   5.999   5.993  12.572  0.3509  0.0886 -0.2523
  185DOPC   O3222733   5.943   6.087  12.517 -0.2476 -0.2070 -0.3890
  185DOPC   C3222734   6.066   5.992  12.707 -0.0540 -0.1516  0.6384
  185DOPC   H2X22735   6.171   6.025  12.694 -0.4829  0.7670 -0.6723
  185DOPC   H2Y22736   6.019   6.082  12.751 -2.9717  0.5699 -3.3268
  185DOPC   C2322737   5.612   6.158  12.600  0.1660  0.0899  0.3405
  185DOPC   H3R22738   5.566   6.259  12.595  2.0801  1.0340  0.9806
  185DOPC   H3S22739   5.716   6.176  12.565  1.1494 -3.4170  1.1351
  185DOPC   C2422740   5.613   6.107  12.748  0.1805  0.3736  0.1836
  185DOPC   H4R22741   5.625   6.200  12.808  0.3049  0.1518  0.5057
  185DOPC   H4S22742   5.704   6.045  12.764  1.2712  2.0126  0.5853
  185DOPC   C2522743   5.483   6.033  12.789 -0.4371  0.1283 -0.1299
  185DOPC   H5R22744   5.484   5.930  12.747 -0.3173 -0.1056  0.4428
  185DOPC   H5S22745   5.409   6.097  12.736 -0.1208  0.7901  0.2063
  185DOPC   C2622746   5.453   6.031  12.937  0.6943  0.1901  0.3141
  185DOPC   H6R22747   5.344   6.017  12.952  0.3725  2.6114  0.6527
  185DOPC   H6S22748   5.474   6.135  12.972  1.6734  0.5824 -1.3163
  185DOPC   C2722749   5.538   5.931  13.024 -0.9067  0.5413  0.4839
  185DOPC   H7R22750   5.648   5.934  13.015 -0.9537 -0.7090 -1.0921
  185DOPC   H7S22751   5.509   5.837  12.972 -0.8514  0.5680  0.4040
  185DOPC   C2822752   5.477   5.925  13.162  0.1299 -0.1388  0.0724
  185DOPC   H8R22753   5.506   5.828  13.208  2.9757  0.7739  0.4544
  185DOPC   H8S22754   5.367   5.914  13.168 -0.0354  1.3232  0.1157
  185DOPC   C2922755   5.514   6.036  13.258 -0.5521  0.6199  0.2376
  185DOPC   H9R22756   5.586   6.113  13.224  1.4048 -1.0290  0.4360
  185DOPC  C21022757   5.473   6.058  13.383  0.2691 -0.3463  0.4521
  185DOPC  H10R22758   5.523   6.138  13.440  1.1357 -0.2878 -0.3706
  185DOPC  C21122759   5.368   5.986  13.459  0.5694  0.0731  0.1181
  185DOPC  H11R22760   5.396   5.879  13.464  0.0776 -0.0094  1.8456
  185DOPC  H11S22761   5.271   5.992  13.405  0.4248  2.2902  0.5194
  185DOPC  C21222762   5.346   6.048  13.602 -0.4452  0.5272  0.1757
  185DOPC  H12R22763   5.246   6.009  13.629 -0.5947 -0.0095 -1.0645
  185DOPC  H12S22764   5.329   6.157  13.589 -1.1624  0.3597 -0.3577
  185DOPC  C21322765   5.450   5.992  13.709  0.5695  0.8980  0.3653
  185DOPC  H13R22766   5.553   6.017  13.676  1.1294 -1.7325 -0.0571
  185DOPC  H13S22767   5.439   5.887  13.742 -1.0999  1.8197  3.0730
  185DOPC  C21422768   5.424   6.073  13.839  0.5655  0.0783 -0.6345
  185DOPC  H14R22769   5.395   6.178  13.815 -0.0977  0.0048 -0.1802
  185DOPC  H14S22770   5.519   6.067  13.897  0.0049  0.0601  0.2983
  185DOPC  C21522771   5.313   6.004  13.917  0.0968 -0.2591  1.0493
  185DOPC  H15R22772   5.357   5.904  13.936  0.6197  0.1445  2.0443
  185DOPC  H15S22773   5.230   5.997  13.845  0.5835 -0.2827  0.4858
  185DOPC  C21622774   5.282   6.088  14.045  0.2113  0.6459 -0.3521
  185DOPC  H16R22775   5.277   6.193  14.009 -0.8011  0.7949  0.2008
  185DOPC  H16S22776   5.374   6.087  14.107  0.3625 -0.9022 -0.5642
  185DOPC  C21722777   5.167   6.057  14.129 -0.0056 -0.2223 -0.1358
  185DOPC  H17R22778   5.165   5.947  14.145  0.4196  0.1180  2.9884
  185DOPC  H17S22779   5.076   6.096  14.079  0.1029 -2.2661 -2.0575
  185DOPC  C21822780   5.157   6.130  14.265 -1.0117  0.1791  0.3793
  185DOPC  H18R22781   5.058   6.107  14.309 -1.6012  0.1816 -0.9184
  185DOPC  H18S22782   5.168   6.240  14.255 -1.9414  0.1157 -1.9090
  185DOPC  H18T22783   5.240   6.110  14.336 -0.1960  2.1585  0.0617
  185DOPC   C3322784   6.045   5.868  12.793  0.4274  0.2020  0.2056
  185DOPC   H3X22785   6.102   5.901  12.882  1.4443  0.0901 -0.3886
  185DOPC   H3Y22786   6.077   5.772  12.746 -2.9617 -0.6994 -0.5202
  185DOPC   C3422787   5.902   5.849  12.839 -0.4876  0.3131  0.1104
  185DOPC   H4X22788   5.846   5.830  12.745  0.8811  2.3342 -1.1909
  185DOPC   H4Y22789   5.857   5.929  12.902 -0.3674  0.6544 -0.2375
  185DOPC   C3522790   5.863   5.713  12.907  0.1960 -0.7018  0.6535
  185DOPC   H5X22791   5.939   5.638  12.876  1.6125  0.2475  1.7307
  185DOPC   H5Y22792   5.756   5.695  12.881  0.6850 -2.8924 -0.0065
  185DOPC   C3622793   5.870   5.733  13.056  0.6267 -0.1129 -0.5754
  185DOPC   H6X22794   5.972   5.757  13.094  1.3252 -2.8996 -0.4824
  185DOPC   H6Y22795   5.807   5.820  13.087 -1.3730 -0.9867 -1.9778
  185DOPC   C3722796   5.833   5.614  13.138  0.3934 -0.4201 -0.0445
  185DOPC   H7X22797   5.728   5.583  13.119  0.7097 -0.5127 -1.7764
  185DOPC   H7Y22798   5.884   5.528  13.088  0.7620  0.6142 -1.5187
  185DOPC   C3822799   5.853   5.626  13.293 -0.1118 -0.0433  0.0933
  185DOPC   H8X22800   5.942   5.690  13.312  0.8679 -1.5615  0.7852
  185DOPC   H8Y22801   5.878   5.524  13.330 -3.2753  0.0057  2.8616
  185DOPC   C3922802   5.737   5.692  13.362  1.1891 -0.6323  0.1587
  185DOPC   H9X22803   5.726   5.794  13.323  1.2615 -0.3317  0.9001
  185DOPC  C31022804   5.647   5.649  13.456  0.4388 -0.3302  0.2241
  185DOPC  H10X22805   5.562   5.716  13.480  0.6853  0.3292 -0.7016
  185DOPC  C31122806   5.659   5.515  13.523 -0.7521 -0.7581  0.8289
  185DOPC  H11X22807   5.765   5.493  13.548 -0.4563  0.2723  0.5487
  185DOPC  H11Y22808   5.613   5.446  13.449  0.9374 -1.8215  0.7149
  185DOPC  C31222809   5.588   5.503  13.654  0.4663 -0.2005  0.0423
  185DOPC  H12X22810   5.620   5.406  13.699  0.6310  0.3447  1.1151
  185DOPC  H12Y22811   5.478   5.511  13.642  0.3840  0.0137  0.9253
  185DOPC  C31322812   5.616   5.616  13.750  0.2698  0.8191 -0.1725
  185DOPC  H13X22813   5.722   5.609  13.782  0.7559  2.7761 -1.2122
  185DOPC  H13Y22814   5.627   5.711  13.694  3.5307  2.5590  3.0417
  185DOPC  C31422815   5.526   5.622  13.877 -0.3927 -0.4389 -0.1704
  185DOPC  H14X22816   5.423   5.651  13.847 -0.9341 -2.8493 -0.8987
  185DOPC  H14Y22817   5.518   5.518  13.917 -1.6407 -0.3761 -0.2122
  185DOPC  C31522818   5.579   5.728  13.984 -0.1325  0.2731 -0.1900
  185DOPC  H15X22819   5.580   5.826  13.931 -0.4413 -0.0938 -0.8811
  185DOPC  H15Y22820   5.681   5.703  14.020 -0.0842  1.2454  0.3811
  185DOPC  C31622821   5.488   5.747  14.107  0.1946 -0.5603 -0.5654
  185DOPC  H16X22822   5.387   5.779  14.076 -0.0467  2.1105  2.4842
  185DOPC  H16Y22823   5.485   5.649  14.159 -0.9030 -1.0056 -1.4239
  185DOPC  C31722824   5.535   5.857  14.206 -0.1283 -0.2548  0.3184
  185DOPC  H17X22825   5.637   5.838  14.245 -1.6333  0.6586  5.4474
  185DOPC  H17Y22826   5.536   5.950  14.146  2.0733 -0.8476 -0.6804
  185DOPC  C31822827   5.426   5.872  14.318 -0.5837 -0.3860  0.0778
  185DOPC  H18X22828   5.459   5.961  14.375  0.3590 -0.9284  0.3984
  185DOPC  H18Y22829   5.330   5.900  14.270 -0.4299  0.3202  0.1720
  185DOPC  H18Z22830   5.428   5.777  14.375 -1.5074 -2.8687 -3.6495
  186DOPC     N22831   6.493   2.619  12.359 -0.4881  0.7437  0.7463
  186DOPC   C1222832   6.595   2.718  12.416  0.2198  0.0039  0.1902
  186DOPC  H12A22833   6.537   2.768  12.491 -0.3486  0.6159 -0.6344
  186DOPC  H12B22834   6.615   2.792  12.339 -0.2047 -1.7139 -1.6482
  186DOPC   C1322835   6.550   2.557  12.230 -0.1328 -0.1016 -0.4125
  186DOPC  H13A22836   6.477   2.486  12.194 -2.7383  0.6584  2.8897
  186DOPC  H13B22837   6.570   2.630  12.153 -1.1778  0.8862  0.2212
  186DOPC  H13C22838   6.641   2.503  12.250 -0.2512  0.0114  0.4627
  186DOPC   C1422839   6.362   2.690  12.331 -0.3605 -0.1912 -0.3258
  186DOPC  H14A22840   6.294   2.629  12.273 -0.1973 -0.5589 -0.1352
  186DOPC  H14B22841   6.315   2.713  12.425 -1.6726 -0.9855 -0.7635
  186DOPC  H14C22842   6.378   2.784  12.281  1.7400 -0.6703 -0.6394
  186DOPC   C1522843   6.468   2.509  12.459 -0.2890 -0.0722  0.1595
  186DOPC  H15A22844   6.437   2.546  12.556 -0.7147  1.2513 -0.4465
  186DOPC  H15B22845   6.554   2.447  12.475 -0.1789  0.7838  3.8176
  186DOPC  H15C22846   6.392   2.439  12.429 -0.8854  0.5718  0.1286
  186DOPC   C1122847   6.733   2.670  12.476  0.0047  0.4203  0.1716
  186DOPC  H11A22848   6.785   2.758  12.519 -0.7463  1.7095 -1.4362
  186DOPC  H11B22849   6.710   2.606  12.563  1.3328  2.3388  2.0408
  186DOPC     P22850   6.907   2.670  12.274  0.4042 -0.3117  0.2249
  186DOPC   O1322851   6.818   2.730  12.171  0.5300  0.3332  0.3951
  186DOPC   O1422852   7.019   2.592  12.220  0.1583  0.2068 -0.1854
  186DOPC   O1222853   6.827   2.591  12.388 -0.1340  0.8176  0.1460
  186DOPC   O1122854   6.969   2.794  12.361  0.4615  0.3375 -0.3227
  186DOPC    C122855   7.102   2.775  12.416  0.1977 -0.8924  0.0618
  186DOPC    HA22856   7.168   2.854  12.375 -1.1541 -0.0119 -0.5194
  186DOPC    HB22857   7.146   2.677  12.386  0.2104 -0.4117 -1.5894
  186DOPC    C222858   7.107   2.811  12.573  1.1530 -0.2638 -0.5582
  186DOPC    HS22859   7.214   2.801  12.599  0.4956 -1.2431  2.0068
  186DOPC   O2122860   7.022   2.729  12.658  0.4958  0.3192 -0.4445
  186DOPC   C2122861   7.071   2.609  12.678  0.7115  0.6106  0.1057
  186DOPC   O2222862   7.179   2.566  12.641 -0.2515  0.1109  0.4191
  186DOPC   C2222863   6.971   2.530  12.772 -0.9386 -0.0223  0.5950
  186DOPC   H2R22864   6.962   2.431  12.723  1.3349 -0.0989  0.2338
  186DOPC   H2S22865   6.866   2.564  12.788 -1.1034 -0.7974  1.2004
  186DOPC    C322866   7.053   2.954  12.600  0.2313 -0.0208  0.2383
  186DOPC    HX22867   6.947   2.960  12.567  0.0044  1.0653  1.1210
  186DOPC    HY22868   7.113   3.022  12.536 -1.1453  1.7939  0.7677
  186DOPC   O3122869   7.076   2.988  12.736 -0.7498 -0.2572  0.1755
  186DOPC   C3122870   6.964   2.995  12.809  0.4001 -0.4625 -0.1681
  186DOPC   O3222871   6.847   2.985  12.772  1.0946 -0.4490  0.3664
  186DOPC   C3222872   7.013   3.018  12.956  0.2096  0.3566 -0.1080
  186DOPC   H2X22873   7.101   3.085  12.948  0.5222 -0.1574 -1.1178
  186DOPC   H2Y22874   6.933   3.065  13.017  2.1089  0.5825  2.3251
  186DOPC   C2322875   7.035   2.518  12.911 -0.2064 -0.2485 -0.3678
  186DOPC   H3R22876   7.044   2.613  12.968 -0.5177 -0.2567 -0.3000
  186DOPC   H3S22877   7.139   2.482  12.895 -0.4712 -1.3318  0.1724
  186DOPC   C2422878   6.967   2.426  13.017 -0.1509  0.5620 -0.4491
  186DOPC   H4R22879   6.988   2.318  13.000  3.3240  1.0089  0.0989
  186DOPC   H4S22880   6.860   2.452  13.002  0.2312  1.5792 -1.5977
  186DOPC   C2522881   7.002   2.460  13.160 -0.2299 -0.1522  0.2618
  186DOPC   H5R22882   7.000   2.571  13.162 -2.1305 -0.0809 -1.9875
  186DOPC   H5S22883   7.102   2.413  13.175 -0.6034 -0.5082  1.8425
  186DOPC   C2622884   6.916   2.403  13.266  0.5370 -0.0197  0.0032
  186DOPC   H6R22885   6.930   2.293  13.273  1.2097  0.1097  0.7867
  186DOPC   H6S22886   6.809   2.424  13.244  0.3911  1.0630  1.5909
  186DOPC   C2722887   6.960   2.465  13.400 -0.0094 -0.2923  0.2852
  186DOPC   H7R22888   6.914   2.565  13.383  2.0534  0.6571  0.0555
  186DOPC   H7S22889   7.069   2.479  13.412  0.2463 -0.6357 -1.4087
  186DOPC   C2822890   6.884   2.406  13.522  0.2091  0.4319 -0.3119
  186DOPC   H8R22891   6.778   2.384  13.498 -0.2831  1.1170  1.0983
  186DOPC   H8S22892   6.882   2.483  13.603  2.7093  0.8596 -0.5714
  186DOPC   C2922893   6.948   2.279  13.570  0.4809  0.2920  0.5300
  186DOPC   H9R22894   7.029   2.231  13.512  2.3865  0.9421  2.5507
  186DOPC  C21022895   6.925   2.231  13.692 -0.5653  0.4656 -0.2860
  186DOPC  H10R22896   6.960   2.129  13.716 -2.1228  0.2245  1.2042
  186DOPC  C21122897   6.846   2.291  13.803  0.1308 -0.1667 -0.2323
  186DOPC  H11R22898   6.747   2.242  13.818 -0.1483  0.5042  0.1839
  186DOPC  H11S22899   6.820   2.399  13.792  1.9970  0.1212 -2.7643
  186DOPC  C21222900   6.918   2.265  13.933 -0.0829 -0.3482  0.3740
  186DOPC  H12R22901   6.867   2.327  14.010 -1.7690 -1.6752  0.3717
  186DOPC  H12S22902   7.025   2.295  13.923 -0.0517 -1.0997 -2.2852
  186DOPC  C21322903   6.933   2.116  13.972 -0.2009 -0.2031  0.8682
  186DOPC  H13R22904   7.017   2.064  13.922 -0.4146  0.1008  0.1787
  186DOPC  H13S22905   6.840   2.057  13.955 -0.1031 -0.8064  2.3209
  186DOPC  C21422906   6.957   2.090  14.120 -0.4851 -0.1341 -0.2845
  186DOPC  H14R22907   7.037   2.154  14.163 -2.3496  0.9882  1.7252
  186DOPC  H14S22908   6.983   1.984  14.144 -0.7802 -0.1567 -0.0538
  186DOPC  C21522909   6.828   2.119  14.202  0.6198 -0.0586  0.2270
  186DOPC  H15R22910   6.755   2.038  14.184 -0.0158  0.7191 -0.8320
  186DOPC  H15S22911   6.776   2.208  14.160 -1.0575  1.0176  4.1171
  186DOPC  C21622912   6.855   2.124  14.351 -0.2486  0.4530 -0.3450
  186DOPC  H16R22913   6.920   2.213  14.364 -1.3304  1.6448 -2.4203
  186DOPC  H16S22914   6.905   2.029  14.376 -1.5747 -0.4788 -1.1152
  186DOPC  C21722915   6.726   2.151  14.425 -0.2026  0.8523 -0.0220
  186DOPC  H17R22916   6.745   2.112  14.528 -0.1888 -1.5121 -0.8615
  186DOPC  H17S22917   6.643   2.090  14.384 -1.3880  2.3673  0.0397
  186DOPC  C21822918   6.674   2.292  14.417 -0.8479  0.1375 -0.4487
  186DOPC  H18R22919   6.647   2.312  14.311  0.1899  0.6507 -0.6198
  186DOPC  H18S22920   6.751   2.367  14.444 -0.2176 -1.5543  3.2151
  186DOPC  H18T22921   6.591   2.316  14.487  0.6677  1.1718  1.0623
  186DOPC   C3322922   7.054   2.890  13.021  0.4824 -0.3005 -0.1979
  186DOPC   H3X22923   7.141   2.854  12.961 -0.9397 -2.6899 -0.9700
  186DOPC   H3Y22924   6.972   2.816  13.008 -0.2678  0.5837 -0.7179
  186DOPC   C3422925   7.083   2.917  13.170 -0.4949 -0.7571 -0.1461
  186DOPC   H4X22926   6.988   2.940  13.221 -0.6197 -1.0894 -0.2254
  186DOPC   H4Y22927   7.141   3.011  13.184  0.5664 -1.1990 -1.3530
  186DOPC   C3522928   7.167   2.813  13.239  0.6029 -0.1488 -0.5137
  186DOPC   H5X22929   7.268   2.824  13.196  0.5433  0.2051 -0.5637
  186DOPC   H5Y22930   7.114   2.721  13.205  3.2157 -0.9365 -2.7555
  186DOPC   C3622931   7.157   2.821  13.394 -0.2534  0.0970  0.3711
  186DOPC   H6X22932   7.052   2.834  13.428 -0.3125  2.4581 -0.4916
  186DOPC   H6Y22933   7.196   2.728  13.440  1.5376 -0.5720 -2.2690
  186DOPC   C3722934   7.244   2.938  13.456 -0.1297  0.2704 -0.0689
  186DOPC   H7X22935   7.348   2.923  13.420  0.4533 -2.9170  2.4593
  186DOPC   H7Y22936   7.205   3.037  13.423  1.2322  2.1439  3.3081
  186DOPC   C3822937   7.245   2.941  13.609 -0.5547  0.0844 -0.4148
  186DOPC   H8X22938   7.272   2.839  13.645  2.1639  0.2747 -1.6697
  186DOPC   H8Y22939   7.142   2.964  13.643 -0.8440 -2.2110  0.4408
  186DOPC   C3922940   7.341   3.053  13.658 -0.3993 -0.0350 -0.6816
  186DOPC   H9X22941   7.321   3.156  13.627 -0.6925  0.2151  0.2938
  186DOPC  C31022942   7.431   3.041  13.757 -0.1571  0.5537 -0.2524
  186DOPC  H10X22943   7.498   3.126  13.780 -0.7485  0.5375  1.7069
  186DOPC  C31122944   7.454   2.916  13.839  0.1941  0.2275  0.6067
  186DOPC  H11X22945   7.564   2.903  13.851  0.4181  0.5318 -0.9255
  186DOPC  H11Y22946   7.411   2.822  13.799  0.3720 -0.4887  2.0400
  186DOPC  C31222947   7.403   2.918  13.984 -0.4727  0.3028 -0.0823
  186DOPC  H12X22948   7.444   3.003  14.043  2.8742 -0.3326 -1.2751
  186DOPC  H12Y22949   7.443   2.831  14.039 -2.2201 -1.0196 -0.8146
  186DOPC  C31322950   7.251   2.913  13.989  0.4908 -0.0137 -0.7715
  186DOPC  H13X22951   7.202   3.007  13.955  2.2551  0.7195 -1.4277
  186DOPC  H13Y22952   7.218   2.841  13.911  1.1508 -1.1189 -0.0541
  186DOPC  C31422953   7.191   2.884  14.125 -0.4800  0.3920  1.1255
  186DOPC  H14X22954   7.081   2.886  14.111 -0.2314  1.7774 -1.4099
  186DOPC  H14Y22955   7.220   2.782  14.157 -2.7315 -0.9724 -0.8429
  186DOPC  C31522956   7.229   2.980  14.240 -0.7558  0.3875 -0.0736
  186DOPC  H15X22957   7.222   3.086  14.206 -0.6600  0.4400  0.0727
  186DOPC  H15Y22958   7.337   2.962  14.260 -0.7288  0.2377 -0.3440
  186DOPC  C31622959   7.143   2.972  14.367  0.7727  0.1486 -0.6543
  186DOPC  H16X22960   7.161   3.060  14.431  0.9735  0.0479 -0.5738
  186DOPC  H16Y22961   7.037   2.967  14.334  0.6129 -1.3633  0.0198
  186DOPC  C31722962   7.169   2.846  14.442  0.1970  0.3199  0.4965
  186DOPC  H17X22963   7.171   2.762  14.370  1.1850  1.9439 -1.4840
  186DOPC  H17Y22964   7.266   2.840  14.496 -0.5450  1.0985  1.9953
  186DOPC  C31822965   7.059   2.817  14.555 -0.2234 -0.8652  0.9080
  186DOPC  H18X22966   7.079   2.723  14.610  2.6474 -0.2478  1.0734
  186DOPC  H18Y22967   7.048   2.888  14.640 -1.7522 -1.5565  1.3144
  186DOPC  H18Z22968   6.960   2.793  14.510  0.2917  1.4991 -1.8849
  187DOPC     N22969   5.424   2.063  12.154 -0.4645  0.3008 -0.1682
  187DOPC   C1222970   5.553   2.001  12.108  1.0421 -0.2803 -0.1080
  187DOPC  H12A22971   5.611   2.070  12.048  0.7448  1.1507  1.1581
  187DOPC  H12B22972   5.522   1.923  12.040  0.5744  0.1550 -0.4055
  187DOPC   C1322973   5.351   2.119  12.041 -0.1977  0.6656 -0.1451
  187DOPC  H13A22974   5.393   2.190  11.971 -0.6838  1.2954  0.1850
  187DOPC  H13B22975   5.311   2.047  11.971 -0.1728  0.5200 -0.0098
  187DOPC  H13C22976   5.267   2.179  12.073 -0.0734  1.0867 -0.5890
  187DOPC   C1422977   5.461   2.170  12.245  0.3271  0.4315 -0.8271
  187DOPC  H14A22978   5.382   2.238  12.272 -1.6038 -2.1262  0.3213
  187DOPC  H14B22979   5.509   2.129  12.333 -0.2665  0.1569 -0.6283
  187DOPC  H14C22980   5.532   2.242  12.207  1.6211  1.6243  3.3058
  187DOPC   C1522981   5.335   1.964  12.228  0.0222  0.7542  0.1035
  187DOPC  H15A22982   5.317   1.881  12.161  1.8618 -0.1278  0.6417
  187DOPC  H15B22983   5.242   2.014  12.255 -0.1342  1.0856 -0.9831
  187DOPC  H15C22984   5.385   1.922  12.313 -1.0439  0.2286  0.4947
  187DOPC   C1122985   5.659   1.955  12.213 -0.3927  0.3941 -0.1737
  187DOPC  H11A22986   5.746   1.921  12.152 -0.9022 -0.7044 -0.3083
  187DOPC  H11B22987   5.697   2.038  12.276 -0.5548  0.1418  0.2614
  187DOPC     P22988   5.684   1.799  12.423  0.3329  0.0901 -0.1155
  187DOPC   O1322989   5.821   1.747  12.390 -0.2561  0.5128  0.3926
  187DOPC   O1422990   5.590   1.706  12.490  0.0533 -0.1412 -0.0093
  187DOPC   O1222991   5.613   1.851  12.288  0.2836  0.3321  0.2890
  187DOPC   O1122992   5.700   1.935  12.501  0.3505  0.4680 -0.1822
  187DOPC    C122993   5.824   1.981  12.552  0.1429  0.6295 -0.4116
  187DOPC    HA22994   5.828   2.092  12.545 -0.6659  0.7806  0.9888
  187DOPC    HB22995   5.915   1.945  12.500 -0.3182 -0.9741 -0.1598
  187DOPC    C222996   5.857   1.953  12.706 -0.6637  0.5082  0.5772
  187DOPC    HS22997   5.857   1.844  12.726 -0.1640  0.3151 -0.3870
  187DOPC   O2122998   5.765   2.028  12.789  0.5596  0.0106  0.3826
  187DOPC   C2122999   5.717   1.965  12.893  0.1705 -0.1571  0.0210
  187DOPC   O2223000   5.723   1.846  12.914  0.0657 -0.5861 -0.4159
  187DOPC   C2223001   5.641   2.086  12.963  0.3292  0.7952  0.2377
  187DOPC   H2R23002   5.576   2.137  12.889 -1.6561  0.2055  1.5060
  187DOPC   H2S23003   5.722   2.151  13.003  0.2180  1.5896 -0.7846
  187DOPC    C323004   6.003   1.994  12.751 -0.3005  0.0568  0.1695
  187DOPC    HX23005   6.037   2.094  12.715 -1.0121  1.0940  2.2186
  187DOPC    HY23006   6.062   1.908  12.713  1.4230  0.9353  0.7963
  187DOPC   O3123007   6.004   1.996  12.896 -0.7684 -0.3364  0.2803
  187DOPC   C3123008   6.019   2.111  12.967  0.2290  0.2811 -0.2200
  187DOPC   O3223009   6.058   2.217  12.917 -0.0227 -0.2077 -0.0950
  187DOPC   C3223010   5.982   2.079  13.112  0.2979  1.1173  0.0727
  187DOPC   H2X23011   5.883   2.030  13.119  0.0545  1.7383  1.4021
  187DOPC   H2Y23012   6.062   2.009  13.143 -0.0892  0.2350 -0.8894
  187DOPC   C2323013   5.545   2.053  13.079 -0.4413 -0.0724  0.5346
  187DOPC   H3R23014   5.506   1.949  13.069 -0.3537  0.0346 -1.3517
  187DOPC   H3S23015   5.460   2.123  13.068  0.0489  0.4351 -0.1491
  187DOPC   C2423016   5.615   2.072  13.211  0.1353 -0.0715 -0.2418
  187DOPC   H4R23017   5.651   2.177  13.201  0.8310 -0.5392 -4.9801
  187DOPC   H4S23018   5.698   1.999  13.226  0.7917  0.5813 -0.6550
  187DOPC   C2523019   5.521   2.054  13.329 -0.4079 -0.5007  0.7762
  187DOPC   H5R23020   5.471   1.955  13.333 -1.6658  0.1442  3.5709
  187DOPC   H5S23021   5.440   2.130  13.318  3.0349  3.6167  0.9983
  187DOPC   C2623022   5.580   2.060  13.469  0.4750  0.0873  0.2471
  187DOPC   H6R23023   5.629   2.158  13.486  0.2660 -0.0025  1.4550
  187DOPC   H6S23024   5.657   1.979  13.475 -0.9071 -1.1882  1.6855
  187DOPC   C2723025   5.477   2.033  13.578 -0.1219 -0.7015  0.2395
  187DOPC   H7R23026   5.415   1.945  13.549 -0.1618 -1.0793  1.4093
  187DOPC   H7S23027   5.403   2.115  13.567  1.3986  0.9482  1.6801
  187DOPC   C2823028   5.532   2.028  13.723 -0.6004 -0.7148 -0.2353
  187DOPC   H8R23029   5.459   2.076  13.792  1.7730  1.8321  0.7131
  187DOPC   H8S23030   5.618   2.097  13.733 -1.1878 -0.1804  1.5313
  187DOPC   C2923031   5.575   1.891  13.760  0.2310 -0.1599  0.2740
  187DOPC   H9R23032   5.639   1.851  13.680 -0.4710 -0.4926 -0.1239
  187DOPC  C21023033   5.518   1.806  13.842  0.5132 -0.2205 -0.1106
  187DOPC  H10R23034   5.565   1.707  13.847  2.4707  0.6766  0.2920
  187DOPC  C21123035   5.404   1.826  13.942  0.0310 -0.0866 -0.0056
  187DOPC  H11R23036   5.310   1.807  13.887  0.1540  2.4221 -1.1917
  187DOPC  H11S23037   5.396   1.928  13.984 -0.7428 -0.1413 -0.0140
  187DOPC  C21223038   5.400   1.736  14.066 -0.0122 -0.6540  0.0127
  187DOPC  H12R23039   5.495   1.751  14.123 -0.2415  1.0936 -0.0063
  187DOPC  H12S23040   5.398   1.629  14.036 -2.9719 -0.9016  0.7619
  187DOPC  C21323041   5.277   1.769  14.152 -0.2010 -0.4699 -0.7417
  187DOPC  H13R23042   5.190   1.756  14.084  0.0815 -0.1927 -1.1623
  187DOPC  H13S23043   5.294   1.876  14.174  2.2668 -0.9514  0.0171
  187DOPC  C21423044   5.264   1.692  14.282 -0.0167  0.7270  0.7485
  187DOPC  H14R23045   5.358   1.682  14.341  0.0613  2.7972  1.0627
  187DOPC  H14S23046   5.216   1.596  14.254 -0.1201  1.4396 -1.7964
  187DOPC  C21523047   5.167   1.753  14.373  0.1452  0.0347 -0.9061
  187DOPC  H15R23048   5.084   1.792  14.310 -0.6901 -0.2068  0.0197
  187DOPC  H15S23049   5.225   1.836  14.419 -1.6177  1.1193 -0.5265
  187DOPC  C21623050   5.117   1.656  14.488  0.0195  0.2478  0.4680
  187DOPC  H16R23051   5.202   1.649  14.558  1.1978 -1.8873 -1.0558
  187DOPC  H16S23052   5.098   1.555  14.446 -2.6451  0.2641  1.4629
  187DOPC  C21723053   4.989   1.705  14.553  0.4913 -0.4744  0.1985
  187DOPC  H17R23054   4.902   1.675  14.491 -0.2321  1.7947  0.0324
  187DOPC  H17S23055   4.988   1.815  14.566  1.6862 -0.3954 -0.2085
  187DOPC  C21823056   4.962   1.647  14.690 -0.3853  0.0715  0.1494
  187DOPC  H18R23057   4.940   1.538  14.691  0.0844 -0.0195  0.7687
  187DOPC  H18S23058   4.871   1.692  14.734 -0.8478  0.4969 -1.1914
  187DOPC  H18T23059   5.053   1.662  14.752  0.1343 -0.2353 -0.5213
  187DOPC   C3323060   5.982   2.199  13.212 -0.2511  0.3362 -0.0476
  187DOPC   H3X23061   5.900   2.273  13.215  0.0943  0.7804  3.4372
  187DOPC   H3Y23062   6.078   2.253  13.197  0.3809 -0.5017  0.7958
  187DOPC   C3423063   5.976   2.135  13.351 -0.1720 -0.0276 -0.0253
  187DOPC   H4X23064   6.064   2.070  13.374 -1.3409 -1.1261  1.5542
  187DOPC   H4Y23065   5.887   2.069  13.357 -0.0428 -0.4284 -2.0282
  187DOPC   C3523066   5.959   2.233  13.475  0.3729 -0.1603 -0.2500
  187DOPC   H5X23067   5.890   2.316  13.453  0.7246  0.2478  0.1681
  187DOPC   H5Y23068   6.055   2.286  13.494  0.6088 -0.8222  0.4605
  187DOPC   C3623069   5.940   2.169  13.619 -0.3024  0.4847  0.5259
  187DOPC   H6X23070   5.836   2.130  13.620  0.1434 -0.7547  1.7962
  187DOPC   H6Y23071   6.008   2.083  13.636  1.2723  1.2921 -1.2707
  187DOPC   C3723072   5.961   2.269  13.737  0.4388  0.1015  0.1226
  187DOPC   H7X23073   6.067   2.303  13.734  1.0238 -1.6646 -0.7516
  187DOPC   H7Y23074   5.897   2.356  13.712  0.8547 -0.0096 -1.4449
  187DOPC   C3823075   5.922   2.207  13.871 -0.4579  0.6019 -0.2368
  187DOPC   H8X23076   5.972   2.110  13.894 -2.6832 -0.0623  2.3305
  187DOPC   H8Y23077   5.816   2.173  13.874  0.7586 -3.9668 -1.2737
  187DOPC   C3923078   5.956   2.309  13.975  0.2481 -0.4503 -0.6212
  187DOPC   H9X23079   6.046   2.371  13.965 -0.9338  1.4297 -0.0761
  187DOPC  C31023080   5.897   2.332  14.098 -0.5716 -0.7074 -0.3310
  187DOPC  H10X23081   5.948   2.408  14.159  1.7816 -1.2242 -1.5079
  187DOPC  C31123082   5.779   2.256  14.161  0.1964 -0.1442 -0.7741
  187DOPC  H11X23083   5.723   2.202  14.082  0.9331  0.0479 -1.4475
  187DOPC  H11Y23084   5.713   2.334  14.203  1.0481  0.7246 -1.0122
  187DOPC  C31223085   5.815   2.143  14.264 -0.5952 -0.0275 -0.0608
  187DOPC  H12X23086   5.859   2.060  14.205 -1.7917 -1.4917  1.0479
  187DOPC  H12Y23087   5.724   2.089  14.297 -0.1588  0.1928  1.5982
  187DOPC  C31323088   5.898   2.173  14.390  0.3823 -0.2248  0.3373
  187DOPC  H13X23089   6.004   2.192  14.363 -0.0301 -0.9051 -1.8782
  187DOPC  H13Y23090   5.867   2.269  14.436  0.3279  0.7739 -1.6741
  187DOPC  C31423091   5.920   2.060  14.496  0.4131 -0.0714  0.3005
  187DOPC  H14X23092   5.827   2.001  14.506  0.8027 -0.5402  1.2426
  187DOPC  H14Y23093   6.008   2.000  14.467 -0.2712 -0.5690 -0.7964
  187DOPC  C31523094   5.938   2.122  14.641 -0.1165  0.2441 -0.4538
  187DOPC  H15X23095   5.842   2.175  14.655 -0.1952  0.3534 -1.3511
  187DOPC  H15Y23096   6.024   2.192  14.650 -0.4946  0.5850  0.5405
  187DOPC  C31623097   5.957   2.007  14.748 -0.0091 -0.0371  0.4616
  187DOPC  H16X23098   5.890   2.031  14.834  0.4713 -0.5273  0.9849
  187DOPC  H16Y23099   5.925   1.911  14.702 -0.1599 -1.0853  2.5909
  187DOPC  C31723100   6.105   1.986  14.791 -0.0354  1.2001  0.1580
  187DOPC  H17X23101   6.145   1.920  14.711  1.5168  3.0554 -0.6893
  187DOPC  H17Y23102   6.166   2.079  14.791  0.7800  0.7036 -1.5835
  187DOPC  C31823103   6.113   1.904  14.923 -0.4070  0.0757  0.4503
  187DOPC  H18X23104   6.098   1.981  15.001 -1.8415  0.2605  0.0155
  187DOPC  H18Y23105   6.028   1.833  14.933 -0.2252 -0.4095 -1.1104
  187DOPC  H18Z23106   6.211   1.855  14.945 -0.8752 -0.2580  1.8935
  188DOPC     N23107   1.907   3.061  12.251 -0.0625 -0.0171  0.1565
  188DOPC   C1223108   1.951   2.980  12.371 -0.5134 -0.3160  0.1726
  188DOPC  H12A23109   1.946   2.874  12.349 -2.5255 -0.5188  1.3117
  188DOPC  H12B23110   1.881   2.991  12.453  0.1850 -0.8740  0.8662
  188DOPC   C1323111   1.899   3.203  12.290 -0.2520  0.0402 -0.9460
  188DOPC  H13A23112   1.852   3.211  12.387  0.0850  1.0760 -0.8623
  188DOPC  H13B23113   1.998   3.246  12.284 -0.2607 -0.0253 -1.6404
  188DOPC  H13C23114   1.840   3.255  12.217 -0.6378  0.5519 -0.2769
  188DOPC   C1423115   1.768   3.008  12.214  0.1010  0.3725  0.0037
  188DOPC  H14A23116   1.772   2.901  12.196 -2.6018  0.2495 -0.3736
  188DOPC  H14B23117   1.700   3.025  12.296 -1.5145  2.9680 -1.7390
  188DOPC  H14C23118   1.722   3.056  12.129  0.5153  1.7226  0.5294
  188DOPC   C1523119   2.000   3.046  12.135 -0.5098  0.7104 -0.4436
  188DOPC  H15A23120   2.095   3.093  12.151  0.6651 -0.6568 -2.9164
  188DOPC  H15B23121   1.966   3.091  12.044 -1.2765 -1.5859 -1.3662
  188DOPC  H15C23122   2.015   2.942  12.109  1.3304  0.8636 -0.1236
  188DOPC   C1123123   2.078   3.021  12.445 -0.2833  0.7274  0.3430
  188DOPC  H11A23124   2.106   3.127  12.428  0.2509  0.4905 -0.3108
  188DOPC  H11B23125   2.086   3.003  12.554 -0.6720 -1.1341  0.1020
  188DOPC     P23126   2.314   3.003  12.344  0.0339  0.0791  0.0315
  188DOPC   O1323127   2.296   3.113  12.247  0.2554 -0.3329  0.2317
  188DOPC   O1423128   2.417   2.906  12.316 -0.4671  0.6490 -0.2534
  188DOPC   O1223129   2.174   2.937  12.381 -0.0643 -0.2836 -0.4477
  188DOPC   O1123130   2.351   3.070  12.482  0.3738  0.5837  0.3174
  188DOPC    C123131   2.369   2.981  12.589 -0.6875 -0.2556 -0.4324
  188DOPC    HA23132   2.448   2.906  12.567 -1.6571 -1.7105  0.8062
  188DOPC    HB23133   2.276   2.925  12.614 -1.1032  0.6923  0.1772
  188DOPC    C223134   2.424   3.050  12.722 -0.1497 -0.3911  0.6486
  188DOPC    HS23135   2.355   3.133  12.750  0.6377  0.0825  1.2384
  188DOPC   O2123136   2.562   3.093  12.704  0.7786 -0.0328 -0.7119
  188DOPC   C2123137   2.593   3.204  12.778  0.3058  0.0534 -0.0238
  188DOPC   O2223138   2.523   3.264  12.857 -0.4571  0.3634 -0.4434
  188DOPC   C2223139   2.728   3.254  12.725  0.0799 -0.1207  0.0454
  188DOPC   H2R23140   2.729   3.363  12.750 -1.8323 -0.3445  1.3460
  188DOPC   H2S23141   2.723   3.240  12.615  0.6385 -1.9374  0.2318
  188DOPC    C323142   2.421   2.946  12.833  0.6421  0.3715 -0.0606
  188DOPC    HX23143   2.464   2.854  12.789 -2.6410 -1.4074  0.1452
  188DOPC    HY23144   2.317   2.910  12.850  1.0467  0.2545  2.4598
  188DOPC   O3123145   2.487   2.984  12.951  0.7499  0.3104  0.1986
  188DOPC   C3123146   2.413   3.049  13.040 -0.3362 -0.7785 -0.5766
  188DOPC   O3223147   2.308   3.104  13.028 -0.2202 -0.1273  0.7847
  188DOPC   C3223148   2.503   3.054  13.161 -0.0129  0.0689 -1.1178
  188DOPC   H2X23149   2.539   2.949  13.164 -2.4655 -0.8431  1.4008
  188DOPC   H2Y23150   2.591   3.122  13.157 -0.5772  1.0360  1.0986
  188DOPC   C2323151   2.846   3.171  12.783  0.0891  0.0437  0.9269
  188DOPC   H3R23152   2.938   3.204  12.730  0.0712 -0.0471  0.8381
  188DOPC   H3S23153   2.830   3.065  12.756  0.9808 -0.4981  2.4477
  188DOPC   C2423154   2.863   3.186  12.936  0.3645 -0.1037 -0.2622
  188DOPC   H4R23155   2.772   3.143  12.982 -1.1011 -0.2159 -3.0414
  188DOPC   H4S23156   2.871   3.290  12.973  0.1057 -0.7987  1.8804
  188DOPC   C2523157   2.988   3.104  12.979  0.6459  1.0990 -0.0007
  188DOPC   H5R23158   3.070   3.146  12.916 -0.3907  2.7917 -0.2651
  188DOPC   H5S23159   2.974   2.998  12.948 -1.6431  1.5190 -0.5856
  188DOPC   C2623160   3.011   3.111  13.135  0.5887  0.0982 -0.2220
  188DOPC   H6R23161   2.934   3.043  13.179 -0.7130  0.8376 -1.3073
  188DOPC   H6S23162   2.990   3.215  13.168  0.5622 -0.3932  1.4309
  188DOPC   C2723163   3.149   3.062  13.175  0.3375  0.2065 -0.1237
  188DOPC   H7R23164   3.232   3.106  13.117  0.6867 -0.6216 -0.2682
  188DOPC   H7S23165   3.175   2.954  13.169  3.8417  0.9511 -0.1184
  188DOPC   C2823166   3.180   3.094  13.326  0.3494 -0.1114  0.3898
  188DOPC   H8R23167   3.156   3.203  13.327 -0.7869 -0.2917 -1.3075
  188DOPC   H8S23168   3.285   3.071  13.352  0.0437 -0.2366  1.5542
  188DOPC   C2923169   3.083   3.029  13.432  0.3217 -0.3430 -0.0552
  188DOPC   H9R23170   3.022   2.943  13.401  0.8634 -1.5758  2.0977
  188DOPC  C21023171   3.066   3.081  13.556 -0.0929  0.4121  0.0798
  188DOPC  H10R23172   3.008   3.022  13.628  0.2538  1.0564  0.8937
  188DOPC  C21123173   3.132   3.204  13.617  0.3831 -0.0612 -0.0149
  188DOPC  H11R23174   3.062   3.289  13.607 -0.6592 -0.9682 -0.6022
  188DOPC  H11S23175   3.233   3.227  13.575  0.1740 -0.7565 -0.9349
  188DOPC  C21223176   3.171   3.181  13.764  0.2683  0.5729  0.0711
  188DOPC  H12R23177   3.251   3.252  13.793 -1.4570  2.2247  1.0079
  188DOPC  H12S23178   3.216   3.080  13.775  1.2788  0.4040 -4.0086
  188DOPC  C21323179   3.059   3.198  13.873  0.4773  0.1767  0.5678
  188DOPC  H13R23180   2.998   3.105  13.864 -0.8403  1.1678 -1.6180
  188DOPC  H13S23181   2.994   3.280  13.835  0.4784 -0.2200 -0.2934
  188DOPC  C21423182   3.099   3.209  14.020 -0.2876 -0.5157 -0.9109
  188DOPC  H14R23183   3.006   3.196  14.080  0.0679  1.1025  0.0740
  188DOPC  H14S23184   3.150   3.304  14.045  1.4489 -1.5981 -0.2177
  188DOPC  C21523185   3.192   3.090  14.067  0.6425 -0.5692  0.2474
  188DOPC  H15R23186   3.293   3.122  14.034 -0.7561  3.3127 -0.8222
  188DOPC  H15S23187   3.171   3.001  14.004 -0.5276 -0.2435  0.1416
  188DOPC  C21623188   3.189   3.060  14.220 -0.6115  0.1244 -0.1879
  188DOPC  H16R23189   3.086   3.061  14.261 -1.2203  0.4099 -1.6573
  188DOPC  H16S23190   3.257   3.136  14.263  0.7522 -2.4379  2.5225
  188DOPC  C21723191   3.255   2.927  14.255  0.9219  0.4669  0.0111
  188DOPC  H17R23192   3.357   2.909  14.213 -0.2708  0.1812 -3.0143
  188DOPC  H17S23193   3.189   2.852  14.207 -1.9183  1.5661  1.9819
  188DOPC  C21823194   3.258   2.906  14.405  0.7933  0.1241 -0.6330
  188DOPC  H18R23195   3.313   2.813  14.427  1.5207  0.8404  0.6755
  188DOPC  H18S23196   3.153   2.901  14.443  0.9096 -0.1617 -0.3539
  188DOPC  H18T23197   3.308   2.985  14.464 -0.8772  1.3798 -0.8059
  188DOPC   C3323198   2.429   3.078  13.298 -0.5689  0.3647 -0.3465
  188DOPC   H3X23199   2.331   3.032  13.275 -0.0618  0.7681 -3.7658
  188DOPC   H3Y23200   2.408   3.187  13.309  0.4046  0.5189  0.1299
  188DOPC   C3423201   2.503   3.021  13.421 -0.2977 -0.2701  0.1186
  188DOPC   H4X23202   2.526   2.913  13.406  2.8669  0.0790  1.5831
  188DOPC   H4Y23203   2.432   3.045  13.503 -1.1637 -1.3387 -0.2972
  188DOPC   C3523204   2.627   3.096  13.438 -0.4849  0.2824 -0.3965
  188DOPC   H5X23205   2.614   3.206  13.423 -0.6874  0.5403  1.4495
  188DOPC   H5Y23206   2.694   3.059  13.357  0.7261  0.3708  0.5323
  188DOPC   C3623207   2.686   3.088  13.579  0.4427  0.4252 -0.1745
  188DOPC   H6X23208   2.696   2.987  13.622 -0.8104  0.6437  0.7049
  188DOPC   H6Y23209   2.787   3.132  13.564  0.6513  0.6608  1.7022
  188DOPC   C3723210   2.614   3.173  13.686  0.1716 -0.9357 -0.2398
  188DOPC   H7X23211   2.610   3.269  13.629 -0.5573 -0.9851 -0.2872
  188DOPC   H7Y23212   2.509   3.147  13.712  0.9206 -3.1005  0.7951
  188DOPC   C3823213   2.689   3.209  13.817 -0.3688 -0.1592 -0.0388
  188DOPC   H8X23214   2.659   3.306  13.863 -2.7764 -0.3201 -1.1154
  188DOPC   H8Y23215   2.798   3.211  13.797 -0.3618 -1.0900 -0.1184
  188DOPC   C3923216   2.669   3.099  13.919  0.3158 -0.5268 -0.1572
  188DOPC   H9X23217   2.660   2.994  13.890  0.6166 -0.2496 -1.2957
  188DOPC  C31023218   2.670   3.112  14.050 -0.0710 -0.6673  1.0233
  188DOPC  H10X23219   2.669   3.016  14.104  0.4243 -1.0997  0.2779
  188DOPC  C31123220   2.679   3.232  14.137  0.5347  0.2549  0.2389
  188DOPC  H11X23221   2.593   3.301  14.125  0.4248  0.1231  0.2691
  188DOPC  H11Y23222   2.767   3.293  14.107  1.7998 -2.4295 -1.8921
  188DOPC  C31223223   2.690   3.198  14.294  0.6062 -1.3763  0.3211
  188DOPC  H12X23224   2.613   3.124  14.325 -0.5228 -1.6106 -2.7366
  188DOPC  H12Y23225   2.664   3.288  14.353  1.2790  0.3733 -1.9002
  188DOPC  C31323226   2.822   3.145  14.345  0.5176 -0.7437  0.5473
  188DOPC  H13X23227   2.844   3.053  14.287 -1.5825 -1.2464  0.4716
  188DOPC  H13Y23228   2.903   3.220  14.332  0.0961 -0.5542 -1.2825
  188DOPC  C31423229   2.803   3.106  14.494 -0.5585  0.4678 -0.1169
  188DOPC  H14X23230   2.773   3.199  14.548 -0.1143  0.1038  0.7681
  188DOPC  H14Y23231   2.719   3.034  14.487  0.0066 -0.1667 -0.4454
  188DOPC  C31523232   2.925   3.028  14.566  0.4746 -0.3410 -0.3502
  188DOPC  H15X23233   3.011   3.097  14.549  0.4350 -0.2805 -0.3070
  188DOPC  H15Y23234   2.952   2.932  14.517 -1.0831 -1.5486  1.0704
  188DOPC  C31623235   2.904   3.028  14.710 -0.1301 -0.5023 -0.1746
  188DOPC  H16X23236   2.896   3.137  14.727  1.3977 -0.4288  0.1282
  188DOPC  H16Y23237   2.816   2.966  14.740 -2.5990  2.5154 -0.6299
  188DOPC  C31723238   3.023   2.984  14.795 -0.0912 -0.0642  0.7399
  188DOPC  H17X23239   3.044   2.878  14.768 -1.1752 -0.0096 -0.3703
  188DOPC  H17Y23240   3.105   3.057  14.778 -0.4193  0.6243  1.9654
  188DOPC  C31823241   2.989   2.997  14.945  0.5046  0.6790 -0.9485
  188DOPC  H18X23242   2.923   3.079  14.981  1.3570  0.3614  1.5809
  188DOPC  H18Y23243   2.946   2.900  14.980  2.0614  0.9833  2.1506
  188DOPC  H18Z23244   3.083   3.007  15.003 -0.9141  1.4193  1.3615
  189DOPC     N23245   3.425   0.669  11.674  0.5938 -0.1238 -0.5954
  189DOPC   C1223246   3.457   0.722  11.821  0.2524  0.1043 -0.1926
  189DOPC  H12A23247   3.454   0.633  11.882  0.3245  0.9142  1.0290
  189DOPC  H12B23248   3.376   0.785  11.855  0.3599  0.4469 -0.5599
  189DOPC   C1323249   3.531   0.576  11.630 -0.1615  0.6582  0.1513
  189DOPC  H13A23250   3.546   0.500  11.705  1.1972 -0.3674 -1.0935
  189DOPC  H13B23251   3.503   0.536  11.534  1.8432 -1.1768  0.2614
  189DOPC  H13C23252   3.629   0.620  11.621 -0.0061  0.0720 -1.2915
  189DOPC   C1423253   3.429   0.785  11.572 -0.0324  0.4734  0.3417
  189DOPC  H14A23254   3.360   0.860  11.608 -2.8452 -2.0992  0.7533
  189DOPC  H14B23255   3.525   0.832  11.560  1.1679 -1.7437  0.9717
  189DOPC  H14C23256   3.390   0.744  11.480  0.6944  1.5768 -0.4868
  189DOPC   C1523257   3.289   0.601  11.674 -0.3776  0.4755  0.0212
  189DOPC  H15A23258   3.205   0.665  11.696 -0.7980 -0.1366  0.2041
  189DOPC  H15B23259   3.287   0.515  11.739  0.7862 -1.4687 -2.3385
  189DOPC  H15C23260   3.269   0.553  11.579 -0.1664 -2.2956  1.2925
  189DOPC   C1123261   3.589   0.799  11.853 -0.2706  0.4970  0.3693
  189DOPC  H11A23262   3.599   0.901  11.810  0.2506  0.6694  0.8827
  189DOPC  H11B23263   3.595   0.803  11.964 -0.2087 -0.4029  0.4051
  189DOPC     P23264   3.771   0.612  11.894  0.1462 -0.3278  0.0303
  189DOPC   O1323265   3.877   0.551  11.810  0.9324 -0.2212  0.1274
  189DOPC   O1423266   3.674   0.523  11.951  0.6650 -0.2380 -0.4112
  189DOPC   O1223267   3.701   0.726  11.800  0.0383  0.4399  0.4252
  189DOPC   O1123268   3.854   0.687  12.011 -0.5557 -0.5586 -0.3984
  189DOPC    C123269   3.939   0.804  11.981 -0.0153  0.8637 -0.4984
  189DOPC    HA23270   3.909   0.854  11.887 -0.4102  0.3157 -0.6705
  189DOPC    HB23271   4.044   0.771  11.964 -0.4215  0.0398 -1.5370
  189DOPC    C223272   3.947   0.910  12.095 -0.5662  0.3009  0.7108
  189DOPC    HS23273   4.026   0.984  12.070  0.1390 -0.8409 -0.5903
  189DOPC   O2123274   3.958   0.862  12.225  0.0903  0.2185 -0.2244
  189DOPC   C2123275   4.085   0.829  12.255  0.0545 -0.2773  0.7199
  189DOPC   O2223276   4.180   0.865  12.189  0.2573 -0.1705  0.5641
  189DOPC   C2223277   4.092   0.755  12.390 -0.2088  0.0770 -0.4963
  189DOPC   H2R23278   4.186   0.788  12.438 -0.0417 -0.0397 -0.7387
  189DOPC   H2S23279   4.089   0.646  12.370  1.2197  0.2351 -1.8567
  189DOPC    C323280   3.817   0.992  12.104 -0.1386  0.2200  0.4135
  189DOPC    HX23281   3.731   0.926  12.129  1.0374 -0.8451  1.7616
  189DOPC    HY23282   3.799   1.029  12.001 -0.1926  1.3293  0.8056
  189DOPC   O3123283   3.828   1.097  12.193  0.2099  0.0758 -0.2264
  189DOPC   C3123284   3.744   1.201  12.196 -0.6274  0.0436  0.5492
  189DOPC   O3223285   3.654   1.212  12.115  0.5617 -0.3317 -0.0178
  189DOPC   C3223286   3.770   1.299  12.308 -0.3537 -0.3770 -0.3936
  189DOPC   H2X23287   3.843   1.255  12.380 -2.3846  0.7371  2.5312
  189DOPC   H2Y23288   3.808   1.394  12.267  2.8830 -0.9861  0.8626
  189DOPC   C2323289   3.975   0.800  12.482 -0.1016 -0.6226 -0.3418
  189DOPC   H3R23290   3.882   0.746  12.454 -0.0078 -0.2855 -1.3665
  189DOPC   H3S23291   3.947   0.908  12.484 -2.7863 -1.2361  1.8762
  189DOPC   C2423292   4.009   0.762  12.629  0.2303  0.3328 -0.1921
  189DOPC   H4R23293   4.105   0.808  12.660  0.9384 -2.1218  1.4902
  189DOPC   H4S23294   4.035   0.655  12.637 -1.1560 -0.0459 -0.4401
  189DOPC   C2523295   3.908   0.801  12.731  0.0472  0.3760 -0.2817
  189DOPC   H5R23296   3.828   0.725  12.719 -0.2781  1.0615 -2.9731
  189DOPC   H5S23297   3.863   0.893  12.688 -0.1139  0.8785  0.9345
  189DOPC   C2623298   3.941   0.814  12.878  0.0729  0.0882  0.8685
  189DOPC   H6R23299   4.007   0.902  12.891  0.1882  0.6955 -2.8297
  189DOPC   H6S23300   4.000   0.725  12.909 -2.0987 -1.5004  0.6446
  189DOPC   C2723301   3.809   0.828  12.952 -0.2810  0.2103 -0.2535
  189DOPC   H7R23302   3.746   0.738  12.936 -1.1200  0.6434  0.5368
  189DOPC   H7S23303   3.760   0.915  12.903  1.2573  0.4391 -1.4443
  189DOPC   C2823304   3.822   0.852  13.105  0.4188 -0.2641  0.3455
  189DOPC   H8R23305   3.716   0.844  13.139 -0.7159  2.5767 -2.0626
  189DOPC   H8S23306   3.859   0.956  13.119 -1.8540  0.7418 -0.6076
  189DOPC   C2923307   3.917   0.756  13.169  0.1670 -0.3970  0.2833
  189DOPC   H9R23308   3.947   0.673  13.102 -0.5263 -0.9189  0.6056
  189DOPC  C21023309   3.944   0.755  13.299 -0.2794  0.2967  0.4616
  189DOPC  H10R23310   4.009   0.679  13.345  2.5997  2.3542  0.0682
  189DOPC  C21123311   3.912   0.854  13.405  0.2268  0.1283  0.2322
  189DOPC  H11R23312   3.822   0.818  13.460 -1.2607  2.5460 -0.4578
  189DOPC  H11S23313   3.885   0.953  13.362 -1.2531  0.8788  2.6521
  189DOPC  C21223314   4.030   0.878  13.503  0.4203  0.0119  0.2578
  189DOPC  H12R23315   4.106   0.915  13.431  0.2792 -2.9306 -1.5830
  189DOPC  H12S23316   4.055   0.775  13.537 -0.4979 -0.2248  0.2550
  189DOPC  C21323317   3.995   0.976  13.615  0.3689  0.8372  0.1166
  189DOPC  H13R23318   3.921   0.929  13.684  0.3471  1.1396  0.2980
  189DOPC  H13S23319   3.962   1.073  13.574 -1.4822  0.3873  0.4505
  189DOPC  C21423320   4.119   1.011  13.703  0.3986  0.4689  0.3360
  189DOPC  H14R23321   4.199   1.054  13.638  0.4237 -2.4361 -1.7644
  189DOPC  H14S23322   4.159   0.914  13.742 -0.0134 -0.2251 -0.9004
  189DOPC  C21523323   4.082   1.109  13.819 -0.2573 -0.1328 -0.2424
  189DOPC  H15R23324   4.011   1.060  13.890  0.8444 -0.0714  0.9515
  189DOPC  H15S23325   4.057   1.209  13.778 -0.2453 -0.3894 -0.8880
  189DOPC  C21623326   4.200   1.126  13.920 -0.2953 -0.3299 -0.2274
  189DOPC  H16R23327   4.187   1.229  13.958  1.2407  0.0411 -0.6477
  189DOPC  H16S23328   4.293   1.136  13.861  0.1972 -0.8619  0.4424
  189DOPC  C21723329   4.211   1.030  14.040 -0.1686 -0.5952  0.0638
  189DOPC  H17R23330   4.120   1.026  14.104  0.0110 -0.7244  0.3147
  189DOPC  H17S23331   4.301   1.068  14.094  1.1842 -1.1564 -1.7091
  189DOPC  C21823332   4.243   0.889  13.998 -0.7099  0.1941  0.5846
  189DOPC  H18R23333   4.269   0.823  14.083  2.1782 -0.3004 -0.5576
  189DOPC  H18S23334   4.332   0.871  13.933  0.2479  1.1593  1.5768
  189DOPC  H18T23335   4.153   0.840  13.956  0.1003 -2.3068  1.5683
  189DOPC   C3323336   3.633   1.331  12.394  0.5807  0.2241  0.2106
  189DOPC   H3X23337   3.566   1.394  12.332  0.1280 -0.2895  0.1702
  189DOPC   H3Y23338   3.677   1.403  12.466  3.1544 -0.4196 -0.6163
  189DOPC   C3423339   3.560   1.216  12.456 -0.0722 -0.1636 -0.0687
  189DOPC   H4X23340   3.510   1.166  12.370  2.3070 -0.3556 -1.4307
  189DOPC   H4Y23341   3.479   1.256  12.521  0.4118  1.7965 -0.6334
  189DOPC   C3523342   3.637   1.111  12.527 -0.4106  1.4810 -0.2618
  189DOPC   H5X23343   3.727   1.087  12.467 -0.8286  0.5755 -0.5492
  189DOPC   H5Y23344   3.578   1.017  12.535 -0.2513  1.3139 -1.0460
  189DOPC   C3623345   3.698   1.148  12.663  0.2278  0.7199  0.0906
  189DOPC   H6X23346   3.799   1.105  12.678  0.5114  1.3508  0.0186
  189DOPC   H6Y23347   3.724   1.256  12.664  2.8506  0.1710 -0.8640
  189DOPC   C3723348   3.594   1.125  12.779  0.2985 -0.1437 -0.0905
  189DOPC   H7X23349   3.505   1.187  12.754  0.3026  1.0133  2.4331
  189DOPC   H7Y23350   3.562   1.018  12.786 -1.0790  0.2071 -0.5702
  189DOPC   C3823351   3.664   1.183  12.905 -0.6584 -0.6734  0.3498
  189DOPC   H8X23352   3.771   1.154  12.892 -0.2617  0.6841  0.3912
  189DOPC   H8Y23353   3.614   1.127  12.986 -2.7202 -1.0513 -1.1051
  189DOPC   C3923354   3.647   1.330  12.936 -0.6014 -0.2589 -0.0125
  189DOPC   H9X23355   3.645   1.390  12.844 -0.2500  0.8823  0.7053
  189DOPC  C31023356   3.638   1.386  13.056  0.5265  0.3338  0.5479
  189DOPC  H10X23357   3.622   1.493  13.038  2.2440  0.2282 -2.2007
  189DOPC  C31123358   3.637   1.321  13.192 -0.0273 -0.5428  0.9237
  189DOPC  H11X23359   3.598   1.217  13.185 -1.1268 -0.0933  0.0735
  189DOPC  H11Y23360   3.559   1.369  13.255  0.6168  1.7545  0.0565
  189DOPC  C31223361   3.780   1.330  13.246  0.7042  0.1079  0.1057
  189DOPC  H12X23362   3.805   1.438  13.250 -2.4788  0.9214  1.2827
  189DOPC  H12Y23363   3.851   1.284  13.175 -0.3282  1.1726 -1.6879
  189DOPC  C31323364   3.782   1.259  13.377 -0.2468  0.6764  0.1981
  189DOPC  H13X23365   3.745   1.156  13.358  0.8971  0.1360  0.7664
  189DOPC  H13Y23366   3.887   1.262  13.413  0.1246  2.9586 -0.8568
  189DOPC  C31423367   3.694   1.327  13.483  0.1640  0.5327  0.1420
  189DOPC  H14X23368   3.736   1.430  13.485  0.9589  0.2155  0.2964
  189DOPC  H14Y23369   3.588   1.327  13.452  0.1370 -1.4745  0.1514
  189DOPC  C31523370   3.713   1.281  13.633  0.1905 -0.3906 -0.8174
  189DOPC  H15X23371   3.824   1.273  13.642  0.5508  1.6393 -2.5790
  189DOPC  H15Y23372   3.663   1.184  13.652 -0.8726  0.4263  0.7826
  189DOPC  C31623373   3.642   1.385  13.729  0.4564 -0.0389  0.1860
  189DOPC  H16X23374   3.701   1.477  13.705  1.3351 -1.2206 -2.6843
  189DOPC  H16Y23375   3.542   1.412  13.690  1.3407  2.2634 -0.7194
  189DOPC  C31723376   3.650   1.345  13.875 -0.8405  0.1348 -0.0560
  189DOPC  H17X23377   3.571   1.396  13.935 -0.5381 -0.1087  0.5515
  189DOPC  H17Y23378   3.621   1.238  13.874  0.3120 -0.1931  0.4256
  189DOPC  C31823379   3.785   1.377  13.941 -0.4221 -0.3043 -0.2463
  189DOPC  H18X23380   3.865   1.324  13.885 -0.2398  0.5147 -0.7759
  189DOPC  H18Y23381   3.801   1.486  13.947  0.4094 -0.3327 -1.4842
  189DOPC  H18Z23382   3.787   1.326  14.040  1.7122 -1.5827 -0.8613
  190DOPC     N23383   3.216   2.839  11.884  0.1898 -0.3266 -0.0164
  190DOPC   C1223384   3.199   2.717  11.960  1.2438 -1.0847 -0.9565
  190DOPC  H12A23385   3.116   2.654  11.930  0.3063 -0.6736  0.6361
  190DOPC  H12B23386   3.169   2.745  12.060  2.1819 -1.3688 -0.5806
  190DOPC   C1323387   3.330   2.919  11.930  0.3725  0.1969 -0.1658
  190DOPC  H13A23388   3.324   2.933  12.037 -0.9386  1.1673 -0.3393
  190DOPC  H13B23389   3.421   2.873  11.894 -0.1684 -1.0103 -0.0246
  190DOPC  H13C23390   3.313   3.018  11.890  2.1629  0.6596  0.1358
  190DOPC   C1423391   3.096   2.930  11.900  0.1361 -0.3356 -0.0688
  190DOPC  H14A23392   3.074   2.956  12.003  2.1398 -1.1953  0.6228
  190DOPC  H14B23393   3.092   3.019  11.840 -2.4251  0.5597  1.2549
  190DOPC  H14C23394   3.008   2.873  11.874 -0.0155  0.7715 -2.1964
  190DOPC   C1523395   3.227   2.809  11.736  0.7036 -0.3338 -0.5116
  190DOPC  H15A23396   3.244   2.892  11.669  1.0380 -2.9193 -3.9128
  190DOPC  H15B23397   3.134   2.760  11.709 -0.9393  1.3384  1.7079
  190DOPC  H15C23398   3.315   2.747  11.721  1.6096  1.0342 -1.0139
  190DOPC   C1123399   3.314   2.624  11.984  0.3608  0.1150 -0.1965
  190DOPC  H11A23400   3.353   2.581  11.889 -0.9442 -0.5891 -0.4344
  190DOPC  H11B23401   3.390   2.684  12.039 -0.9062  3.2216 -1.5581
  190DOPC     P23402   3.189   2.395  12.024  0.4840  0.2397  0.4953
  190DOPC   O1323403   3.270   2.294  11.951  0.5753 -0.2392 -0.4267
  190DOPC   O1423404   3.072   2.449  11.947 -0.3716  0.1490 -0.0707
  190DOPC   O1223405   3.271   2.525  12.069  0.2888  0.6350 -0.1917
  190DOPC   O1123406   3.127   2.329  12.155  0.5167  0.3067 -0.1971
  190DOPC    C123407   3.011   2.382  12.219 -0.3530  0.4394  0.3359
  190DOPC    HA23408   2.917   2.364  12.162  0.6197  0.1144 -1.2004
  190DOPC    HB23409   3.012   2.493  12.221  1.2265  0.4412  0.8142
  190DOPC    C223410   2.996   2.335  12.363 -1.2950  0.6452  0.0158
  190DOPC    HS23411   3.088   2.353  12.423 -1.9236 -3.2229  2.5904
  190DOPC   O2123412   2.973   2.192  12.357  0.3547  0.4528  0.1068
  190DOPC   C2123413   3.038   2.111  12.452 -0.0874  0.1817  0.2154
  190DOPC   O2223414   3.130   2.143  12.524  0.0924  0.3286 -0.1404
  190DOPC   C2223415   2.973   1.973  12.452  0.9165 -0.4323 -0.5030
  190DOPC   H2R23416   3.018   1.921  12.364  0.7482 -1.4287 -0.0133
  190DOPC   H2S23417   2.863   1.976  12.443  0.5856 -1.5706  2.2751
  190DOPC    C323418   2.886   2.406  12.441 -0.2399  0.3937  0.5403
  190DOPC    HX23419   2.788   2.371  12.403 -0.6458 -1.2443  2.8717
  190DOPC    HY23420   2.892   2.516  12.423  1.8813  0.3346  0.6427
  190DOPC   O3123421   2.872   2.362  12.582 -0.0743  0.0706  0.0348
  190DOPC   C3123422   2.953   2.417  12.674 -0.1320 -1.4014  0.5725
  190DOPC   O3223423   3.044   2.499  12.649 -0.5171  0.3195  0.6191
  190DOPC   C3223424   2.920   2.374  12.820  0.5886 -1.1967 -0.1071
  190DOPC   H2X23425   2.925   2.467  12.881  0.8153 -1.2317 -0.0754
  190DOPC   H2Y23426   2.818   2.329  12.825  0.2771 -0.5023  0.0028
  190DOPC   C2323427   3.015   1.873  12.568  0.1426  0.0628  0.2434
  190DOPC   H3R23428   3.110   1.892  12.622  1.9804 -1.0718 -2.3858
  190DOPC   H3S23429   3.037   1.775  12.520  2.5048  1.2757 -1.3163
  190DOPC   C2423430   2.919   1.874  12.681 -0.6938 -0.1467  0.7459
  190DOPC   H4R23431   2.817   1.842  12.650 -0.9934  1.7073 -0.3312
  190DOPC   H4S23432   2.897   1.979  12.710 -2.2047 -0.4036  0.6193
  190DOPC   C2523433   2.957   1.787  12.797  0.2772  0.0409 -0.1636
  190DOPC   H5R23434   3.040   1.837  12.851  0.2993  1.0405 -1.0954
  190DOPC   H5S23435   2.995   1.691  12.754 -1.9522 -0.4343 -1.2119
  190DOPC   C2623436   2.847   1.758  12.894  0.3310  0.6561  0.5606
  190DOPC   H6R23437   2.771   1.692  12.848 -0.0909  0.8270  1.0049
  190DOPC   H6S23438   2.795   1.846  12.938 -3.0292  0.2084 -2.1335
  190DOPC   C2723439   2.913   1.673  13.002  0.2466  0.2495  0.0926
  190DOPC   H7R23440   2.958   1.742  13.076 -3.3384  0.5722  2.2331
  190DOPC   H7S23441   2.988   1.606  12.955 -0.1633  0.5878 -1.0855
  190DOPC   C2823442   2.818   1.582  13.087  0.2280  0.6184  0.2673
  190DOPC   H8R23443   2.877   1.542  13.172 -0.3105  0.1304  0.4120
  190DOPC   H8S23444   2.795   1.496  13.021  2.1187  0.1048  0.2223
  190DOPC   C2923445   2.681   1.636  13.120 -0.5122 -0.1160 -0.5881
  190DOPC   H9R23446   2.607   1.589  13.053 -0.7844  0.4011 -0.6608
  190DOPC  C21023447   2.644   1.714  13.222  0.2817 -0.0812 -0.3188
  190DOPC  H10R23448   2.537   1.716  13.247  0.4741  2.0216  0.5190
  190DOPC  C21123449   2.747   1.761  13.321  0.5166 -0.1499 -0.9038
  190DOPC  H11R23450   2.720   1.865  13.349 -1.0415 -1.0842  1.3175
  190DOPC  H11S23451   2.853   1.772  13.288  0.2655  1.8157 -1.1457
  190DOPC  C21223452   2.755   1.661  13.432 -0.5921 -0.2286 -0.1153
  190DOPC  H12R23453   2.779   1.561  13.389  0.4567 -0.2867  0.5667
  190DOPC  H12S23454   2.662   1.660  13.491 -0.6895  0.9054 -0.2369
  190DOPC  C21323455   2.878   1.699  13.513  0.1588  0.3565 -1.0172
  190DOPC  H13R23456   2.866   1.805  13.541  0.6409 -0.0408  0.8352
  190DOPC  H13S23457   2.972   1.690  13.455  1.0166 -0.6011  0.4342
  190DOPC  C21423458   2.914   1.615  13.641 -0.0873 -0.2243 -0.7182
  190DOPC  H14R23459   2.992   1.675  13.692 -0.1147  0.2437 -1.2222
  190DOPC  H14S23460   2.960   1.519  13.608 -1.8706 -1.0435 -0.9469
  190DOPC  C21523461   2.789   1.591  13.722 -0.2825 -0.4979  0.1198
  190DOPC  H15R23462   2.715   1.529  13.667 -2.3264  1.4515  0.4708
  190DOPC  H15S23463   2.747   1.692  13.743  0.3431 -0.5892  1.9920
  190DOPC  C21623464   2.816   1.520  13.857  0.2903  0.1342  0.4072
  190DOPC  H16R23465   2.902   1.567  13.911  2.6792 -0.8801 -2.2712
  190DOPC  H16S23466   2.853   1.417  13.841  2.7747  0.9156  0.6544
  190DOPC  C21723467   2.689   1.507  13.938  0.0998 -0.6890 -0.1026
  190DOPC  H17R23468   2.605   1.487  13.868  0.7567  0.4115 -1.2711
  190DOPC  H17S23469   2.652   1.608  13.967  0.7865 -0.3902 -0.2261
  190DOPC  C21823470   2.699   1.409  14.051  0.5861  0.8316 -0.4546
  190DOPC  H18R23471   2.602   1.404  14.105  1.0958 -1.1563  0.3853
  190DOPC  H18S23472   2.783   1.440  14.118  0.7428 -2.4665  1.0494
  190DOPC  H18T23473   2.706   1.305  14.013  1.6226 -0.0829  1.9901
  190DOPC   C3323474   3.026   2.279  12.867 -0.1498  0.2999  0.0095
  190DOPC   H3X23475   3.130   2.318  12.866  0.0922 -0.2968 -1.6896
  190DOPC   H3Y23476   3.016   2.191  12.800  0.4598 -0.9386  1.4645
  190DOPC   C3423477   2.990   2.223  13.008  0.2447 -0.6817 -0.2229
  190DOPC   H4X23478   2.899   2.163  12.987  0.8665 -1.4379 -0.8291
  190DOPC   H4Y23479   2.962   2.308  13.073  2.1389 -0.0447 -0.1746
  190DOPC   C3523480   3.091   2.127  13.065 -0.2767 -0.6768 -0.1277
  190DOPC   H5X23481   3.193   2.170  13.053  0.3281 -2.2446 -0.9056
  190DOPC   H5Y23482   3.097   2.034  13.005  0.1722  0.6490 -2.2676
  190DOPC   C3623483   3.075   2.099  13.212  0.4745  0.1595  0.2619
  190DOPC   H6X23484   3.069   2.189  13.277 -1.8655 -0.7143  1.3783
  190DOPC   H6Y23485   2.975   2.055  13.232  0.7324  0.2042  1.7540
  190DOPC   C3723486   3.178   2.000  13.256 -0.0494 -0.4287 -0.2585
  190DOPC   H7X23487   3.201   1.927  13.176  2.0819 -0.8344  0.6326
  190DOPC   H7Y23488   3.271   2.061  13.266 -1.5845  2.0764 -0.4632
  190DOPC   C3823489   3.154   1.925  13.388 -0.0625 -0.4920  0.3357
  190DOPC   H8X23490   3.068   1.862  13.360  0.3882 -0.8091 -0.3679
  190DOPC   H8Y23491   3.120   1.998  13.464  1.4803  2.4743 -1.6404
  190DOPC   C3923492   3.279   1.852  13.430  0.8443 -0.1982 -0.9352
  190DOPC   H9X23493   3.350   1.829  13.349  1.1955  0.0403 -0.6984
  190DOPC  C31023494   3.309   1.821  13.555  0.2016  0.0522  0.2983
  190DOPC  H10X23495   3.390   1.748  13.574  1.4161  1.0438 -0.8728
  190DOPC  C31123496   3.221   1.847  13.668 -0.1625 -0.2363 -0.0975
  190DOPC  H11X23497   3.116   1.814  13.650 -0.7027  1.6636 -0.6879
  190DOPC  H11Y23498   3.216   1.957  13.686 -0.3802 -0.0718 -1.1230
  190DOPC  C31223499   3.271   1.791  13.805  0.0107  0.2891  0.0991
  190DOPC  H12X23500   3.365   1.838  13.842  0.8831 -0.4815 -1.0895
  190DOPC  H12Y23501   3.286   1.681  13.810 -0.4572  0.2218  0.1230
  190DOPC  C31323502   3.163   1.813  13.913 -0.2441 -0.3842 -0.4858
  190DOPC  H13X23503   3.150   1.923  13.916  0.2875 -0.3242 -0.2136
  190DOPC  H13Y23504   3.063   1.775  13.883 -0.3389  0.7918 -1.7398
  190DOPC  C31423505   3.203   1.763  14.052 -0.5224  0.4661 -0.3384
  190DOPC  H14X23506   3.208   1.652  14.051 -0.3700  0.4427  1.1279
  190DOPC  H14Y23507   3.306   1.796  14.077 -0.2586 -0.7979  0.3148
  190DOPC  C31523508   3.121   1.806  14.171  0.7593 -0.9284 -0.0986
  190DOPC  H15X23509   3.013   1.785  14.154 -0.0113  2.0789  0.5923
  190DOPC  H15Y23510   3.117   1.917  14.177  1.7800 -0.8548 -0.6215
  190DOPC  C31623511   3.161   1.735  14.296 -0.6310 -0.1143  0.6816
  190DOPC  H16X23512   3.110   1.637  14.305 -0.8529 -0.2511 -1.5032
  190DOPC  H16Y23513   3.271   1.723  14.307 -0.4256  0.3677 -0.6311
  190DOPC  C31723514   3.130   1.810  14.422 -0.4726 -0.0343  0.6342
  190DOPC  H17X23515   3.198   1.782  14.505 -0.7506 -1.1696  0.5050
  190DOPC  H17Y23516   3.170   1.912  14.403 -0.6059 -0.4860 -2.8726
  190DOPC  C31823517   2.988   1.814  14.464  0.1155  0.1315 -0.4643
  190DOPC  H18X23518   2.925   1.847  14.379 -2.8032  0.6496  1.7271
  190DOPC  H18Y23519   2.956   1.711  14.493  0.3672  0.7197  2.1222
  190DOPC  H18Z23520   2.968   1.887  14.545 -2.9302 -0.4071 -0.5824
  191DOPC     N23521   4.892   0.795  11.687  0.7115  0.2689 -0.0703
  191DOPC   C1223522   4.972   0.746  11.800  0.1964  0.0699  0.1539
  191DOPC  H12A23523   5.066   0.705  11.764  0.6322  1.1644  0.0006
  191DOPC  H12B23524   4.915   0.668  11.848 -0.3335  0.8825  0.8732
  191DOPC   C1323525   4.846   0.677  11.613  0.3230 -0.2665 -0.4249
  191DOPC  H13A23526   4.927   0.606  11.603  0.1601 -0.3122 -1.5630
  191DOPC  H13B23527   4.759   0.634  11.660 -0.5305  1.8549  0.0496
  191DOPC  H13C23528   4.825   0.704  11.510  2.0561 -0.4232 -0.8610
  191DOPC   C1423529   4.969   0.882  11.597  0.4494 -0.2304  0.4181
  191DOPC  H14A23530   4.905   0.920  11.518 -1.1107  1.0392  2.2132
  191DOPC  H14B23531   5.004   0.972  11.644 -1.2253  0.8724 -0.3362
  191DOPC  H14C23532   5.056   0.832  11.557 -0.3032 -0.0283 -1.6312
  191DOPC   C1523533   4.762   0.858  11.730 -0.0261  0.3303 -0.5554
  191DOPC  H15A23534   4.707   0.892  11.643 -0.7467  1.1223  0.1862
  191DOPC  H15B23535   4.794   0.938  11.795 -1.1762 -0.0801  0.5556
  191DOPC  H15C23536   4.693   0.793  11.782 -0.4714 -0.6060 -2.2387
  191DOPC   C1123537   5.013   0.842  11.911  0.5015 -0.1620 -0.6136
  191DOPC  H11A23538   4.927   0.895  11.959  1.7512 -0.5641  2.2753
  191DOPC  H11B23539   5.054   0.776  11.990 -1.6205 -1.3150 -0.3934
  191DOPC     P23540   5.198   1.026  11.925  0.3056 -0.0871  0.1164
  191DOPC   O1323541   5.122   1.137  11.985  0.1194 -0.6487  0.5895
  191DOPC   O1423542   5.319   1.060  11.848  0.5039 -0.0374 -0.4247
  191DOPC   O1223543   5.105   0.928  11.852 -0.1518 -0.7986  0.3358
  191DOPC   O1123544   5.244   0.934  12.047  0.0735  0.0383 -0.5219
  191DOPC    C123545   5.335   0.826  12.035  0.3933 -0.2432  0.0246
  191DOPC    HA23546   5.433   0.864  12.000  1.0283 -2.4892 -0.7957
  191DOPC    HB23547   5.289   0.758  11.959 -2.1798  0.5481  0.7520
  191DOPC    C223548   5.352   0.754  12.167 -0.0152  0.1240  0.6596
  191DOPC    HS23549   5.262   0.690  12.175 -0.6159  0.4615 -2.1518
  191DOPC   O2123550   5.381   0.833  12.281  0.5688 -0.0774  0.2243
  191DOPC   C2123551   5.277   0.878  12.349 -0.5794  0.1780 -0.1296
  191DOPC   O2223552   5.164   0.859  12.313  0.4367 -0.2733  0.2171
  191DOPC   C2223553   5.335   0.935  12.480 -0.0057 -0.3073  0.0563
  191DOPC   H2R23554   5.406   1.017  12.458 -0.8994  0.2264 -0.9805
  191DOPC   H2S23555   5.371   0.851  12.543  1.3750 -0.1778 -0.5320
  191DOPC    C323556   5.466   0.647  12.167  0.5343  0.2979  0.3262
  191DOPC    HX23557   5.560   0.706  12.171  1.0405 -0.4952  0.3573
  191DOPC    HY23558   5.462   0.580  12.079  1.3691  0.7086 -0.0361
  191DOPC   O3123559   5.453   0.552  12.276 -0.2807 -0.1018 -0.1299
  191DOPC   C3123560   5.535   0.577  12.377 -0.5519 -0.5965 -0.2891
  191DOPC   O3223561   5.611   0.672  12.388  0.2361 -0.0791 -0.4455
  191DOPC   C3223562   5.522   0.478  12.488 -0.3946 -0.2512 -0.7158
  191DOPC   H2X23563   5.428   0.424  12.460 -1.3155  1.2184 -0.5597
  191DOPC   H2Y23564   5.608   0.408  12.485  1.1465  1.5722 -0.9630
  191DOPC   C2323565   5.219   0.997  12.558 -0.8540 -0.0475 -0.2834
  191DOPC   H3R23566   5.153   0.917  12.596 -1.6018 -0.0056 -1.4427
  191DOPC   H3S23567   5.165   1.078  12.503 -0.1536  1.0101  0.5511
  191DOPC   C2423568   5.277   1.072  12.685 -0.3073  0.1399  0.3756
  191DOPC   H4R23569   5.314   1.171  12.650 -1.0642 -0.0773 -1.1085
  191DOPC   H4S23570   5.368   1.017  12.716  3.2617  4.0780 -1.9905
  191DOPC   C2523571   5.176   1.070  12.799  0.7050 -0.2170 -0.8593
  191DOPC   H5R23572   5.139   0.971  12.834  1.4834 -0.0167  0.6009
  191DOPC   H5S23573   5.081   1.124  12.779  0.0213 -0.4853  1.3702
  191DOPC   C2623574   5.232   1.128  12.937  0.1303  0.0168 -0.0124
  191DOPC   H6R23575   5.321   1.073  12.974  1.2009  2.2657  0.9659
  191DOPC   H6S23576   5.156   1.103  13.014 -2.0586 -0.8152 -2.3136
  191DOPC   C2723577   5.276   1.279  12.927  0.6982  0.5072  0.2406
  191DOPC   H7R23578   5.341   1.274  12.837 -0.3107 -1.9983 -0.4433
  191DOPC   H7S23579   5.334   1.320  13.012 -1.3783  1.6383  1.1927
  191DOPC   C2823580   5.163   1.370  12.886 -0.4679  0.2023  0.8055
  191DOPC   H8R23581   5.103   1.407  12.972 -1.8452 -1.3839  0.6042
  191DOPC   H8S23582   5.095   1.337  12.804  0.2737  2.3291 -0.7404
  191DOPC   C2923583   5.216   1.497  12.828 -0.3345 -0.9008 -0.1591
  191DOPC   H9R23584   5.254   1.494  12.724 -4.1515 -0.1925 -1.7554
  191DOPC  C21023585   5.226   1.621  12.883 -0.3480 -0.2814 -0.4451
  191DOPC  H10R23586   5.253   1.705  12.818 -1.7318 -1.2438 -2.3456
  191DOPC  C21123587   5.187   1.664  13.018 -0.2865  0.0792 -0.7984
  191DOPC  H11R23588   5.172   1.572  13.078 -1.1808 -0.4953 -1.8633
  191DOPC  H11S23589   5.092   1.722  13.017 -0.8784 -0.6586  2.5332
  191DOPC  C21223590   5.294   1.741  13.096 -0.3883  0.4078  0.4113
  191DOPC  H12R23591   5.259   1.781  13.193 -1.7865  0.0069  0.0990
  191DOPC  H12S23592   5.321   1.832  13.038 -0.3717  0.4622  0.5046
  191DOPC  C21323593   5.432   1.663  13.127 -0.3525 -0.7551 -0.3010
  191DOPC  H13R23594   5.509   1.737  13.158  2.3800 -2.8130 -1.7423
  191DOPC  H13S23595   5.483   1.621  13.038  0.6149  1.0254 -0.6215
  191DOPC  C21423596   5.422   1.568  13.243 -1.1548  0.3666  0.1746
  191DOPC  H14R23597   5.519   1.516  13.259 -0.7990  1.4784  1.8450
  191DOPC  H14S23598   5.369   1.476  13.210  2.6027 -1.3015 -1.8316
  191DOPC  C21523599   5.354   1.612  13.375 -0.0698 -0.0953  0.3322
  191DOPC  H15R23600   5.245   1.624  13.359  0.3578  1.4803 -1.9234
  191DOPC  H15S23601   5.406   1.709  13.394  0.5500 -0.3743  0.0710
  191DOPC  C21623602   5.385   1.526  13.496  0.5289  0.3872 -0.8416
  191DOPC  H16R23603   5.494   1.504  13.499  0.2550 -1.0958  1.7116
  191DOPC  H16S23604   5.338   1.425  13.500  0.9005  0.2294 -0.2644
  191DOPC  C21723605   5.344   1.591  13.627 -0.7480  0.0220  0.7082
  191DOPC  H17R23606   5.235   1.610  13.624 -0.5577  1.0524 -1.0824
  191DOPC  H17S23607   5.411   1.679  13.641 -1.0209  0.2635  0.4915
  191DOPC  C21823608   5.364   1.497  13.748  0.8098 -0.7754 -0.1579
  191DOPC  H18R23609   5.469   1.506  13.781  0.1491  3.8256  1.3581
  191DOPC  H18S23610   5.337   1.391  13.727  1.5361 -1.1551  0.7993
  191DOPC  H18T23611   5.296   1.541  13.824  3.4256  2.2637  0.5954
  191DOPC   C3323612   5.512   0.548  12.626 -0.1583 -0.0467  1.0282
  191DOPC   H3X23613   5.596   0.619  12.634  0.8463 -0.5530 -2.9495
  191DOPC   H3Y23614   5.529   0.475  12.708 -0.5663  1.3736  2.4214
  191DOPC   C3423615   5.369   0.606  12.637 -0.3160  0.0556 -0.0679
  191DOPC   H4X23616   5.300   0.519  12.644  0.3868 -0.3673  2.3344
  191DOPC   H4Y23617   5.340   0.646  12.537  0.6688 -2.0142 -1.2478
  191DOPC   C3523618   5.344   0.700  12.750 -0.2195 -0.2988 -0.1560
  191DOPC   H5X23619   5.242   0.740  12.735  0.2194  0.2359 -1.9565
  191DOPC   H5Y23620   5.417   0.784  12.753 -1.1181  0.4719  1.2605
  191DOPC   C3623621   5.358   0.635  12.893  0.1059 -0.7875 -0.1114
  191DOPC   H6X23622   5.291   0.547  12.907 -1.6778  0.8966  3.0567
  191DOPC   H6Y23623   5.463   0.601  12.904  0.9403  2.0140  1.5927
  191DOPC   C3723624   5.342   0.739  13.005 -0.0455  0.1530 -0.3151
  191DOPC   H7X23625   5.398   0.710  13.096 -0.6370  2.4965  0.8972
  191DOPC   H7Y23626   5.387   0.839  12.986  2.1099 -0.6562  0.2622
  191DOPC   C3823627   5.198   0.754  13.035  0.1672 -0.1152  0.2939
  191DOPC   H8X23628   5.144   0.657  13.039 -0.1830  0.0529 -0.2141
  191DOPC   H8Y23629   5.155   0.814  12.952  2.7690  3.2959  1.1929
  191DOPC   C3923630   5.175   0.835  13.160  0.0651 -0.6309  0.2417
  191DOPC   H9X23631   5.140   0.936  13.135  0.2916 -1.0112 -1.7373
  191DOPC  C31023632   5.173   0.787  13.285 -0.5181 -0.7409 -0.5937
  191DOPC  H10X23633   5.156   0.854  13.370 -0.7379 -2.4174  0.7202
  191DOPC  C31123634   5.201   0.646  13.322 -0.0275  0.0544  0.0973
  191DOPC  H11X23635   5.307   0.638  13.291  0.5692  0.5262  1.8809
  191DOPC  H11Y23636   5.140   0.583  13.253 -2.0383  1.8952  0.0679
  191DOPC  C31223637   5.192   0.606  13.467  0.1905  0.2913  0.5735
  191DOPC  H12X23638   5.224   0.500  13.480 -0.0896  0.0928 -0.3107
  191DOPC  H12Y23639   5.090   0.616  13.510 -0.4088 -1.0001 -0.4865
  191DOPC  C31323640   5.284   0.690  13.549 -0.0069  0.4486  0.1340
  191DOPC  H13X23641   5.384   0.682  13.502  0.0786  0.5782  0.2907
  191DOPC  H13Y23642   5.255   0.797  13.555 -0.3575  0.5691 -2.5383
  191DOPC  C31423643   5.288   0.638  13.698 -0.6626 -0.1768  0.5273
  191DOPC  H14X23644   5.182   0.634  13.728 -0.9075 -0.6558 -0.3642
  191DOPC  H14Y23645   5.334   0.537  13.693  3.1450  1.2828  2.3127
  191DOPC  C31523646   5.376   0.736  13.778 -0.4373 -0.4482 -0.8749
  191DOPC  H15X23647   5.329   0.836  13.774  0.4278  0.0443  0.4846
  191DOPC  H15Y23648   5.473   0.745  13.725 -0.8315 -0.2974 -1.5797
  191DOPC  C31623649   5.410   0.697  13.926  0.2230  0.0042  0.2119
  191DOPC  H16X23650   5.439   0.592  13.909  1.3647  0.6322 -2.2803
  191DOPC  H16Y23651   5.495   0.766  13.946  0.3921 -0.0977 -0.1400
  191DOPC  C31723652   5.291   0.716  14.028  0.9547  0.0952  0.2659
  191DOPC  H17X23653   5.200   0.676  13.979  1.2139 -0.2128  0.0367
  191DOPC  H17Y23654   5.323   0.659  14.117  0.3195 -1.7697 -0.6455
  191DOPC  C31823655   5.245   0.862  14.052  0.2879  0.7215  0.0302
  191DOPC  H18X23656   5.180   0.906  13.973 -1.3706  0.8922  1.4271
  191DOPC  H18Y23657   5.186   0.871  14.145 -1.3508 -2.0613 -0.6222
  191DOPC  H18Z23658   5.334   0.927  14.061  1.7111 -0.8823 -1.5655
  192DOPC     N23659   1.209   4.596  11.868  0.0294 -0.4077  0.4274
  192DOPC   C1223660   1.167   4.518  11.988  0.0255  0.2221  0.1232
  192DOPC  H12A23661   1.251   4.468  12.034 -0.3375 -1.0889 -0.5804
  192DOPC  H12B23662   1.100   4.435  11.967 -1.2528  0.9814  1.0055
  192DOPC   C1323663   1.324   4.687  11.896 -0.2515 -0.3654  0.7351
  192DOPC  H13A23664   1.414   4.632  11.920  1.1453  1.0385 -0.9130
  192DOPC  H13B23665   1.348   4.752  11.813 -2.2401 -1.3421 -0.6895
  192DOPC  H13C23666   1.308   4.741  11.988  1.3620 -0.0434  0.8628
  192DOPC   C1423667   1.100   4.688  11.814  0.2675  0.0767  0.5492
  192DOPC  H14A23668   1.081   4.761  11.891  2.9495 -0.8269  2.2158
  192DOPC  H14B23669   1.138   4.732  11.723  0.6754 -2.7474 -0.7515
  192DOPC  H14C23670   1.008   4.638  11.788  1.0883 -0.9128 -0.5674
  192DOPC   C1523671   1.252   4.513  11.746 -0.4107  0.3966 -0.6428
  192DOPC  H15A23672   1.174   4.446  11.714  0.2208 -0.0910 -1.1942
  192DOPC  H15B23673   1.343   4.463  11.775 -0.1146  0.7028 -1.0363
  192DOPC  H15C23674   1.273   4.588  11.671 -1.3065  3.5402  1.9952
  192DOPC   C1123675   1.095   4.606  12.092  0.1060  0.1005 -0.1882
  192DOPC  H11A23676   1.000   4.647  12.052 -1.6296 -1.7726  1.7683
  192DOPC  H11B23677   1.069   4.535  12.173  0.2938 -1.1730 -1.2145
  192DOPC     P23678   1.290   4.691  12.246  0.0409 -0.2789  0.1935
  192DOPC   O1323679   1.356   4.827  12.245  0.3471 -0.7177  0.1532
  192DOPC   O1423680   1.372   4.573  12.210 -0.0935 -0.2918 -0.0085
  192DOPC   O1223681   1.183   4.709  12.138 -0.1521  0.0305  0.1220
  192DOPC   O1123682   1.218   4.667  12.385  0.6548  0.6789 -0.2111
  192DOPC    C123683   1.087   4.725  12.418 -0.0787  0.4794  0.0789
  192DOPC    HA23684   1.006   4.650  12.411  0.1913  0.2579 -0.7570
  192DOPC    HB23685   1.052   4.804  12.348 -2.9056 -1.7405 -1.2295
  192DOPC    C223686   1.083   4.787  12.562  0.3635 -0.0466 -0.4248
  192DOPC    HS23687   1.148   4.877  12.565  0.9761 -0.5042  0.7184
  192DOPC   O2123688   1.121   4.689  12.660 -0.0536  0.1350  0.4340
  192DOPC   C2123689   1.186   4.737  12.765  0.2726  0.1295 -0.0615
  192DOPC   O2223690   1.218   4.854  12.778 -0.2144 -0.0385  0.2778
  192DOPC   C2223691   1.222   4.631  12.861 -0.3263  0.4810 -0.6789
  192DOPC   H2R23692   1.331   4.635  12.881 -0.7988  1.0551  2.2575
  192DOPC   H2S23693   1.204   4.528  12.823  0.1013 -0.4846  1.5419
  192DOPC    C323694   0.936   4.829  12.590  1.0810 -0.3612  0.2247
  192DOPC    HX23695   0.878   4.736  12.573  0.7981 -0.0003 -0.8464
  192DOPC    HY23696   0.895   4.895  12.511  2.4740  0.6124  0.2835
  192DOPC   O3123697   0.909   4.881  12.720  0.0807  0.2706 -0.0768
  192DOPC   C3123698   0.943   5.006  12.737  0.5512 -0.5359  0.3339
  192DOPC   O3223699   0.970   5.077  12.639  0.3449 -0.4611  0.0920
  192DOPC   C3223700   0.927   5.063  12.879 -0.2397 -0.9173  0.9987
  192DOPC   H2X23701   0.989   5.154  12.870 -0.7371 -0.6348  0.3874
  192DOPC   H2Y23702   0.821   5.092  12.888 -0.0788 -0.1734  0.5598
  192DOPC   C2323703   1.155   4.644  12.997 -0.0917 -0.0262  0.3224
  192DOPC   H3R23704   1.046   4.658  12.980  0.2867  0.5810 -1.7946
  192DOPC   H3S23705   1.193   4.737  13.045 -0.9144  0.3237  0.3318
  192DOPC   C2423706   1.183   4.527  13.081 -0.3458  0.6584  0.4614
  192DOPC   H4R23707   1.293   4.525  13.098 -0.2425 -1.4228 -0.1613
  192DOPC   H4S23708   1.159   4.430  13.033 -0.4787  1.0726 -0.3265
  192DOPC   C2523709   1.111   4.525  13.222 -0.3998 -0.1448  0.1488
  192DOPC   H5R23710   1.006   4.494  13.204 -0.2748  0.3800 -1.6329
  192DOPC   H5S23711   1.106   4.631  13.257 -0.1484 -0.8684  2.5880
  192DOPC   C2623712   1.173   4.423  13.315  0.0180 -0.1346 -0.0439
  192DOPC   H6R23713   1.267   4.464  13.357 -0.3229  1.2599 -0.5562
  192DOPC   H6S23714   1.208   4.331  13.265  1.4791 -0.6838  1.8871
  192DOPC   C2723715   1.081   4.369  13.423  0.0204  0.0782  0.4160
  192DOPC   H7R23716   0.995   4.325  13.368  0.2563  0.8230 -0.5758
  192DOPC   H7S23717   1.041   4.455  13.480  0.7253  4.1215 -4.4455
  192DOPC   C2823718   1.164   4.284  13.525  0.0644  0.0161  0.3335
  192DOPC   H8R23719   1.238   4.354  13.568 -0.2119 -0.3003  1.3591
  192DOPC   H8S23720   1.199   4.202  13.459 -0.9022 -0.6976  0.6737
  192DOPC   C2923721   1.068   4.247  13.637  0.1717  0.1461 -0.1503
  192DOPC   H9R23722   1.002   4.160  13.619 -1.8419  1.6560 -0.4248
  192DOPC  C21023723   1.051   4.322  13.749  0.0373 -0.5559 -0.3216
  192DOPC  H10R23724   0.969   4.288  13.813 -0.4647  0.5447 -0.3543
  192DOPC  C21123725   1.117   4.447  13.792  1.0598  0.0198 -0.1921
  192DOPC  H11R23726   1.122   4.524  13.712 -0.5578  0.7572  0.3705
  192DOPC  H11S23727   1.227   4.433  13.799  1.0137  0.1813  1.0565
  192DOPC  C21223728   1.073   4.521  13.922  0.3862 -0.9280  0.4170
  192DOPC  H12R23729   0.969   4.561  13.922  0.5120 -0.5234  1.9948
  192DOPC  H12S23730   1.133   4.614  13.926 -3.0060  1.5166 -0.8917
  192DOPC  C21323731   1.093   4.439  14.050  0.3571 -0.0528  0.3308
  192DOPC  H13R23732   1.200   4.410  14.052  0.3494 -0.0549  0.8632
  192DOPC  H13S23733   1.028   4.351  14.033  0.4603  0.3819 -2.9388
  192DOPC  C21423734   1.045   4.535  14.161 -0.0737 -0.9238 -0.0271
  192DOPC  H14R23735   0.935   4.545  14.159 -0.2185 -1.9807  1.0996
  192DOPC  H14S23736   1.090   4.635  14.148  2.1483 -1.7279  0.9283
  192DOPC  C21523737   1.085   4.479  14.304  0.1579 -0.6145 -0.1759
  192DOPC  H15R23738   1.065   4.554  14.383  0.1020 -0.7908 -0.0235
  192DOPC  H15S23739   1.194   4.459  14.302  0.2795  0.0583 -0.4137
  192DOPC  C21623740   1.010   4.347  14.337  0.4176 -0.2646  0.5357
  192DOPC  H16R23741   1.041   4.270  14.263  0.7758  0.0856  0.3212
  192DOPC  H16S23742   0.900   4.365  14.335  0.4879  0.2517  0.9082
  192DOPC  C21723743   1.034   4.294  14.482 -0.0181 -0.0318  0.3251
  192DOPC  H17R23744   0.995   4.361  14.562 -2.5643 -1.8400  0.7095
  192DOPC  H17S23745   1.144   4.287  14.497  0.1015 -0.0029 -0.5013
  192DOPC  C21823746   1.001   4.148  14.505 -0.1009 -0.5161 -0.3100
  192DOPC  H18R23747   0.891   4.133  14.507 -0.0228 -1.7862  3.8539
  192DOPC  H18S23748   1.031   4.112  14.606 -0.0144 -1.4143 -0.6478
  192DOPC  H18T23749   1.047   4.085  14.426  1.3415  0.0476  0.0462
  192DOPC   C3323750   0.971   4.972  12.997 -0.4715 -0.2780 -0.1064
  192DOPC   H3X23751   1.079   4.944  12.988 -0.2207  0.8737 -0.9753
  192DOPC   H3Y23752   0.909   4.881  13.005 -0.0666 -0.5897 -0.4563
  192DOPC   C3423753   0.942   5.041  13.130 -0.3068 -0.4029  0.2759
  192DOPC   H4X23754   0.839   5.082  13.133 -0.3891 -0.6337  0.5519
  192DOPC   H4Y23755   1.005   5.132  13.144  0.8951 -1.0146 -0.8185
  192DOPC   C3523756   0.955   4.949  13.249  0.1790 -0.4158  0.4866
  192DOPC   H5X23757   1.051   4.894  13.244  0.0134 -1.0484  2.9911
  192DOPC   H5Y23758   0.877   4.870  13.242  0.3586 -0.4174 -2.9360
  192DOPC   C3623759   0.946   5.039  13.375  0.0980 -0.8116 -0.5221
  192DOPC   H6X23760   1.006   5.132  13.360 -1.4603  0.4653  0.7710
  192DOPC   H6Y23761   0.839   5.065  13.383  0.0993 -1.2603  1.4454
  192DOPC   C3723762   0.988   4.976  13.507  0.9128  0.1620  1.3685
  192DOPC   H7X23763   1.083   4.923  13.485  0.6826  0.1614  0.3118
  192DOPC   H7Y23764   1.005   5.057  13.580  0.8531  0.4712  1.0423
  192DOPC   C3823765   0.881   4.874  13.550  0.0796 -0.3969 -0.3691
  192DOPC   H8X23766   0.857   4.806  13.465 -2.0403  0.6670 -0.6682
  192DOPC   H8Y23767   0.785   4.926  13.567  0.3816  0.5741 -1.5061
  192DOPC   C3923768   0.920   4.805  13.680  0.7268  0.3435 -0.0711
  192DOPC   H9X23769   0.979   4.713  13.669  0.8048  0.3878 -0.0223
  192DOPC  C31023770   0.896   4.847  13.804 -0.0543 -0.3239 -0.3696
  192DOPC  H10X23771   0.912   4.770  13.882  0.6206  0.0238 -0.1560
  192DOPC  C31123772   0.826   4.972  13.844  0.0892 -0.5372 -0.4240
  192DOPC  H11X23773   0.751   5.007  13.771 -2.1964 -0.8698  1.6255
  192DOPC  H11Y23774   0.908   5.047  13.848  1.9447 -2.4024 -1.6401
  192DOPC  C31223775   0.761   4.975  13.985  0.2071 -0.3473  0.1270
  192DOPC  H12X23776   0.689   4.892  13.999 -1.6050  1.0722 -0.4729
  192DOPC  H12Y23777   0.709   5.071  14.005  0.2360 -0.4129  0.5313
  192DOPC  C31323778   0.873   4.969  14.092 -0.0677  0.0427  0.0804
  192DOPC  H13X23779   0.941   4.885  14.064  0.3554  0.6087 -0.6371
  192DOPC  H13Y23780   0.941   5.057  14.099  1.7489 -1.2582 -0.4585
  192DOPC  C31423781   0.814   4.951  14.230 -0.1630 -0.2506  0.0658
  192DOPC  H14X23782   0.727   5.016  14.253  1.1770  1.9239 -0.7376
  192DOPC  H14Y23783   0.766   4.851  14.239 -2.2055  0.4631 -1.9861
  192DOPC  C31523784   0.919   4.968  14.345 -0.1912  0.5865 -0.1871
  192DOPC  H15X23785   0.937   5.074  14.371 -0.4809  0.6764 -0.3468
  192DOPC  H15Y23786   1.014   4.924  14.308 -0.6250  0.2000 -0.8786
  192DOPC  C31623787   0.879   4.876  14.467  0.0810  0.5592  0.3842
  192DOPC  H16X23788   0.801   4.930  14.525 -2.1297 -1.9347 -0.0517
  192DOPC  H16Y23789   0.848   4.773  14.437  0.7070  0.0381  1.4604
  192DOPC  C31723790   0.997   4.845  14.565 -0.3303  0.9042 -0.5286
  192DOPC  H17X23791   0.968   4.766  14.637 -2.4406  2.0802 -0.0213
  192DOPC  H17Y23792   1.086   4.803  14.512 -0.0371  1.0439 -0.1480
  192DOPC  C31823793   1.039   4.966  14.637 -0.8785 -0.4225 -0.6963
  192DOPC  H18X23794   1.099   5.035  14.574  1.6442 -1.0428  0.8852
  192DOPC  H18Y23795   0.950   5.023  14.672 -1.7881 -0.9113 -2.1429
  192DOPC  H18Z23796   1.108   4.945  14.722 -1.3564 -2.2176 -0.7107
  193DOPC     N23797   6.472   1.747  12.129  0.7043 -0.2611  0.0906
  193DOPC   C1223798   6.600   1.693  12.193  0.1818  0.8146 -0.5275
  193DOPC  H12A23799   6.680   1.695  12.121  0.0191 -2.2268 -0.9243
  193DOPC  H12B23800   6.582   1.590  12.220  1.0608  1.0678  1.1187
  193DOPC   C1323801   6.460   1.686  11.998  0.3598 -0.1331  0.1720
  193DOPC  H13A23802   6.381   1.725  11.936  0.6989  0.1900 -0.0633
  193DOPC  H13B23803   6.550   1.692  11.940  0.5904  0.1273  0.5556
  193DOPC  H13C23804   6.424   1.587  12.023 -3.4336  1.5878  2.4256
  193DOPC   C1423805   6.486   1.891  12.099  0.2335  0.3808  0.3357
  193DOPC  H14A23806   6.392   1.936  12.068 -0.9203 -1.0081  1.6393
  193DOPC  H14B23807   6.509   1.949  12.187  1.9306  0.5615 -0.1973
  193DOPC  H14C23808   6.569   1.911  12.033  0.2790  1.3762  0.6734
  193DOPC   C1523809   6.353   1.728  12.218  0.0016 -0.0242 -0.4763
  193DOPC  H15A23810   6.262   1.741  12.163 -0.7516  0.0347  0.7438
  193DOPC  H15B23811   6.354   1.803  12.296 -1.1893 -2.1543  1.7428
  193DOPC  H15C23812   6.354   1.627  12.256  0.4533  0.4681  0.8760
  193DOPC   C1123813   6.643   1.766  12.325 -0.1089 -1.2562  0.2535
  193DOPC  H11A23814   6.562   1.763  12.401  0.0910 -0.4436  0.5045
  193DOPC  H11B23815   6.729   1.710  12.369  1.1757  0.1341 -0.4145
  193DOPC     P23816   6.815   1.956  12.294 -0.1120  0.0935 -0.0822
  193DOPC   O1323817   6.811   2.093  12.243 -0.0343 -0.2819 -0.8949
  193DOPC   O1423818   6.902   1.866  12.214  0.0535  0.0016  0.1066
  193DOPC   O1223819   6.671   1.905  12.294 -0.5184 -0.0485  0.1042
  193DOPC   O1123820   6.869   1.963  12.443 -0.2591  0.3089  0.5710
  193DOPC    C123821   6.774   1.978  12.546 -0.1635  0.9027  0.6530
  193DOPC    HA23822   6.710   1.887  12.541  3.0688 -1.4626 -1.7479
  193DOPC    HB23823   6.705   2.063  12.526  0.6459  1.2763 -0.6569
  193DOPC    C223824   6.833   1.976  12.687  0.1315 -0.3999  1.0184
  193DOPC    HS23825   6.877   2.077  12.697 -1.3220  0.4401 -0.4117
  193DOPC   O2123826   6.930   1.866  12.694  0.0462 -0.1034 -0.0649
  193DOPC   C2123827   7.007   1.889  12.794 -0.6734 -0.2471 -0.5115
  193DOPC   O2223828   7.029   1.994  12.855 -0.8385 -0.3391 -0.0206
  193DOPC   C2223829   7.063   1.748  12.849 -0.5685  0.6090  0.0406
  193DOPC   H2R23830   7.102   1.754  12.952  1.0059 -0.9122 -0.4209
  193DOPC   H2S23831   7.151   1.741  12.781  1.4662 -0.6910  2.6513
  193DOPC    C323832   6.719   1.969  12.785  0.0930 -0.9791  0.1750
  193DOPC    HX23833   6.670   1.873  12.757 -0.4228 -0.8121  0.4906
  193DOPC    HY23834   6.637   2.043  12.775  0.9288  0.2100  1.7375
  193DOPC   O3123835   6.768   1.968  12.925  0.4506 -0.0340 -0.0998
  193DOPC   C3123836   6.770   2.093  12.974 -0.2995 -0.0983  0.4320
  193DOPC   O3223837   6.744   2.190  12.906  0.4191 -0.1755  0.5397
  193DOPC   C3223838   6.793   2.093  13.125 -0.7206  0.8698 -0.5261
  193DOPC   H2X23839   6.901   2.093  13.151 -1.1139 -1.6349  1.4112
  193DOPC   H2Y23840   6.726   2.170  13.169 -0.3747  0.6350  0.4248
  193DOPC   C2323841   6.962   1.625  12.828 -0.0415 -0.3382  0.2866
  193DOPC   H3R23842   7.019   1.530  12.829 -1.2982 -1.2724 -3.0918
  193DOPC   H3S23843   6.912   1.625  12.729  1.2643  1.5936 -0.4391
  193DOPC   C2423844   6.857   1.618  12.946 -0.6441 -0.8461 -0.0382
  193DOPC   H4R23845   6.789   1.535  12.920 -1.7057  0.8714 -3.4290
  193DOPC   H4S23846   6.799   1.713  12.949 -0.9518 -1.0471  1.9191
  193DOPC   C2523847   6.908   1.594  13.088 -0.7738  0.1734  0.3879
  193DOPC   H5R23848   6.962   1.686  13.121  0.3513 -0.4850  0.4020
  193DOPC   H5S23849   6.980   1.510  13.081 -1.1405 -0.0646 -0.8158
  193DOPC   C2623850   6.798   1.552  13.182 -0.4685 -0.0820  0.5168
  193DOPC   H6R23851   6.764   1.448  13.161  0.3941 -0.2489 -0.1317
  193DOPC   H6S23852   6.707   1.616  13.175  0.3359  0.9066 -2.1228
  193DOPC   C2723853   6.832   1.538  13.321 -0.3369  0.3142 -0.2421
  193DOPC   H7R23854   6.882   1.624  13.370 -0.9576  0.8771 -0.5886
  193DOPC   H7S23855   6.901   1.452  13.335 -0.8386 -0.2023 -0.9029
  193DOPC   C2823856   6.709   1.510  13.408 -0.4071 -0.7204 -1.1658
  193DOPC   H8R23857   6.644   1.600  13.414  1.2389  0.4299  0.5230
  193DOPC   H8S23858   6.743   1.503  13.513  0.0882 -0.3586 -1.2981
  193DOPC   C2923859   6.625   1.390  13.373  0.4321 -0.5412 -0.4105
  193DOPC   H9R23860   6.667   1.316  13.303  0.8821  1.0078 -1.8665
  193DOPC  C21023861   6.509   1.353  13.434  0.0819 -0.2295  0.2431
  193DOPC  H10R23862   6.455   1.266  13.393 -1.0667  0.9553 -0.8964
  193DOPC  C21123863   6.444   1.439  13.545 -0.5421  1.0022 -0.1274
  193DOPC  H11R23864   6.335   1.456  13.531 -0.5349 -0.0598 -1.8318
  193DOPC  H11S23865   6.496   1.537  13.549  1.7214 -0.1707  0.2232
  193DOPC  C21223866   6.464   1.362  13.675 -0.9214 -0.3928 -0.1549
  193DOPC  H12R23867   6.568   1.325  13.685 -0.0170  1.6765 -1.2044
  193DOPC  H12S23868   6.418   1.261  13.681  1.3982 -1.5353 -0.5362
  193DOPC  C21323869   6.406   1.439  13.791 -0.5536 -0.0877 -1.0826
  193DOPC  H13R23870   6.297   1.429  13.774 -0.7641  0.4006 -0.1188
  193DOPC  H13S23871   6.424   1.548  13.777 -2.3442  0.2583 -0.8989
  193DOPC  C21423872   6.455   1.392  13.930  0.3484 -0.4869 -0.6313
  193DOPC  H14R23873   6.559   1.428  13.944  0.1843  0.0997 -0.8940
  193DOPC  H14S23874   6.449   1.281  13.939  0.0313 -0.3831  0.5915
  193DOPC  C21523875   6.357   1.437  14.048 -0.4594 -0.7416 -0.0833
  193DOPC  H15R23876   6.260   1.383  14.040 -0.3425 -0.9761  0.0685
  193DOPC  H15S23877   6.345   1.543  14.015 -0.0432  0.0906  2.2952
  193DOPC  C21623878   6.415   1.422  14.192  0.8587  0.0194  0.1928
  193DOPC  H16R23879   6.508   1.483  14.198  0.8030  0.0487  0.7986
  193DOPC  H16S23880   6.453   1.323  14.225 -4.0804 -1.9579  0.7780
  193DOPC  C21723881   6.318   1.466  14.299  0.7753  0.0312 -0.6984
  193DOPC  H17R23882   6.242   1.388  14.322  1.8613 -0.7951  0.1858
  193DOPC  H17S23883   6.251   1.545  14.258  1.5321 -0.0311 -2.1435
  193DOPC  C21823884   6.400   1.511  14.422 -0.0813  0.3265 -0.0407
  193DOPC  H18R23885   6.456   1.605  14.408 -0.3515  0.6059  0.7278
  193DOPC  H18S23886   6.478   1.438  14.453  1.3114  1.9381  0.3430
  193DOPC  H18T23887   6.332   1.534  14.507  0.6173 -0.2966  0.7086
  193DOPC   C3323888   6.736   1.959  13.175 -0.0527  0.0588 -0.3943
  193DOPC   H3X23889   6.816   1.883  13.159  0.2419  0.4097 -0.5922
  193DOPC   H3Y23890   6.639   1.944  13.123 -1.7317  0.4970  2.4014
  193DOPC   C3423891   6.709   1.965  13.319 -0.0221 -0.3011 -0.4841
  193DOPC   H4X23892   6.628   1.891  13.335 -0.2384 -0.1183 -0.7435
  193DOPC   H4Y23893   6.653   2.053  13.356  2.3485  1.5714 -1.1375
  193DOPC   C3523894   6.829   1.945  13.409  0.3361  0.1895  0.1862
  193DOPC   H5X23895   6.885   2.040  13.425 -1.6448  1.0315  2.7215
  193DOPC   H5Y23896   6.895   1.859  13.381 -1.2380 -1.2370  0.6841
  193DOPC   C3623897   6.786   1.905  13.550 -0.4042  0.3033 -0.3160
  193DOPC   H6X23898   6.740   1.991  13.602 -1.1778  0.2476 -0.8907
  193DOPC   H6Y23899   6.706   1.829  13.540  1.1395 -1.6108  1.0022
  193DOPC   C3723900   6.898   1.841  13.626 -0.7526  0.3740  0.2407
  193DOPC   H7X23901   6.918   1.745  13.572 -1.3366  2.0141 -3.1625
  193DOPC   H7Y23902   6.981   1.915  13.621 -0.7575  0.3610 -0.0913
  193DOPC   C3823903   6.877   1.815  13.779 -0.0353 -0.2941 -0.4260
  193DOPC   H8X23904   6.862   1.913  13.830 -0.7170 -2.0864  3.1240
  193DOPC   H8Y23905   6.971   1.762  13.805 -0.0659 -0.1596 -0.0340
  193DOPC   C3923906   6.767   1.716  13.790 -0.5585  0.2351  0.3136
  193DOPC   H9X23907   6.753   1.657  13.698  1.5722  0.7857 -0.4060
  193DOPC  C31023908   6.697   1.703  13.905  0.3027 -0.3253  0.6035
  193DOPC  H10X23909   6.623   1.622  13.904  1.0342 -1.0531 -2.1128
  193DOPC  C31123910   6.735   1.773  14.032  0.3420  0.2011  0.3119
  193DOPC  H11X23911   6.715   1.883  14.033  0.1132  0.1836 -1.0780
  193DOPC  H11Y23912   6.842   1.759  14.056  0.4838  1.7138  0.7230
  193DOPC  C31223913   6.667   1.705  14.151  0.4300 -0.6531 -0.6932
  193DOPC  H12X23914   6.698   1.599  14.146  1.6308 -0.3803  0.4303
  193DOPC  H12Y23915   6.556   1.712  14.139  0.0786  2.0872  2.5209
  193DOPC  C31323916   6.713   1.761  14.284 -0.2061 -0.6760 -0.2807
  193DOPC  H13X23917   6.801   1.826  14.265 -1.1783  0.9766  0.6340
  193DOPC  H13Y23918   6.633   1.829  14.321 -0.3629 -1.6546  1.2579
  193DOPC  C31423919   6.760   1.647  14.377  0.5007 -0.0565  0.3140
  193DOPC  H14X23920   6.692   1.559  14.385  0.3630  0.0493  0.3161
  193DOPC  H14Y23921   6.862   1.614  14.347  0.6516  0.1264  0.6322
  193DOPC  C31523922   6.761   1.701  14.522  0.3163 -0.4318  0.8232
  193DOPC  H15X23923   6.662   1.742  14.550 -0.1697  0.5072 -1.9379
  193DOPC  H15Y23924   6.835   1.783  14.516  1.9244 -1.8667  0.3604
  193DOPC  C31623925   6.812   1.596  14.626 -0.4814  0.1711  0.8571
  193DOPC  H16X23926   6.906   1.554  14.582 -1.3669 -2.0931  1.0126
  193DOPC  H16Y23927   6.842   1.648  14.719 -2.2301 -1.8450  2.6578
  193DOPC  C31723928   6.728   1.470  14.664  0.3632  0.5432  0.2111
  193DOPC  H17X23929   6.653   1.451  14.585 -1.3748  0.3210  1.8537
  193DOPC  H17Y23930   6.798   1.385  14.675  0.6050  0.6931 -0.1554
  193DOPC  C31823931   6.658   1.503  14.795  0.3591 -0.7286 -0.8583
  193DOPC  H18X23932   6.589   1.420  14.823 -0.4987 -0.3178 -1.6848
  193DOPC  H18Y23933   6.730   1.529  14.876 -1.6645  0.2125  0.7371
  193DOPC  H18Z23934   6.590   1.591  14.794  0.1981 -0.8522 -1.9093
  194DOPC     N23935   2.189   1.580  12.291  0.4463 -0.5096 -0.2176
  194DOPC   C1223936   2.133   1.518  12.418  0.1979  0.4064 -0.7606
  194DOPC  H12A23937   2.134   1.592  12.496 -0.8373 -1.6398  1.3068
  194DOPC  H12B23938   2.200   1.439  12.450 -1.7622 -1.6366 -1.4068
  194DOPC   C1323939   2.212   1.473  12.191 -0.1737  0.3583 -0.0393
  194DOPC  H13A23940   2.115   1.441  12.154  0.2169  0.4216 -1.1494
  194DOPC  H13B23941   2.261   1.518  12.106  0.3421  1.2299  0.6959
  194DOPC  H13C23942   2.264   1.387  12.230 -2.6354 -1.7541 -1.1063
  194DOPC   C1423943   2.323   1.640  12.326  0.2612 -0.0540 -0.2763
  194DOPC  H14A23944   2.313   1.733  12.380 -0.2518 -0.3837  0.1976
  194DOPC  H14B23945   2.380   1.573  12.388 -1.4242 -0.3166  1.0761
  194DOPC  H14C23946   2.373   1.661  12.232 -2.1488  1.9173 -1.2497
  194DOPC   C1523947   2.106   1.693  12.229 -0.0014 -0.2563  0.3164
  194DOPC  H15A23948   2.109   1.785  12.285 -2.9885  1.1946 -1.6947
  194DOPC  H15B23949   2.004   1.661  12.215 -0.2576  0.0714  1.2864
  194DOPC  H15C23950   2.147   1.730  12.136 -1.7093  0.6120 -0.1251
  194DOPC   C1123951   1.992   1.452  12.398 -0.3677  0.1364  0.4565
  194DOPC  H11A23952   1.956   1.438  12.502  1.7960  0.4767  1.3069
  194DOPC  H11B23953   1.931   1.526  12.343 -1.7700 -0.6910  0.8622
  194DOPC     P23954   2.041   1.189  12.390 -0.4702  0.5292  0.5780
  194DOPC   O1323955   2.188   1.193  12.409 -0.0885 -0.3746 -0.5501
  194DOPC   O1423956   1.979   1.088  12.300  0.4583  0.4021  0.1167
  194DOPC   O1223957   2.002   1.331  12.327  0.0311  0.1326  0.3829
  194DOPC   O1123958   1.965   1.188  12.526  0.0071 -0.1295  0.5215
  194DOPC    C123959   2.021   1.148  12.645  0.9778 -0.2380 -0.1339
  194DOPC    HA23960   2.098   1.223  12.675  1.7018 -0.5373 -1.2006
  194DOPC    HB23961   2.058   1.044  12.632 -0.2106 -0.4473 -2.0537
  194DOPC    C223962   1.921   1.161  12.761 -0.5658  0.7322 -0.5301
  194DOPC    HS23963   1.890   1.267  12.756 -1.3722  0.5155 -0.2514
  194DOPC   O2123964   2.001   1.126  12.880 -0.0439 -0.4675  0.4285
  194DOPC   C2123965   1.970   1.192  12.988  0.4429 -0.5623  0.1242
  194DOPC   O2223966   1.891   1.288  13.000 -0.2738  0.7227  0.4835
  194DOPC   C2223967   2.039   1.126  13.109 -0.5447 -0.8209 -0.0115
  194DOPC   H2R23968   2.146   1.157  13.112 -0.8877  0.8943 -2.3675
  194DOPC   H2S23969   2.045   1.016  13.091 -2.2648 -0.9541  0.0695
  194DOPC    C323970   1.797   1.069  12.747 -0.6375 -0.5982 -0.2215
  194DOPC    HX23971   1.842   0.968  12.751 -0.2310 -0.3832  0.8916
  194DOPC    HY23972   1.758   1.095  12.646 -0.2879  0.7248 -0.0322
  194DOPC   O3123973   1.710   1.088  12.857  0.3969  0.4828 -0.7262
  194DOPC   C3123974   1.592   1.032  12.830 -0.1040  0.4769  0.5664
  194DOPC   O3223975   1.564   0.992  12.720 -0.2035 -0.1565  0.2373
  194DOPC   C3223976   1.493   1.041  12.949 -0.9451 -0.0023  0.5380
  194DOPC   H2X23977   1.442   1.139  12.952 -3.1681 -0.9969 -1.4633
  194DOPC   H2Y23978   1.418   0.960  12.938  0.5482 -1.2595 -0.9985
  194DOPC   C2323979   1.967   1.139  13.238  0.3167  0.0877 -0.0963
  194DOPC   H3R23980   1.861   1.112  13.216  0.5861  0.1806 -1.6259
  194DOPC   H3S23981   1.972   1.242  13.279 -1.5525  0.8623 -1.6895
  194DOPC   C2423982   2.025   1.047  13.354  0.0903 -0.2220  0.7106
  194DOPC   H4R23983   2.130   1.066  13.384  0.9901 -1.0343 -1.7075
  194DOPC   H4S23984   2.019   0.943  13.316 -0.8801 -0.2073  0.8049
  194DOPC   C2523985   1.930   1.057  13.479 -0.2951  0.1423  0.4332
  194DOPC   H5R23986   1.826   1.039  13.445  0.2998 -1.3816 -0.7106
  194DOPC   H5S23987   1.923   1.162  13.515 -0.9883  0.1347  0.3240
  194DOPC   C2623988   1.960   0.972  13.596  0.2778 -0.2421  1.1170
  194DOPC   H6R23989   2.062   1.001  13.629  1.2732 -0.3306 -1.6155
  194DOPC   H6S23990   1.953   0.865  13.567 -0.0595  0.2499 -0.7361
  194DOPC   C2723991   1.881   1.023  13.714  0.0029 -0.1065 -0.2767
  194DOPC   H7R23992   1.775   0.996  13.690  0.6137 -1.8109 -1.2141
  194DOPC   H7S23993   1.895   1.133  13.720  2.3087 -0.4203  1.1015
  194DOPC   C2823994   1.922   0.950  13.845  0.3144 -0.6774  0.0087
  194DOPC   H8R23995   2.032   0.957  13.859  0.2392 -3.1238  2.8245
  194DOPC   H8S23996   1.903   0.841  13.841  2.0455 -0.9821 -0.8007
  194DOPC   C2923997   1.857   1.022  13.962  0.1740  0.3808 -0.2309
  194DOPC   H9R23998   1.839   1.129  13.940 -0.8219 -0.0437 -1.6653
  194DOPC  C21023999   1.803   0.971  14.071  1.0293  0.4415  0.1657
  194DOPC  H10R24000   1.755   1.043  14.141  0.5399  1.1451 -0.8658
  194DOPC  C21124001   1.794   0.828  14.121  0.2223 -0.4306  0.5360
  194DOPC  H11R24002   1.875   0.765  14.078 -0.7771 -0.9428 -0.6756
  194DOPC  H11S24003   1.698   0.787  14.084 -0.0489  2.9001 -3.1584
  194DOPC  C21224004   1.786   0.820  14.273  0.5231 -0.3343  0.3411
  194DOPC  H12R24005   1.686   0.851  14.311  0.6961  0.3957  0.2257
  194DOPC  H12S24006   1.849   0.893  14.328 -1.3120  0.6418  1.2477
  194DOPC  C21324007   1.811   0.670  14.326 -0.0315 -0.3334 -0.2619
  194DOPC  H13R24008   1.904   0.639  14.273  0.3009 -0.6494  0.4927
  194DOPC  H13S24009   1.730   0.611  14.280 -0.7696  0.5278 -0.0867
  194DOPC  C21424010   1.813   0.655  14.478 -0.5131 -0.4194  0.8529
  194DOPC  H14R24011   1.709   0.659  14.516 -0.1220 -0.8275  2.0122
  194DOPC  H14S24012   1.875   0.738  14.519  0.7687 -0.9054 -0.0403
  194DOPC  C21524013   1.877   0.529  14.525  0.7118 -0.0391 -0.3037
  194DOPC  H15R24014   1.925   0.547  14.623 -1.7681 -1.6056  1.3296
  194DOPC  H15S24015   1.961   0.501  14.458  0.0990  0.5913 -1.3662
  194DOPC  C21624016   1.778   0.410  14.530 -0.4015 -0.4816 -0.4045
  194DOPC  H16R24017   1.744   0.384  14.428 -1.3194 -0.9074 -0.0080
  194DOPC  H16S24018   1.687   0.433  14.589 -0.6482  0.4406 -1.1319
  194DOPC  C21724019   1.841   0.278  14.590  0.3569  0.2170  0.1714
  194DOPC  H17R24020   1.944   0.276  14.547  0.3061 -0.9370  0.0721
  194DOPC  H17S24021   1.797   0.183  14.555  0.4757 -0.3833  1.5792
  194DOPC  C21824022   1.828   0.279  14.743  0.2842  0.0180  0.3452
  194DOPC  H18R24023   1.723   0.298  14.773 -0.1467  1.6953 -1.9417
  194DOPC  H18S24024   1.890   0.361  14.786 -1.4482  1.1838  0.7124
  194DOPC  H18T24025   1.872   0.187  14.786 -0.0270  0.1380  0.9220
  194DOPC   C3324026   1.555   1.026  13.093 -0.4748  1.1093  0.7511
  194DOPC   H3X24027   1.632   1.106  13.097  2.5725 -1.4918 -0.8036
  194DOPC   H3Y24028   1.599   0.924  13.096 -1.1533  0.6910 -1.8233
  194DOPC   C3424029   1.460   1.041  13.213  0.0751 -0.0447  0.3730
  194DOPC   H4X24030   1.385   0.959  13.209 -1.8178  1.4677  2.3593
  194DOPC   H4Y24031   1.397   1.132  13.207  0.2102  0.0839  0.8433
  194DOPC   C3524032   1.520   1.034  13.355 -0.0470  0.4803 -0.7105
  194DOPC   H5X24033   1.578   1.124  13.383  0.0796  0.0237  0.5396
  194DOPC   H5Y24034   1.588   0.946  13.352 -2.2252 -1.5129  2.1339
  194DOPC   C3624035   1.427   1.004  13.476  0.1971 -0.5017  0.2453
  194DOPC   H6X24036   1.366   1.094  13.494  1.7721  0.0930  3.2239
  194DOPC   H6Y24037   1.352   0.922  13.466  1.1131 -2.0989  4.3782
  194DOPC   C3724038   1.499   0.985  13.613  0.2083 -0.9731  0.4732
  194DOPC   H7X24039   1.538   0.881  13.623 -1.0685 -1.7269 -1.7068
  194DOPC   H7Y24040   1.583   1.058  13.614 -0.2186 -0.4788  0.7779
  194DOPC   C3824041   1.412   1.022  13.739 -0.2984  0.0763 -0.0068
  194DOPC   H8X24042   1.330   0.957  13.775 -2.1153  3.8639  3.6230
  194DOPC   H8Y24043   1.354   1.109  13.700 -1.0900 -0.6590 -0.5260
  194DOPC   C3924044   1.502   1.050  13.857  0.7370  0.1997  0.2916
  194DOPC   H9X24045   1.609   1.066  13.839  1.4705 -1.9361  2.2097
  194DOPC  C31024046   1.455   1.041  13.986 -0.2174  0.1361 -0.1193
  194DOPC  H10X24047   1.526   1.065  14.067 -1.7956  1.2650  0.9768
  194DOPC  C31124048   1.316   1.009  14.030  0.0663 -0.0681 -0.3924
  194DOPC  H11X24049   1.233   1.028  13.959 -0.4267 -0.4622  0.0724
  194DOPC  H11Y24050   1.297   1.077  14.116 -2.3473  3.7206 -3.5458
  194DOPC  C31224051   1.305   0.864  14.083  0.0873 -0.7696  1.1968
  194DOPC  H12X24052   1.341   0.796  14.002  3.3709 -0.6725  2.4059
  194DOPC  H12Y24053   1.198   0.837  14.090  0.2094 -1.3510  0.8727
  194DOPC  C31324054   1.386   0.841  14.211  0.7820 -0.0139 -0.5275
  194DOPC  H13X24055   1.494   0.868  14.205  0.6398  2.3067  3.6660
  194DOPC  H13Y24056   1.349   0.905  14.294  3.5656 -0.8712  1.5466
  194DOPC  C31424057   1.363   0.698  14.261  0.4816 -0.4551  0.0036
  194DOPC  H14X24058   1.254   0.681  14.255  0.5794 -0.9167 -0.5046
  194DOPC  H14Y24059   1.399   0.631  14.180  1.5859  1.6970 -1.3642
  194DOPC  C31524060   1.404   0.653  14.404  0.2467 -0.1340  0.6869
  194DOPC  H15X24061   1.378   0.740  14.467 -0.3766 -0.3218  0.6976
  194DOPC  H15Y24062   1.512   0.638  14.422  0.8714  0.5989 -2.0218
  194DOPC  C31624063   1.329   0.519  14.446 -0.4623  0.1265  0.4610
  194DOPC  H16X24064   1.224   0.544  14.422 -0.7634 -2.1525 -0.8919
  194DOPC  H16Y24065   1.362   0.433  14.384  1.0829  0.4724  0.7723
  194DOPC  C31724066   1.339   0.489  14.597  0.5421 -0.4095 -0.5683
  194DOPC  H17X24067   1.277   0.398  14.611  0.6688 -0.4363 -0.1786
  194DOPC  H17Y24068   1.444   0.471  14.629  0.0928 -0.6230  0.8745
  194DOPC  C31824069   1.287   0.599  14.692 -0.0870  0.0055  0.2410
  194DOPC  H18X24070   1.196   0.636  14.642 -0.4367 -0.6772  0.3644
  194DOPC  H18Y24071   1.270   0.557  14.794  0.4104  1.2365  0.8468
  194DOPC  H18Z24072   1.361   0.682  14.690  2.3014 -2.0081 -1.4653
  195DOPC     N24073   5.847   1.357  12.258  0.3369  0.0034 -0.5862
  195DOPC   C1224074   5.965   1.429  12.195  0.1761  0.0333 -0.8799
  195DOPC  H12A24075   5.983   1.522  12.247  2.0137 -1.3568  1.1251
  195DOPC  H12B24076   5.948   1.442  12.090  0.8707 -0.8065 -1.1036
  195DOPC   C1324077   5.799   1.237  12.180  0.8727 -0.0396 -0.0098
  195DOPC  H13A24078   5.883   1.176  12.152  0.6947 -2.1901  3.6031
  195DOPC  H13B24079   5.726   1.173  12.226  0.4748  0.9676  0.8115
  195DOPC  H13C24080   5.755   1.283  12.092  2.1086  2.1005  0.4284
  195DOPC   C1424081   5.736   1.452  12.293  0.3691  0.1602 -1.0005
  195DOPC  H14A24082   5.709   1.507  12.203  0.6302  1.1718 -0.4827
  195DOPC  H14B24083   5.648   1.413  12.342  0.7895  0.9737  0.4593
  195DOPC  H14C24084   5.772   1.525  12.364  3.8739 -1.3045 -1.0891
  195DOPC   C1524085   5.876   1.304  12.400 -0.4167  0.0596  0.0223
  195DOPC  H15A24086   5.793   1.256  12.450  0.1931  1.2359  2.2852
  195DOPC  H15B24087   5.912   1.385  12.461 -1.8130 -0.4332  1.5699
  195DOPC  H15C24088   5.960   1.236  12.397  1.0101  1.7903 -0.8992
  195DOPC   C1124089   6.099   1.355  12.208 -0.2717 -0.0736  0.4235
  195DOPC  H11A24090   6.162   1.435  12.163 -1.3162  0.2101 -0.5845
  195DOPC  H11B24091   6.123   1.348  12.316 -2.6258  1.5598  1.1277
  195DOPC     P24092   6.229   1.172  12.084  0.2237 -0.1519 -0.3338
  195DOPC   O1324093   6.353   1.235  12.135  0.4203 -0.6032  0.8151
  195DOPC   O1424094   6.212   1.179  11.937  0.4651 -0.1813 -0.3910
  195DOPC   O1224095   6.102   1.234  12.144 -0.3519  0.3429  0.5642
  195DOPC   O1124096   6.228   1.022  12.134  0.8666 -0.8017  0.4473
  195DOPC    C124097   6.110   0.948  12.158  1.0962 -0.2744 -0.0005
  195DOPC    HA24098   6.121   0.843  12.123  0.6975  0.0361 -1.0920
  195DOPC    HB24099   6.033   0.980  12.085  1.8531  1.2603 -0.1704
  195DOPC    C224100   6.052   0.949  12.305 -0.3514  0.7086 -0.0575
  195DOPC    HS24101   5.996   1.045  12.311 -1.2950  0.2680 -1.4576
  195DOPC   O2124102   6.164   0.937  12.393 -0.9527  0.4596  0.1991
  195DOPC   C2124103   6.165   1.027  12.493 -0.6344  0.8162 -0.5686
  195DOPC   O2224104   6.091   1.120  12.505 -0.6572 -0.3839  0.0132
  195DOPC   C2224105   6.267   0.987  12.598 -0.2552 -0.2956 -0.2440
  195DOPC   H2R24106   6.299   1.075  12.658  0.1394 -1.3084  1.0721
  195DOPC   H2S24107   6.358   0.945  12.549  0.5824  1.8531 -0.6338
  195DOPC    C324108   5.962   0.828  12.320  0.3593  0.0649 -0.3403
  195DOPC    HX24109   6.022   0.735  12.310 -0.8656 -0.8295  0.1854
  195DOPC    HY24110   5.894   0.802  12.236  1.8841 -0.7674 -1.3508
  195DOPC   O3124111   5.904   0.831  12.452  0.0057  0.3205 -0.2676
  195DOPC   C3124112   5.790   0.908  12.445  0.2367  0.0118  0.0469
  195DOPC   O3224113   5.752   0.984  12.354  0.0619  0.3326  0.3774
  195DOPC   C3224114   5.726   0.904  12.581  0.3878  0.0290 -0.2588
  195DOPC   H2X24115   5.616   0.921  12.572 -0.0323  0.5549  3.9724
  195DOPC   H2Y24116   5.731   0.802  12.625 -0.9397  0.0222 -0.0691
  195DOPC   C2324117   6.221   0.884  12.700  0.0027  0.1526 -0.1548
  195DOPC   H3R24118   6.311   0.831  12.736 -0.4968 -0.6033  0.0065
  195DOPC   H3S24119   6.139   0.814  12.671 -1.3922  1.0954  1.2799
  195DOPC   C2424120   6.158   0.965  12.816 -0.4763  0.0138  0.1734
  195DOPC   H4R24121   6.069   1.027  12.794 -1.8210 -0.3926  3.7176
  195DOPC   H4S24122   6.233   1.037  12.856 -0.1852  0.0617 -0.4510
  195DOPC   C2524123   6.116   0.873  12.929 -0.2397  0.4897 -0.1899
  195DOPC   H5R24124   6.199   0.800  12.934 -1.9616 -1.5044  1.2176
  195DOPC   H5S24125   6.022   0.819  12.903  0.4810 -0.9201  0.0602
  195DOPC   C2624126   6.097   0.937  13.070  0.0470  0.1008  0.2088
  195DOPC   H6R24127   5.996   0.981  13.058 -0.2184 -0.8368 -1.1866
  195DOPC   H6S24128   6.182   1.008  13.075 -0.5991  0.9420 -0.3888
  195DOPC   C2724129   6.098   0.828  13.175 -0.1232  0.5695 -0.5547
  195DOPC   H7R24130   6.200   0.785  13.180 -0.5450 -0.4833 -0.9327
  195DOPC   H7S24131   6.032   0.743  13.150 -1.2482  1.0225  0.7691
  195DOPC   C2824132   6.057   0.886  13.311 -1.1276  0.3638 -0.9243
  195DOPC   H8R24133   6.056   0.793  13.372 -1.3415  1.6192  1.0669
  195DOPC   H8S24134   5.950   0.915  13.305 -0.7259  1.5944 -2.8240
  195DOPC   C2924135   6.131   1.000  13.374  0.0278  0.1721 -1.1858
  195DOPC   H9R24136   6.205   1.046  13.307  1.8413 -0.3630  0.3831
  195DOPC  C21024137   6.137   1.043  13.501  0.0143 -0.4276 -0.0891
  195DOPC  H10R24138   6.208   1.126  13.516  0.4230 -0.4495 -1.6673
  195DOPC  C21124139   6.070   0.980  13.620 -0.5257  0.5818  0.5155
  195DOPC  H11R24140   6.075   0.869  13.615 -1.3030  0.4907  1.4001
  195DOPC  H11S24141   5.964   1.013  13.625 -0.8380 -0.4990  1.5282
  195DOPC  C21224142   6.153   1.037  13.736  0.4192 -0.4910 -0.4220
  195DOPC  H12R24143   6.158   1.148  13.736  1.4971 -0.5029  1.4044
  195DOPC  H12S24144   6.260   1.008  13.727  1.2886  1.9436  1.2754
  195DOPC  C21324145   6.103   0.994  13.873 -0.1567  0.2095  0.2260
  195DOPC  H13R24146   6.113   0.885  13.891  1.1707  0.3020  0.1466
  195DOPC  H13S24147   5.995   1.010  13.890 -0.3989 -2.5608  1.8590
  195DOPC  C21424148   6.190   1.052  13.980  0.5646 -0.1119 -1.6701
  195DOPC  H14R24149   6.157   1.155  14.004 -0.2860 -0.4004 -1.5537
  195DOPC  H14S24150   6.295   1.060  13.945  1.0199 -2.3168 -1.0294
  195DOPC  C21524151   6.185   0.960  14.106  0.4648  0.4873 -0.0131
  195DOPC  H15R24152   6.081   0.921  14.118  0.9329 -1.2241 -1.1900
  195DOPC  H15S24153   6.216   1.021  14.194  1.2698  0.9163 -0.5845
  195DOPC  C21624154   6.280   0.838  14.099 -0.2102 -0.5708 -0.2390
  195DOPC  H16R24155   6.373   0.870  14.046  0.5094 -0.3268  1.1144
  195DOPC  H16S24156   6.233   0.756  14.041 -1.1645 -0.9513  1.0419
  195DOPC  C21724157   6.319   0.789  14.238 -0.2030  0.4123 -0.0586
  195DOPC  H17R24158   6.226   0.777  14.298 -1.5789  0.9687 -1.9850
  195DOPC  H17S24159   6.392   0.863  14.275  0.3109  0.3410 -0.9080
  195DOPC  C21824160   6.393   0.655  14.220 -0.1253  0.1602 -0.2058
  195DOPC  H18R24161   6.312   0.585  14.190 -0.6830  1.6340 -2.3823
  195DOPC  H18S24162   6.447   0.637  14.316  0.8737 -0.0993 -0.8055
  195DOPC  H18T24163   6.470   0.660  14.141  2.0785  1.1068  1.8644
  195DOPC   C3324164   5.768   1.005  12.682  0.2408  0.4159  0.0301
  195DOPC   H3X24165   5.788   1.102  12.632 -1.1198  0.8828  0.3409
  195DOPC   H3Y24166   5.863   0.971  12.727  0.9490  3.2011  0.8346
  195DOPC   C3424167   5.666   1.025  12.798  0.1752 -0.2575  0.1582
  195DOPC   H4X24168   5.655   0.918  12.828  1.5801 -1.2438 -2.5365
  195DOPC   H4Y24169   5.570   1.068  12.762  0.2166 -0.4621 -0.1947
  195DOPC   C3524170   5.728   1.108  12.906 -0.5103 -0.2143 -1.0903
  195DOPC   H5X24171   5.755   1.201  12.850 -1.1403 -0.7493 -2.3306
  195DOPC   H5Y24172   5.823   1.061  12.938 -0.2969  1.5304  1.0721
  195DOPC   C3624173   5.642   1.146  13.021 -0.3814 -0.1444  0.5773
  195DOPC   H6X24174   5.692   1.228  13.077  0.0627  2.8482 -3.6887
  195DOPC   H6Y24175   5.559   1.206  12.978 -1.5890 -1.2655  1.2623
  195DOPC   C3724176   5.587   1.035  13.116  0.1728  0.5252  0.3963
  195DOPC   H7X24177   5.516   0.973  13.059  0.2660  0.2322  0.5953
  195DOPC   H7Y24178   5.672   0.977  13.159 -1.1976 -0.1433  2.3826
  195DOPC   C3824179   5.506   1.100  13.229 -0.6541  0.3800  0.2562
  195DOPC   H8X24180   5.412   1.136  13.183 -0.6237 -0.8965 -0.8777
  195DOPC   H8Y24181   5.557   1.192  13.263 -1.9328  2.1919 -2.3973
  195DOPC   C3924182   5.462   1.019  13.353  0.4327  0.5963  0.0601
  195DOPC   H9X24183   5.391   0.942  13.320  0.2867  1.3159 -1.3681
  195DOPC  C31024184   5.496   1.039  13.477  0.0582 -0.7942  0.2919
  195DOPC  H10X24185   5.451   0.974  13.554 -2.9796  0.8383  0.0797
  195DOPC  C31124186   5.585   1.154  13.534  0.3969 -0.4507  0.3088
  195DOPC  H11X24187   5.569   1.234  13.458 -1.4501 -2.5226 -1.6107
  195DOPC  H11Y24188   5.693   1.131  13.545  0.4711 -0.8504 -1.0549
  195DOPC  C31224189   5.539   1.207  13.672  0.2547  0.1684 -0.1112
  195DOPC  H12X24190   5.429   1.215  13.685  0.2908 -0.5648  0.7923
  195DOPC  H12Y24191   5.578   1.308  13.696 -1.0823  0.9932 -1.2711
  195DOPC  C31324192   5.594   1.113  13.788  0.4924  0.4408  0.0637
  195DOPC  H13X24193   5.548   1.014  13.811 -1.7815  1.7200  1.2821
  195DOPC  H13Y24194   5.698   1.084  13.761  0.4061  1.2019 -1.1646
  195DOPC  C31424195   5.594   1.172  13.925 -0.1688  0.1232 -0.5821
  195DOPC  H14X24196   5.494   1.193  13.968 -1.5906 -0.9060 -3.1474
  195DOPC  H14Y24197   5.628   1.088  13.989  1.0960  2.1434  1.5496
  195DOPC  C31524198   5.692   1.294  13.931  0.1764 -0.2644 -0.3790
  195DOPC  H15X24199   5.646   1.386  13.889  1.9479  0.3157 -1.1523
  195DOPC  H15Y24200   5.774   1.262  13.864 -0.5068 -0.5986 -1.0686
  195DOPC  C31624201   5.742   1.301  14.075  0.5628 -0.0064  0.9897
  195DOPC  H16X24202   5.789   1.400  14.093  1.9957 -0.0049 -1.9966
  195DOPC  H16Y24203   5.647   1.286  14.130 -1.1029  0.5115 -1.5656
  195DOPC  C31724204   5.847   1.193  14.110  0.1547  0.0797 -0.4815
  195DOPC  H17X24205   5.798   1.096  14.088 -0.9293  0.1834  1.2974
  195DOPC  H17Y24206   5.946   1.197  14.060  1.7718  0.8792  2.5412
  195DOPC  C31824207   5.886   1.204  14.255 -0.3790  0.0169 -0.0726
  195DOPC  H18X24208   5.797   1.213  14.321 -0.6780  0.5684 -0.5374
  195DOPC  H18Y24209   5.941   1.111  14.281 -0.5800 -1.2075 -3.4755
  195DOPC  H18Z24210   5.952   1.291  14.273  0.7179 -0.7982 -0.0547
  196DOPC     N24211   1.198   1.992  12.244 -0.0137 -0.5498  0.0913
  196DOPC   C1224212   1.201   1.982  12.398  0.0304  0.5117  0.2800
  196DOPC  H12A24213   1.253   1.889  12.413  0.4301  0.3686 -1.7231
  196DOPC  H12B24214   1.103   1.985  12.443  0.0667  2.7570  0.3069
  196DOPC   C1324215   1.132   1.875  12.175 -0.0436 -0.0814 -0.3036
  196DOPC  H13A24216   1.108   1.905  12.074  1.5605  1.2919 -0.3139
  196DOPC  H13B24217   1.204   1.794  12.171  0.6266  0.5241 -0.5686
  196DOPC  H13C24218   1.043   1.838  12.225  0.0037  2.8824  2.3185
  196DOPC   C1424219   1.326   2.018  12.180  0.0741 -0.1002 -0.4084
  196DOPC  H14A24220   1.306   2.016  12.074 -2.6414  0.3590  0.0198
  196DOPC  H14B24221   1.363   2.115  12.210  0.8968 -0.2251 -1.0027
  196DOPC  H14C24222   1.397   1.939  12.200 -0.7529 -1.3357 -2.1114
  196DOPC   C1524223   1.105   2.113  12.218  0.2153  0.8670 -0.3188
  196DOPC  H15A24224   1.003   2.091  12.247  0.9010 -0.0026  1.5282
  196DOPC  H15B24225   1.105   2.137  12.112  1.1494  0.8774 -0.3210
  196DOPC  H15C24226   1.136   2.199  12.276 -1.1624  3.0400 -2.5905
  196DOPC   C1124227   1.275   2.100  12.474  0.3211  0.0569  0.3905
  196DOPC  H11A24228   1.258   2.083  12.582  1.1014  1.0816  0.6997
  196DOPC  H11B24229   1.383   2.083  12.451  0.3292 -0.2529  0.6554
  196DOPC     P24230   1.285   2.364  12.453  0.1542 -0.5019 -0.1237
  196DOPC   O1324231   1.177   2.463  12.441 -0.7369  0.1631  0.2284
  196DOPC   O1424232   1.404   2.387  12.371 -0.2075 -0.3306  0.6900
  196DOPC   O1224233   1.224   2.224  12.434 -0.5652  0.1135 -0.0279
  196DOPC   O1124234   1.337   2.373  12.600  0.7797  0.7444  0.5868
  196DOPC    C124235   1.253   2.360  12.714  0.1826  0.1802  0.4790
  196DOPC    HA24236   1.229   2.252  12.727  0.2102  0.1061 -0.0463
  196DOPC    HB24237   1.156   2.415  12.708 -0.5508 -0.7015  3.2092
  196DOPC    C224238   1.317   2.427  12.835 -0.5229  0.4524 -0.0150
  196DOPC    HS24239   1.419   2.391  12.860 -0.9326 -1.0093 -0.3445
  196DOPC   O2124240   1.229   2.407  12.948 -0.4226 -0.5536  0.1037
  196DOPC   C2124241   1.297   2.397  13.056  0.5373 -0.1079 -0.4636
  196DOPC   O2224242   1.420   2.412  13.075  0.0478 -0.1460  0.1634
  196DOPC   C2224243   1.193   2.389  13.172  0.1446 -0.0251  0.0482
  196DOPC   H2R24244   1.117   2.318  13.134 -0.2753 -0.0687  0.9655
  196DOPC   H2S24245   1.150   2.491  13.182  1.6468  0.6912 -0.4783
  196DOPC    C324246   1.342   2.574  12.799  0.0540 -0.3727  0.4849
  196DOPC    HX24247   1.246   2.626  12.779  1.6920  2.0516 -1.7740
  196DOPC    HY24248   1.396   2.592  12.703  0.2789  0.0875  0.6930
  196DOPC   O3124249   1.418   2.640  12.898  0.5948 -0.6100 -0.5820
  196DOPC   C3124250   1.557   2.636  12.895 -0.3745  0.3424  0.2465
  196DOPC   O3224251   1.621   2.569  12.816  0.4943 -0.8679 -0.3749
  196DOPC   C3224252   1.616   2.716  13.012 -0.4849 -0.6614  0.2989
  196DOPC   H2X24253   1.649   2.646  13.092  0.2431  2.7446  3.2556
  196DOPC   H2Y24254   1.702   2.772  12.969 -1.4952  0.1392 -0.7408
  196DOPC   C2324255   1.269   2.366  13.304 -0.0696  0.8567 -0.6930
  196DOPC   H3R24256   1.328   2.459  13.322  0.4277 -0.0172  2.9540
  196DOPC   H3S24257   1.338   2.279  13.306  0.1977  1.0760  1.1080
  196DOPC   C2424258   1.179   2.358  13.428  0.5550 -0.1536 -0.7199
  196DOPC   H4R24259   1.120   2.451  13.440 -0.0752 -0.2764 -2.5457
  196DOPC   H4S24260   1.251   2.354  13.513 -0.2276 -1.3745 -0.0812
  196DOPC   C2524261   1.081   2.238  13.434 -0.5167 -0.0005  0.1973
  196DOPC   H5R24262   1.113   2.142  13.389  1.5804  0.8509 -0.2469
  196DOPC   H5S24263   0.985   2.262  13.383 -1.7303 -1.1420  1.8822
  196DOPC   C2624264   1.054   2.200  13.581  0.2518  0.0260 -0.1441
  196DOPC   H6R24265   0.960   2.140  13.578 -0.7702  1.4993  0.6746
  196DOPC   H6S24266   1.050   2.293  13.642  2.0077  0.6446 -0.9244
  196DOPC   C2724267   1.161   2.100  13.637 -0.8505 -0.1754  0.0265
  196DOPC   H7R24268   1.252   2.154  13.669 -0.6362 -1.0702  1.0034
  196DOPC   H7S24269   1.186   2.026  13.558  0.2650  0.2868 -0.0646
  196DOPC   C2824270   1.118   2.028  13.770  0.0299  0.0414 -0.0971
  196DOPC   H8R24271   1.193   1.946  13.768  0.3288  0.3179 -1.2906
  196DOPC   H8S24272   1.014   1.991  13.762 -0.0085 -0.1825  1.2787
  196DOPC   C2924273   1.134   2.123  13.891  0.7721  0.2492  0.2699
  196DOPC   H9R24274   1.060   2.205  13.891  0.4264 -0.0576  1.2463
  196DOPC  C21024275   1.227   2.120  13.980 -0.4297 -0.5157 -0.1843
  196DOPC  H10R24276   1.245   2.204  14.049 -0.1904 -2.1187  1.7991
  196DOPC  C21124277   1.332   2.012  13.990  0.0400  0.2497 -0.0154
  196DOPC  H11R24278   1.389   2.027  13.895  0.0823  0.9095  0.1062
  196DOPC  H11S24279   1.289   1.910  14.000 -0.1008  0.3134  0.0315
  196DOPC  C21224280   1.429   2.028  14.106 -0.4714  0.4030 -0.0117
  196DOPC  H12R24281   1.508   2.106  14.092 -1.1871  1.2962  0.8066
  196DOPC  H12S24282   1.489   1.937  14.126 -0.4741  0.0723 -1.4202
  196DOPC  C21324283   1.351   2.061  14.233  0.1997 -0.4912 -0.1945
  196DOPC  H13R24284   1.315   2.166  14.228  0.7850 -0.3125 -0.8672
  196DOPC  H13S24285   1.430   2.069  14.310 -0.6978 -2.2868  0.9920
  196DOPC  C21424286   1.254   1.963  14.296  0.1749  0.1093  0.1966
  196DOPC  H14R24287   1.165   1.952  14.230  0.7249  0.9765 -0.7282
  196DOPC  H14S24288   1.214   2.013  14.387 -0.4457  0.1958 -0.1203
  196DOPC  C21524289   1.316   1.827  14.345 -0.1058  0.1703  0.1228
  196DOPC  H15R24290   1.343   1.755  14.265 -3.1569 -0.4106 -0.5260
  196DOPC  H15S24291   1.242   1.773  14.409  0.1190 -0.5707 -0.2314
  196DOPC  C21624292   1.448   1.854  14.421  0.0932  0.8725 -0.0603
  196DOPC  H16R24293   1.441   1.942  14.488 -0.5184  0.5956  0.2477
  196DOPC  H16S24294   1.513   1.880  14.335 -0.5568 -1.2571 -1.2583
  196DOPC  C21724295   1.513   1.725  14.479  0.6362  0.9638 -0.7946
  196DOPC  H17R24296   1.529   1.654  14.395 -0.6591  1.6657 -1.6619
  196DOPC  H17S24297   1.440   1.679  14.549  1.5450 -1.2152 -1.1912
  196DOPC  C21824298   1.642   1.757  14.538  0.1272  0.8793  0.0482
  196DOPC  H18R24299   1.700   1.664  14.554  1.5980  1.9801  1.5102
  196DOPC  H18S24300   1.631   1.815  14.632  0.0596 -0.0969  0.6549
  196DOPC  H18T24301   1.699   1.819  14.465  1.1774  1.8744  1.6548
  196DOPC   C3324302   1.514   2.807  13.091  0.2868 -0.5012  0.5446
  196DOPC   H3X24303   1.450   2.857  13.016 -0.5130 -0.8134  1.0051
  196DOPC   H3Y24304   1.570   2.891  13.138 -0.5722  0.1199  0.4764
  196DOPC   C3424305   1.430   2.729  13.198 -0.5460 -0.4968 -0.3495
  196DOPC   H4X24306   1.465   2.625  13.186 -0.8116 -0.5058 -1.1101
  196DOPC   H4Y24307   1.326   2.726  13.160  0.2142  1.7754 -2.9221
  196DOPC   C3524308   1.443   2.797  13.330  0.3237  0.2281 -0.1820
  196DOPC   H5X24309   1.359   2.761  13.394 -0.2718 -1.0805 -1.6330
  196DOPC   H5Y24310   1.427   2.906  13.310 -1.2342  0.6817  2.8809
  196DOPC   C3624311   1.579   2.763  13.398  0.2289 -0.7496  0.2043
  196DOPC   H6X24312   1.665   2.771  13.329  0.2668 -0.6747  0.2599
  196DOPC   H6Y24313   1.595   2.836  13.480 -0.1471 -0.5689  0.1193
  196DOPC   C3724314   1.587   2.618  13.448 -0.4513  0.2282  0.0000
  196DOPC   H7X24315   1.565   2.550  13.364 -1.4999  0.5020  0.0399
  196DOPC   H7Y24316   1.694   2.609  13.479 -0.4425 -0.5515 -0.2553
  196DOPC   C3824317   1.489   2.580  13.561  0.8567  0.0112 -0.0831
  196DOPC   H8X24318   1.387   2.580  13.517  0.2104 -0.0126  1.3353
  196DOPC   H8Y24319   1.486   2.656  13.642 -0.2559  1.3996 -1.3596
  196DOPC   C3924320   1.507   2.440  13.621  0.5143 -0.1588  0.1706
  196DOPC   H9X24321   1.465   2.356  13.563 -0.7977  0.1972  0.5799
  196DOPC  C31024322   1.538   2.407  13.746 -0.5731  0.1123  0.6390
  196DOPC  H10X24323   1.565   2.300  13.748 -0.9078  0.0115 -0.0245
  196DOPC  C31124324   1.593   2.490  13.853  0.2777  0.1537 -0.5738
  196DOPC  H11X24325   1.508   2.526  13.915 -1.0568 -0.4193 -1.9854
  196DOPC  H11Y24326   1.650   2.577  13.814 -0.8174 -0.3138 -3.4517
  196DOPC  C31224327   1.692   2.422  13.946 -0.4528 -0.1419 -0.8693
  196DOPC  H12X24328   1.767   2.361  13.891  1.2002  0.9548  0.0902
  196DOPC  H12Y24329   1.629   2.347  13.998 -0.3699  0.5979  0.3302
  196DOPC  C31324330   1.749   2.509  14.060 -0.2189 -0.3932 -0.7183
  196DOPC  H13X24331   1.754   2.615  14.028  0.0934 -0.0201  0.4935
  196DOPC  H13Y24332   1.680   2.503  14.148 -0.0453  0.3023 -0.5314
  196DOPC  C31424333   1.879   2.456  14.117  0.6029  0.3207 -0.7775
  196DOPC  H14X24334   1.873   2.348  14.142  0.4421  0.2965 -0.9180
  196DOPC  H14Y24335   1.947   2.479  14.032 -0.3512  0.6389 -1.4728
  196DOPC  C31524336   1.932   2.519  14.247  0.1303 -0.4200  0.0264
  196DOPC  H15X24337   2.014   2.462  14.295  0.8168  1.5206  1.2768
  196DOPC  H15Y24338   1.853   2.515  14.325 -0.3735  0.7150 -0.3913
  196DOPC  C31624339   1.964   2.669  14.220 -0.2248  0.3430 -0.2294
  196DOPC  H16X24340   2.042   2.673  14.140  2.0710  0.9927  1.8955
  196DOPC  H16Y24341   1.870   2.718  14.187 -0.1145  0.2473 -0.6896
  196DOPC  C31724342   2.024   2.756  14.329 -0.2749  0.4831 -0.1581
  196DOPC  H17X24343   2.131   2.732  14.342 -0.6103 -1.4457 -0.5920
  196DOPC  H17Y24344   2.012   2.862  14.298  0.3083  0.8368  0.8107
  196DOPC  C31824345   1.951   2.747  14.471 -0.9647 -0.4178  0.4237
  196DOPC  H18X24346   1.927   2.642  14.498 -0.9811 -0.7216 -0.7174
  196DOPC  H18Y24347   2.012   2.797  14.550 -0.5292 -1.2175  0.6046
  196DOPC  H18Z24348   1.850   2.792  14.474 -1.0239 -0.5473  0.3558
  197DOPC     N24349   2.460   6.630  11.841  0.7152  0.2568  0.6509
  197DOPC   C1224350   2.415   6.631  11.990 -0.3020  0.3748  0.0486
  197DOPC  H12A24351   2.377   6.731  12.004  1.1290  0.9244  0.1754
  197DOPC  H12B24352   2.500   6.629  12.057  0.6730  2.6284 -1.0240
  197DOPC   C1324353   2.568   6.727  11.814  0.6479 -0.2356 -0.6231
  197DOPC  H13A24354   2.574   6.751  11.708  1.5669 -0.3686 -0.6014
  197DOPC  H13B24355   2.556   6.822  11.865 -0.4296 -0.9299  0.4631
  197DOPC  H13C24356   2.660   6.688  11.853 -0.0132  0.4798  1.7897
  197DOPC   C1424357   2.342   6.686  11.761 -0.5150  1.1937 -1.2297
  197DOPC  H14A24358   2.334   6.792  11.778 -0.5797  0.5697  4.4711
  197DOPC  H14B24359   2.357   6.672  11.655  1.5839 -1.6138 -0.6998
  197DOPC  H14C24360   2.253   6.634  11.793  0.1783  1.3560  1.1737
  197DOPC   C1524361   2.491   6.492  11.798 -0.2605  0.7013  0.1804
  197DOPC  H15A24362   2.447   6.410  11.854  1.3853 -0.0695  0.3991
  197DOPC  H15B24363   2.597   6.475  11.795 -0.3366  0.2914 -0.3457
  197DOPC  H15C24364   2.463   6.474  11.696 -0.3628 -1.5764  0.5626
  197DOPC   C1124365   2.305   6.524  12.038 -0.4921  0.0476 -0.2171
  197DOPC  H11A24366   2.340   6.426  11.999 -0.9526 -1.7791  3.5859
  197DOPC  H11B24367   2.295   6.514  12.148 -1.6014  0.3717 -0.2674
  197DOPC     P24368   2.071   6.664  12.042 -0.4391 -0.1788 -0.2923
  197DOPC   O1324369   1.937   6.608  12.018  0.2377  0.3802  0.0564
  197DOPC   O1424370   2.098   6.798  11.980 -0.5235 -0.2299 -0.1696
  197DOPC   O1224371   2.174   6.556  11.985  0.3323 -0.3316  0.6345
  197DOPC   O1124372   2.105   6.667  12.201  0.9983 -0.0780 -0.0431
  197DOPC    C124373   2.039   6.771  12.278 -0.7023  0.1647 -0.0302
  197DOPC    HA24374   1.931   6.787  12.256 -0.6843 -0.7945 -0.8886
  197DOPC    HB24375   2.099   6.864  12.272 -1.0343  0.2919 -2.0834
  197DOPC    C224376   2.051   6.728  12.429 -0.4964 -0.4176 -0.7724
  197DOPC    HS24377   1.986   6.796  12.488  1.0231 -0.3717  0.9616
  197DOPC   O2124378   2.188   6.746  12.460 -0.2077 -0.0927 -0.0555
  197DOPC   C2124379   2.216   6.792  12.574 -1.0741 -0.3129 -0.2257
  197DOPC   O2224380   2.149   6.853  12.654 -0.1412  0.0252  0.2884
  197DOPC   C2224381   2.354   6.751  12.611 -0.7307  0.2429 -0.2911
  197DOPC   H2R24382   2.389   6.828  12.684  1.3105  0.3925 -1.3429
  197DOPC   H2S24383   2.406   6.747  12.513 -0.4511 -0.4102 -0.1169
  197DOPC    C324384   2.011   6.579  12.449 -0.2345 -0.7129  0.2021
  197DOPC    HX24385   2.073   6.514  12.383  1.8801  0.9648  0.4126
  197DOPC    HY24386   1.907   6.573  12.412  0.2786  2.1303 -1.9999
  197DOPC   O3124387   2.018   6.531  12.582 -0.7819 -0.3064  0.3742
  197DOPC   C3124388   1.984   6.399  12.597  0.4866 -0.4679 -0.0157
  197DOPC   O3224389   1.965   6.325  12.500 -0.7158 -0.2619  0.3463
  197DOPC   C3224390   1.998   6.359  12.747  0.3199 -0.6328  0.4187
  197DOPC   H2X24391   2.088   6.296  12.760  1.1178 -0.0187 -1.6366
  197DOPC   H2Y24392   2.008   6.454  12.805  0.3254 -1.0606  1.1267
  197DOPC   C2324393   2.346   6.616  12.684  0.1419 -0.4624 -0.1274
  197DOPC   H3R24394   2.452   6.588  12.703 -0.0135 -0.8828  0.1222
  197DOPC   H3S24395   2.305   6.538  12.616 -0.9812 -0.6411  0.7258
  197DOPC   C2424396   2.279   6.620  12.822  0.3340  0.6565  0.8077
  197DOPC   H4R24397   2.175   6.643  12.791  0.5535 -0.9974 -1.3943
  197DOPC   H4S24398   2.319   6.705  12.881 -0.0173  0.9628  0.6121
  197DOPC   C2524399   2.294   6.482  12.904 -0.5730  0.3124 -0.2023
  197DOPC   H5R24400   2.399   6.461  12.936 -0.6606 -1.7115 -1.0781
  197DOPC   H5S24401   2.278   6.394  12.837 -1.2265 -0.5206  1.0171
  197DOPC   C2624402   2.215   6.447  13.032  0.3670  0.8886 -0.1608
  197DOPC   H6R24403   2.199   6.337  13.037  1.3175  0.7029 -1.0466
  197DOPC   H6S24404   2.114   6.495  13.029 -0.4959 -0.7848  0.6922
  197DOPC   C2724405   2.284   6.490  13.162 -0.4900  0.5868  0.0510
  197DOPC   H7R24406   2.339   6.585  13.145  0.1050  0.1511 -0.4879
  197DOPC   H7S24407   2.354   6.413  13.198  0.2302  1.4049  0.4441
  197DOPC   C2824408   2.179   6.524  13.271  0.5162  1.1306  0.0044
  197DOPC   H8R24409   2.115   6.593  13.212  0.5980 -0.3216 -1.8726
  197DOPC   H8S24410   2.227   6.577  13.356 -0.2094 -1.3221  2.0823
  197DOPC   C2924411   2.106   6.397  13.319 -1.1491 -0.3802  0.9790
  197DOPC   H9R24412   2.052   6.349  13.236 -0.2346  0.9410 -0.4127
  197DOPC  C21024413   2.085   6.369  13.448  1.1207 -0.1640  0.0956
  197DOPC  H10R24414   2.025   6.279  13.469 -1.0085  1.3110  0.7160
  197DOPC  C21124415   2.132   6.449  13.562 -0.6764  0.2094 -0.2345
  197DOPC  H11R24416   2.096   6.554  13.558 -2.8059 -0.2533  2.7930
  197DOPC  H11S24417   2.242   6.461  13.549 -0.1817 -1.9732  1.3176
  197DOPC  C21224418   2.102   6.381  13.701  0.2261  0.1986 -0.3029
  197DOPC  H12R24419   2.117   6.271  13.697 -0.5815 -0.0138  1.6535
  197DOPC  H12S24420   1.998   6.406  13.728 -0.3424 -1.2430 -1.0645
  197DOPC  C21324421   2.198   6.441  13.811  0.3381  0.1647  0.0143
  197DOPC  H13R24422   2.166   6.544  13.839 -2.5195 -1.2558  2.5933
  197DOPC  H13S24423   2.301   6.444  13.770 -0.1751 -0.3931 -1.3576
  197DOPC  C21424424   2.207   6.366  13.945 -0.4109  0.4307 -0.4546
  197DOPC  H14R24425   2.203   6.262  13.906  3.2606  0.8255 -2.3015
  197DOPC  H14S24426   2.119   6.389  14.008  0.5898  1.2538  0.6847
  197DOPC  C21524427   2.331   6.395  14.028 -1.1497 -0.9247  0.4081
  197DOPC  H15R24428   2.336   6.502  14.057 -2.7705 -0.5759 -0.4784
  197DOPC  H15S24429   2.426   6.382  13.973 -1.5333  0.0352 -0.5259
  197DOPC  C21624430   2.341   6.305  14.147 -0.2008  0.4594 -0.7307
  197DOPC  H16R24431   2.439   6.317  14.197 -1.4461  0.7296  1.8426
  197DOPC  H16S24432   2.337   6.198  14.118  0.4434 -0.1270  1.1771
  197DOPC  C21724433   2.227   6.323  14.257 -0.3174  0.4436  0.2005
  197DOPC  H17R24434   2.132   6.292  14.208  2.4163 -4.1209 -2.9828
  197DOPC  H17S24435   2.225   6.431  14.284 -0.3721  0.7250 -0.8582
  197DOPC  C21824436   2.253   6.245  14.383  0.1735 -0.2733 -0.6712
  197DOPC  H18R24437   2.361   6.254  14.408  0.2571  0.6853 -1.3391
  197DOPC  H18S24438   2.220   6.141  14.366  1.7349 -0.5279 -2.4194
  197DOPC  H18T24439   2.193   6.293  14.463  1.0548  0.1958 -0.2784
  197DOPC   C3324440   1.865   6.286  12.777 -0.6120 -0.4503  0.0139
  197DOPC   H3X24441   1.843   6.216  12.693 -0.1155 -0.1138 -0.4064
  197DOPC   H3Y24442   1.777   6.354  12.774 -0.6539 -0.5049 -2.5394
  197DOPC   C3424443   1.871   6.206  12.911 -0.3388 -0.2162  0.0009
  197DOPC   H4X24444   1.804   6.242  12.992 -1.1388  1.3195 -1.2917
  197DOPC   H4Y24445   1.977   6.211  12.944 -0.8714  0.8489  1.6665
  197DOPC   C3524446   1.843   6.063  12.903 -0.0751 -0.6237  0.8334
  197DOPC   H5X24447   1.896   6.029  12.811  0.3956 -1.3705  1.3699
  197DOPC   H5Y24448   1.739   6.043  12.870  0.0758 -2.2234  1.2804
  197DOPC   C3624449   1.871   5.974  13.026  0.3414  0.2955  0.0077
  197DOPC   H6X24450   1.849   5.867  13.006  0.8381 -0.2247  2.0553
  197DOPC   H6Y24451   1.979   5.973  13.053  0.2223 -1.1337  0.4932
  197DOPC   C3724452   1.799   6.024  13.150  0.3341  0.4522  1.0280
  197DOPC   H7X24453   1.842   6.125  13.166 -0.1754  1.0500 -0.9820
  197DOPC   H7Y24454   1.696   6.041  13.112  0.3837 -2.0072 -0.4489
  197DOPC   C3824455   1.799   5.932  13.273 -0.1807 -0.0195 -0.2575
  197DOPC   H8X24456   1.761   5.834  13.236 -2.0376  0.6265 -0.1820
  197DOPC   H8Y24457   1.730   5.988  13.339  0.5367  0.3563  0.1841
  197DOPC   C3924458   1.936   5.912  13.330  0.7218 -0.4465 -0.2153
  197DOPC   H9X24459   2.015   5.874  13.263 -0.3320 -1.2597 -1.0306
  197DOPC  C31024460   1.966   5.936  13.458  0.3741  0.5999 -0.1123
  197DOPC  H10X24461   2.069   5.922  13.496 -0.3157  0.2151  1.7494
  197DOPC  C31124462   1.871   5.968  13.569  0.1704  0.0438 -0.7125
  197DOPC  H11X24463   1.772   5.919  13.556  0.3076 -0.5788  0.4914
  197DOPC  H11Y24464   1.869   6.076  13.596  0.8412  0.1853 -1.1825
  197DOPC  C31224465   1.921   5.890  13.695 -0.7345 -0.3132  0.6772
  197DOPC  H12X24466   1.919   5.779  13.688  4.9306 -0.7554  1.0531
  197DOPC  H12Y24467   1.848   5.898  13.779 -1.6277 -0.2748 -0.0858
  197DOPC  C31324468   2.070   5.931  13.744 -0.0357 -0.0436  0.7799
  197DOPC  H13X24469   2.148   5.860  13.707  0.4295  0.8843 -0.0506
  197DOPC  H13Y24470   2.101   6.034  13.717  0.8942 -0.4324  0.2928
  197DOPC  C31424471   2.085   5.908  13.890  0.6757 -0.7296 -0.4633
  197DOPC  H14X24472   2.002   5.959  13.944 -0.3212 -2.8125  0.0775
  197DOPC  H14Y24473   2.061   5.803  13.917  0.1134 -0.2365  1.0626
  197DOPC  C31524474   2.215   5.946  13.953  0.3644  0.0972 -0.2927
  197DOPC  H15X24475   2.230   6.055  13.935 -1.2089  0.4139  0.1857
  197DOPC  H15Y24476   2.304   5.903  13.902  0.2636  1.0810 -1.3463
  197DOPC  C31624477   2.219   5.912  14.106 -0.1055  0.6862  0.0256
  197DOPC  H16X24478   2.317   5.953  14.137  0.2238 -0.6518  0.8337
  197DOPC  H16Y24479   2.132   5.958  14.158 -0.5413  2.6010 -2.2252
  197DOPC  C31724480   2.225   5.757  14.127 -0.1727 -0.1385  0.5685
  197DOPC  H17X24481   2.134   5.714  14.079 -0.8098  1.6739  0.0862
  197DOPC  H17Y24482   2.313   5.721  14.071  0.4183  0.4731  1.0783
  197DOPC  C31824483   2.237   5.705  14.275  0.4082 -0.2767 -0.1374
  197DOPC  H18X24484   2.339   5.730  14.310  1.0081 -3.7556  0.9885
  197DOPC  H18Y24485   2.154   5.741  14.339  0.5148 -0.0746 -0.1109
  197DOPC  H18Z24486   2.223   5.595  14.283 -1.7808  0.0026  0.5467
  198DOPC     N24487   6.540   1.158  11.621  0.8070  0.0972  0.4387
  198DOPC   C1224488   6.461   1.114  11.749  0.9183 -0.2214  0.1671
  198DOPC  H12A24489   6.371   1.065  11.716  0.9781 -1.1551  1.3255
  198DOPC  H12B24490   6.428   1.203  11.801  0.8390  1.6745 -2.8632
  198DOPC   C1324491   6.572   1.041  11.539  0.1910  0.0702 -0.4631
  198DOPC  H13A24492   6.639   1.059  11.456 -0.9777 -0.6569 -1.5937
  198DOPC  H13B24493   6.618   0.962  11.596  1.3005 -0.3473 -1.8492
  198DOPC  H13C24494   6.487   0.993  11.493  0.3706 -0.2723 -0.4457
  198DOPC   C1424495   6.667   1.234  11.660 -0.8161  0.8201  0.2647
  198DOPC  H14A24496   6.635   1.316  11.723  2.1865  1.1068  1.5998
  198DOPC  H14B24497   6.730   1.167  11.717 -1.6472 -0.6597 -0.5167
  198DOPC  H14C24498   6.720   1.278  11.577 -1.0322 -2.1137 -1.5712
  198DOPC   C1524499   6.461   1.256  11.536 -0.1051 -0.6930  0.1589
  198DOPC  H15A24500   6.531   1.282  11.458 -1.1352 -0.0075 -0.5573
  198DOPC  H15B24501   6.416   1.339  11.588  0.9777 -1.8193  3.1105
  198DOPC  H15C24502   6.385   1.206  11.479 -1.7086  2.6489 -0.8425
  198DOPC   C1124503   6.513   1.005  11.846  0.1182 -0.3963 -0.5720
  198DOPC  H11A24504   6.457   1.009  11.942  2.2852  1.7300  0.7204
  198DOPC  H11B24505   6.495   0.907  11.798 -0.7264 -0.8326  0.5736
  198DOPC     P24506   6.765   0.921  11.890 -0.2594 -0.3160 -0.0322
  198DOPC   O1324507   6.890   0.999  11.883  0.4822  0.7200 -0.3495
  198DOPC   O1424508   6.741   0.811  11.796 -0.2461  0.1978  0.4048
  198DOPC   O1224509   6.652   1.032  11.881  0.3284  0.4981 -0.2005
  198DOPC   O1124510   6.756   0.867  12.035  0.5177  0.8373 -0.3281
  198DOPC    C124511   6.621   0.846  12.087  0.4388  0.2475 -0.2790
  198DOPC    HA24512   6.568   0.776  12.020  1.5058 -1.6933  0.8320
  198DOPC    HB24513   6.568   0.942  12.106  1.0402  0.7792 -1.1860
  198DOPC    C224514   6.617   0.764  12.219 -0.0489  0.5146  0.0499
  198DOPC    HS24515   6.507   0.767  12.234 -0.1965  1.7405 -1.0249
  198DOPC   O2124516   6.697   0.822  12.329 -0.1852  0.2659 -0.4693
  198DOPC   C2124517   6.642   0.812  12.455 -0.2265  1.5821  0.0983
  198DOPC   O2224518   6.540   0.748  12.479 -0.0934  0.4065 -0.2643
  198DOPC   C2224519   6.727   0.894  12.551 -0.0854 -0.7998  0.2516
  198DOPC   H2R24520   6.731   0.999  12.516 -1.6468 -0.7208  0.2269
  198DOPC   H2S24521   6.827   0.846  12.547 -1.4646 -3.8414 -2.7979
  198DOPC    C324522   6.664   0.619  12.188 -0.0592  1.0993 -1.0782
  198DOPC    HX24523   6.774   0.623  12.172  0.2232 -1.0030  0.0677
  198DOPC    HY24524   6.628   0.583  12.089 -0.8443 -2.4063  0.3518
  198DOPC   O3124525   6.631   0.523  12.290  0.5292  0.0395  0.4312
  198DOPC   C3124526   6.727   0.444  12.334 -0.3815 -0.3372  0.4096
  198DOPC   O3224527   6.842   0.435  12.288  0.2570 -0.0450  0.4932
  198DOPC   C3224528   6.660   0.354  12.435 -0.3824 -0.7072  0.5651
  198DOPC   H2X24529   6.562   0.394  12.466 -0.9955 -1.1502 -0.7365
  198DOPC   H2Y24530   6.642   0.256  12.387  2.7562 -0.9030 -0.4777
  198DOPC   C2324531   6.677   0.894  12.694  0.8946 -0.5313 -0.7519
  198DOPC   H3R24532   6.570   0.922  12.686  0.0473 -2.7498  1.3562
  198DOPC   H3S24533   6.730   0.969  12.757 -0.9274  0.5383 -0.4468
  198DOPC   C2424534   6.701   0.753  12.747  0.0224 -0.4440  0.3737
  198DOPC   H4R24535   6.804   0.714  12.728  0.4365  0.2285  1.1636
  198DOPC   H4S24536   6.637   0.679  12.696 -0.2273  0.0052  0.0250
  198DOPC   C2524537   6.651   0.740  12.893  0.2122 -0.1653 -0.0831
  198DOPC   H5R24538   6.541   0.750  12.890  0.3817  1.8089 -2.0197
  198DOPC   H5S24539   6.687   0.832  12.944  1.5767 -0.6572 -0.1091
  198DOPC   C2624540   6.674   0.605  12.970  0.1163  0.2164  0.0750
  198DOPC   H6R24541   6.781   0.606  12.996  0.0603 -1.2131  0.4573
  198DOPC   H6S24542   6.658   0.525  12.894  1.0410  0.5523 -0.4814
  198DOPC   C2724543   6.590   0.593  13.101 -0.4823  1.1065  0.1967
  198DOPC   H7R24544   6.485   0.616  13.074 -0.1859 -0.7817 -3.1279
  198DOPC   H7S24545   6.625   0.675  13.166 -1.6213  1.3259  0.5456
  198DOPC   C2824546   6.614   0.450  13.158 -0.5492 -0.5182 -0.6241
  198DOPC   H8R24547   6.722   0.430  13.137  0.1943  0.4948  1.8225
  198DOPC   H8S24548   6.550   0.372  13.112  0.5432 -1.9159  0.1492
  198DOPC   C2924549   6.580   0.453  13.302  0.3309 -0.2093 -0.0703
  198DOPC   H9R24550   6.576   0.557  13.338 -0.2895  0.3297 -1.5981
  198DOPC  C21024551   6.538   0.344  13.367  0.1590  0.6049  0.2479
  198DOPC  H10R24552   6.520   0.354  13.475  0.9250 -2.8820  0.8260
  198DOPC  C21124553   6.529   0.207  13.307  0.0346  0.5016 -0.0035
  198DOPC  H11R24554   6.625   0.187  13.254  0.0098 -0.5395  0.3140
  198DOPC  H11S24555   6.455   0.205  13.224 -1.2267  1.5507  1.0522
  198DOPC  C21224556   6.512   0.090  13.411 -0.1272 -0.4766  0.0559
  198DOPC  H12R24557   6.514  -0.014  13.373  0.3765 -1.1666  1.9093
  198DOPC  H12S24558   6.417   0.101  13.468 -0.1150 -0.9629  0.1705
  198DOPC  C21324559   6.620   0.079  13.511  0.7127  0.2554 -0.0059
  198DOPC  H13R24560   6.637   0.167  13.577  1.0196 -0.6879  1.2367
  198DOPC  H13S24561   6.721   0.074  13.467  0.6393 -1.7985 -0.0477
  198DOPC  C21424562   6.591  -0.034  13.615  0.3368 -0.1797  1.2574
  198DOPC  H14R24563   6.601  -0.134  13.568  0.9429  0.7396 -0.6533
  198DOPC  H14S24564   6.484  -0.021  13.641  0.3770  0.4994  1.1112
  198DOPC  C21524565   6.680  -0.024  13.733  0.3943 -0.4866  0.4082
  198DOPC  H15R24566   6.657   0.068  13.791  0.2579  0.1543 -0.6544
  198DOPC  H15S24567   6.780  -0.018  13.686 -0.0109 -0.6875 -0.5003
  198DOPC  C21624568   6.682  -0.153  13.814  0.2977  0.0144 -0.0358
  198DOPC  H16R24569   6.787  -0.170  13.847  0.0802 -1.0079  0.1547
  198DOPC  H16S24570   6.642  -0.235  13.751  2.4859 -1.4306  0.3294
  198DOPC  C21724571   6.598  -0.158  13.948  0.3810  0.0474  0.0853
  198DOPC  H17R24572   6.569  -0.263  13.968  1.3846 -0.4558 -0.9841
  198DOPC  H17S24573   6.506  -0.099  13.931  0.6528 -0.0095 -1.7925
  198DOPC  C21824574   6.677  -0.102  14.067  0.3220 -0.4449  0.1251
  198DOPC  H18R24575   6.690   0.006  14.047 -0.2898 -0.7534 -2.2809
  198DOPC  H18S24576   6.772  -0.159  14.079 -0.2615 -1.3259  0.7162
  198DOPC  H18T24577   6.616  -0.107  14.159 -0.8597 -2.2327 -0.7036
  198DOPC   C3324578   6.747   0.324  12.560  0.6259 -0.1654  1.0429
  198DOPC   H3X24579   6.817   0.410  12.576  0.6278  0.1717 -0.6009
  198DOPC   H3Y24580   6.819   0.244  12.534  1.4458  0.5350  1.1053
  198DOPC   C3424581   6.659   0.264  12.670 -1.1628 -0.7719 -0.4444
  198DOPC   H4X24582   6.615   0.169  12.633 -1.3635 -0.4242 -1.1151
  198DOPC   H4Y24583   6.580   0.337  12.698 -1.7689 -0.4402 -2.8211
  198DOPC   C3524584   6.737   0.220  12.794 -0.8553 -0.1885 -0.4674
  198DOPC   H5X24585   6.781   0.308  12.846  2.2891 -0.7935 -1.8524
  198DOPC   H5Y24586   6.826   0.167  12.753 -1.2162 -0.3975 -0.9863
  198DOPC   C3624587   6.654   0.132  12.879  0.2893 -0.2310 -0.6064
  198DOPC   H6X24588   6.577   0.201  12.918  1.9558  1.4033 -0.0648
  198DOPC   H6Y24589   6.615   0.049  12.816 -0.6724 -0.7163  0.5914
  198DOPC   C3724590   6.726   0.060  12.998  0.0187 -0.2336 -0.6404
  198DOPC   H7X24591   6.822   0.013  12.969  1.3874  0.9960  1.5297
  198DOPC   H7Y24592   6.751   0.143  13.068 -0.2615  0.9282 -1.8852
  198DOPC   C3824593   6.641  -0.042  13.072 -0.3273  0.1852  0.3255
  198DOPC   H8X24594   6.617  -0.123  12.999  1.3184 -0.9051  0.9448
  198DOPC   H8Y24595   6.546   0.008  13.101  0.6090  2.1236  0.2465
  198DOPC   C3924596   6.707  -0.095  13.195  0.3172  0.2728 -0.3795
  198DOPC   H9X24597   6.785  -0.031  13.240  1.8517 -3.2748  2.4571
  198DOPC  C31024598   6.708  -0.219  13.249  0.1543  0.3641  0.0956
  198DOPC  H10X24599   6.768  -0.239  13.339 -0.2323  1.3866  0.6068
  198DOPC  C31124600   6.635  -0.345  13.205  0.0812 -0.7102  0.0804
  198DOPC  H11X24601   6.713  -0.417  13.173  0.5088  0.3143 -1.2571
  198DOPC  H11Y24602   6.584  -0.317  13.110  0.5304  0.6058  0.2230
  198DOPC  C31224603   6.537  -0.419  13.300  0.5431 -0.1810 -0.3820
  198DOPC  H12X24604   6.490  -0.504  13.247  0.3195 -1.4942  1.7920
  198DOPC  H12Y24605   6.445  -0.359  13.318  2.4500  2.9907 -0.5372
  198DOPC  C31324606   6.585  -0.465  13.438 -0.5657 -0.0929  0.4896
  198DOPC  H13X24607   6.666  -0.540  13.421 -0.5178  0.3026 -1.2296
  198DOPC  H13Y24608   6.636  -0.387  13.498 -1.3333  0.6490  0.1939
  198DOPC  C31424609   6.468  -0.530  13.521 -0.8924 -0.4072  0.4135
  198DOPC  H14X24610   6.387  -0.455  13.536 -1.0148 -0.4726  0.0866
  198DOPC  H14Y24611   6.424  -0.612  13.460 -0.8310 -2.6904  3.2111
  198DOPC  C31524612   6.505  -0.594  13.652 -0.3704  0.2353  0.1143
  198DOPC  H15X24613   6.597  -0.652  13.628 -0.9362 -0.7504  0.2767
  198DOPC  H15Y24614   6.426  -0.669  13.673  1.6277 -1.5301  1.8826
  198DOPC  C31624615   6.517  -0.503  13.781 -0.5612 -0.1955 -0.0835
  198DOPC  H16X24616   6.606  -0.439  13.766  0.7316 -2.4476 -3.1798
  198DOPC  H16Y24617   6.425  -0.440  13.781  1.0988  2.4020 -1.6705
  198DOPC  C31724618   6.522  -0.574  13.918 -0.5356  0.2750 -0.5250
  198DOPC  H17X24619   6.613  -0.637  13.923  0.4027  1.5720 -0.6816
  198DOPC  H17Y24620   6.554  -0.496  13.990  1.9309 -1.8077  0.7618
  198DOPC  C31824621   6.390  -0.643  13.960 -0.4194  0.0009  0.0497
  198DOPC  H18X24622   6.303  -0.588  13.920 -0.5970  0.0126  0.4469
  198DOPC  H18Y24623   6.393  -0.747  13.920  2.3996  0.0015  0.0206
  198DOPC  H18Z24624   6.380  -0.655  14.070  0.2286  0.5147  0.1707
  199DOPC     N24625   6.127   0.375  11.762 -0.3094  0.6884  0.0980
  199DOPC   C1224626   6.082   0.480  11.862 -0.9291 -0.3041  0.1236
  199DOPC  H12A24627   6.171   0.534  11.890  0.1506 -0.6328 -2.3962
  199DOPC  H12B24628   6.047   0.450  11.960 -1.8358  1.3178  0.3418
  199DOPC   C1324629   6.163   0.441  11.629  0.2403  0.2501 -0.0546
  199DOPC  H13A24630   6.215   0.369  11.568 -0.6108  0.0956 -0.6160
  199DOPC  H13B24631   6.078   0.482  11.577  0.5912  2.4437  1.0030
  199DOPC  H13C24632   6.231   0.522  11.652 -0.4164  0.7456  0.1945
  199DOPC   C1424633   6.020   0.276  11.732  0.5143  0.2337  0.0906
  199DOPC  H14A24634   5.928   0.320  11.697  0.4295  0.3985  0.5091
  199DOPC  H14B24635   6.051   0.216  11.648  0.3803 -0.5378  0.5876
  199DOPC  H14C24636   5.997   0.214  11.818 -1.4346  1.0685  0.2045
  199DOPC   C1524637   6.252   0.304  11.807  0.0239  0.4181 -0.2309
  199DOPC  H15A24638   6.337   0.368  11.821  0.5086  0.1007 -1.5312
  199DOPC  H15B24639   6.266   0.224  11.736 -1.4751 -0.7370  0.7023
  199DOPC  H15C24640   6.228   0.242  11.892  0.2336  0.2808 -0.2700
  199DOPC   C1124641   5.978   0.589  11.816 -0.0563  0.0241  0.5282
  199DOPC  H11A24642   5.978   0.675  11.886  1.4561  1.8552 -1.5902
  199DOPC  H11B24643   6.012   0.632  11.719 -2.0306 -0.8241 -0.6061
  199DOPC     P24644   5.757   0.490  11.911  0.3115 -0.1957  0.2128
  199DOPC   O1324645   5.716   0.350  11.884 -0.3838 -0.0633 -0.0846
  199DOPC   O1424646   5.648   0.587  11.927  0.0213  0.1175  0.0756
  199DOPC   O1224647   5.847   0.543  11.796  0.1704  0.1568 -0.1654
  199DOPC   O1124648   5.850   0.490  12.040 -0.0707 -0.1921 -0.2889
  199DOPC    C124649   5.793   0.446  12.161 -0.5790  0.7747  0.0751
  199DOPC    HA24650   5.694   0.397  12.144 -0.4324  0.7715 -0.8107
  199DOPC    HB24651   5.766   0.528  12.231  1.5893  1.0339  0.6856
  199DOPC    C224652   5.874   0.333  12.228  0.3261 -0.1659 -0.0841
  199DOPC    HS24653   5.894   0.265  12.142 -1.7860 -0.3061 -0.5229
  199DOPC   O2124654   5.795   0.267  12.330  0.2621  0.1892  0.1036
  199DOPC   C2124655   5.857   0.171  12.393  0.5788  0.3071  0.5488
  199DOPC   O2224656   5.970   0.132  12.378 -0.6192 -0.0210  0.5698
  199DOPC   C2224657   5.761   0.106  12.494 -0.0232  0.3289 -0.3900
  199DOPC   H2R24658   5.754   0.002  12.456  1.6214  0.3295 -0.7654
  199DOPC   H2S24659   5.660   0.153  12.500  0.0869  0.4132  0.9766
  199DOPC    C324660   6.001   0.410  12.285 -0.7703 -0.0054  0.7550
  199DOPC    HX24661   6.047   0.459  12.196 -0.6326 -2.4754 -0.6404
  199DOPC    HY24662   6.083   0.337  12.304 -0.5396 -0.0839 -0.4295
  199DOPC   O3124663   5.974   0.500  12.392 -0.0405  0.5459 -0.4701
  199DOPC   C3124664   5.993   0.457  12.511 -0.0202  1.2094 -0.4361
  199DOPC   O3224665   6.047   0.351  12.545  0.4331  0.7047 -0.2920
  199DOPC   C3224666   5.934   0.564  12.612 -0.8095 -0.1855  0.0487
  199DOPC   H2X24667   6.011   0.636  12.649 -0.6497  0.3229 -1.2076
  199DOPC   H2Y24668   5.860   0.626  12.556  0.5440  0.2915 -1.2655
  199DOPC   C2324669   5.822   0.119  12.639  0.2472  0.4208  0.3613
  199DOPC   H3R24670   5.862   0.220  12.663  0.7007 -0.3196  3.1299
  199DOPC   H3S24671   5.910   0.053  12.632 -0.3131 -0.1868 -1.6842
  199DOPC   C2424672   5.724   0.052  12.738  0.0133  0.1414  0.3844
  199DOPC   H4R24673   5.709  -0.051  12.700  0.7977  0.0197  0.3921
  199DOPC   H4S24674   5.631   0.113  12.732  0.3466  0.5125 -2.3550
  199DOPC   C2524675   5.790   0.034  12.881  0.3914 -0.6600  0.0974
  199DOPC   H5R24676   5.888  -0.013  12.861  0.5494  0.2634 -1.4793
  199DOPC   H5S24677   5.731  -0.038  12.942 -0.8960  0.4687  0.2297
  199DOPC   C2624678   5.794   0.169  12.968 -0.2900 -0.2999  0.7384
  199DOPC   H6R24679   5.724   0.236  12.913  0.4842  0.9520  1.2398
  199DOPC   H6S24680   5.896   0.206  12.943  0.5352 -2.8279  0.0683
  199DOPC   C2724681   5.757   0.151  13.112 -0.4043 -0.3513 -0.6664
  199DOPC   H7R24682   5.655   0.110  13.126 -1.0149  1.6689  1.4611
  199DOPC   H7S24683   5.776   0.254  13.150  1.1214 -1.1436  0.8811
  199DOPC   C2824684   5.866   0.064  13.187  0.1693 -0.6588 -1.0117
  199DOPC   H8R24685   5.967   0.106  13.167 -0.9088  1.6702 -1.8565
  199DOPC   H8S24686   5.865  -0.030  13.127  1.8027 -0.3436 -1.6036
  199DOPC   C2924687   5.823   0.043  13.328  0.0997 -0.9077  0.0082
  199DOPC   H9R24688   5.730  -0.014  13.344  0.9618 -1.6743  2.9907
  199DOPC  C21024689   5.888   0.091  13.433 -1.1583  0.7125  0.4746
  199DOPC  H10R24690   5.857   0.064  13.535 -1.4274  0.2090  0.2610
  199DOPC  C21124691   6.012   0.177  13.423 -0.5361 -0.7294  0.2443
  199DOPC  H11R24692   6.065   0.152  13.329 -1.6741 -3.4886  0.2406
  199DOPC  H11S24693   6.083   0.134  13.496 -1.7391 -1.9481  0.7382
  199DOPC  C21224694   5.986   0.328  13.436 -0.0137  0.3686 -0.0026
  199DOPC  H12R24695   5.946   0.327  13.539 -0.7427 -0.1649 -0.2832
  199DOPC  H12S24696   5.906   0.367  13.370 -0.4142 -1.4240 -0.6255
  199DOPC  C21324697   6.108   0.417  13.440 -0.1178 -0.1545  0.5804
  199DOPC  H13R24698   6.202   0.364  13.466  0.3035  1.1789  1.9895
  199DOPC  H13S24699   6.085   0.482  13.527  0.8162  0.8160  0.1236
  199DOPC  C21424700   6.128   0.501  13.321  0.0277 -0.4787 -0.1136
  199DOPC  H14R24701   6.214   0.569  13.342  0.2703 -0.9556  0.4654
  199DOPC  H14S24702   6.040   0.567  13.309  0.2612  0.3001  2.0534
  199DOPC  C21524703   6.159   0.421  13.192 -0.0243  1.1947  0.6287
  199DOPC  H15R24704   6.082   0.342  13.174 -0.0128  1.4075 -0.3749
  199DOPC  H15S24705   6.258   0.374  13.206  1.0637  2.8119 -1.1659
  199DOPC  C21624706   6.169   0.498  13.060  0.1883  0.6817 -0.0278
  199DOPC  H16R24707   6.228   0.590  13.080 -0.4087  1.3103 -1.1040
  199DOPC  H16S24708   6.070   0.538  13.028  0.0381 -1.2272 -2.2315
  199DOPC  C21724709   6.233   0.421  12.942 -0.2786 -0.1545  0.0035
  199DOPC  H17R24710   6.154   0.349  12.911 -0.0032 -0.7311  0.6097
  199DOPC  H17S24711   6.326   0.371  12.975 -1.1913 -2.7491 -1.0668
  199DOPC  C21824712   6.263   0.503  12.817  0.1314 -0.2226 -0.7574
  199DOPC  H18R24713   6.333   0.452  12.748  0.4612  0.2782 -0.7985
  199DOPC  H18S24714   6.327   0.590  12.844  2.3130 -1.5826 -1.2990
  199DOPC  H18T24715   6.164   0.518  12.769  0.3397  0.1652 -1.0745
  199DOPC   C3324716   5.874   0.507  12.740 -0.0062 -0.0703 -0.9142
  199DOPC   H3X24717   5.949   0.445  12.793 -1.1410  0.7611  1.8625
  199DOPC   H3Y24718   5.781   0.454  12.711  0.5313 -1.0679 -0.8720
  199DOPC   C3424719   5.838   0.605  12.850 -0.1089  0.5459 -0.1252
  199DOPC   H4X24720   5.772   0.687  12.814 -1.7137 -1.0333 -0.8945
  199DOPC   H4Y24721   5.932   0.646  12.894 -0.1973 -1.3299  1.9641
  199DOPC   C3524722   5.757   0.516  12.950 -0.2836  0.1283  0.3476
  199DOPC   H5X24723   5.827   0.434  12.975  2.5259  2.3174  0.1213
  199DOPC   H5Y24724   5.660   0.481  12.907  0.2002  0.9277 -1.5029
  199DOPC   C3624725   5.733   0.597  13.079  0.1904 -0.1415  0.3520
  199DOPC   H6X24726   5.831   0.648  13.090 -0.5816  1.1760  1.3970
  199DOPC   H6Y24727   5.658   0.673  13.048 -0.8040 -0.9713  0.6671
  199DOPC   C3724728   5.702   0.519  13.208 -0.3129 -0.6805  0.3902
  199DOPC   H7X24729   5.618   0.447  13.201 -0.0204 -0.8736 -1.6116
  199DOPC   H7Y24730   5.793   0.462  13.235  0.3353  0.2112  0.1112
  199DOPC   C3824731   5.652   0.599  13.328 -0.1636 -0.0042 -0.5491
  199DOPC   H8X24732   5.629   0.534  13.415 -0.7422 -1.1624 -1.5249
  199DOPC   H8Y24733   5.556   0.649  13.305 -0.6826 -0.2617  1.0036
  199DOPC   C3924734   5.742   0.709  13.386  0.7732  0.3113 -0.4500
  199DOPC   H9X24735   5.785   0.770  13.306 -0.6540  0.2384 -1.3192
  199DOPC  C31024736   5.796   0.722  13.507 -0.6334 -0.1474  0.1711
  199DOPC  H10X24737   5.840   0.817  13.541 -1.3000 -0.7863  3.0861
  199DOPC  C31124738   5.784   0.628  13.622  0.1846  0.1671 -0.5405
  199DOPC  H11X24739   5.833   0.535  13.585 -0.0296 -0.2189  0.1281
  199DOPC  H11Y24740   5.679   0.599  13.642  0.5686 -2.2878 -1.6361
  199DOPC  C31224741   5.833   0.687  13.758  0.1328  0.1966  0.4760
  199DOPC  H12X24742   5.774   0.775  13.791 -0.3715 -0.5169  1.5513
  199DOPC  H12Y24743   5.938   0.717  13.742  0.4135 -1.5018 -1.1741
  199DOPC  C31324744   5.831   0.588  13.869 -0.7315 -0.2279 -0.2484
  199DOPC  H13X24745   5.734   0.534  13.878 -0.2874 -0.9447  0.3740
  199DOPC  H13Y24746   5.897   0.505  13.837  2.6275  2.3046 -0.4141
  199DOPC  C31424747   5.868   0.648  14.003  0.7135  0.0749  0.4174
  199DOPC  H14X24748   5.882   0.557  14.066  2.2370 -0.3409 -0.4773
  199DOPC  H14Y24749   5.964   0.703  13.998  0.3290  0.8009  0.7562
  199DOPC  C31524750   5.757   0.740  14.056 -0.4331 -0.2488 -0.2941
  199DOPC  H15X24751   5.660   0.694  14.026 -0.5723 -0.7304  0.8055
  199DOPC  H15Y24752   5.776   0.841  14.014  1.4014 -0.8924 -1.0922
  199DOPC  C31624753   5.748   0.731  14.210  0.8216 -0.3529 -0.4951
  199DOPC  H16X24754   5.739   0.625  14.244  1.4282 -0.3012 -0.1584
  199DOPC  H16Y24755   5.840   0.773  14.256  1.0746 -0.7297 -0.6476
  199DOPC  C31724756   5.624   0.799  14.270 -0.4994  0.2317 -0.0180
  199DOPC  H17X24757   5.525   0.754  14.249 -0.7262 -1.1843  3.4622
  199DOPC  H17Y24758   5.615   0.781  14.379  0.6588  0.8137  0.1825
  199DOPC  C31824759   5.625   0.951  14.253 -0.1894 -0.0102  0.1816
  199DOPC  H18X24760   5.631   0.976  14.145  0.3037  1.5943  0.5541
  199DOPC  H18Y24761   5.530   0.992  14.294  0.8913  1.0597  1.7172
  199DOPC  H18Z24762   5.708   0.999  14.308  1.9737 -1.9038 -1.2205
  200DOPC     N24763   1.150   1.352  12.396  0.4143 -0.4893 -0.0894
  200DOPC   C1224764   1.071   1.480  12.376  0.6181  0.0377  0.5209
  200DOPC  H12A24765   0.967   1.452  12.383  0.0169  2.4377  3.3680
  200DOPC  H12B24766   1.094   1.516  12.277 -0.1459 -0.7934  0.0353
  200DOPC   C1324767   1.085   1.243  12.310 -0.1124 -0.2522 -0.0026
  200DOPC  H13A24768   0.985   1.227  12.348  0.6111 -2.0191  1.3013
  200DOPC  H13B24769   1.071   1.276  12.208  0.0256 -0.1135  0.0229
  200DOPC  H13C24770   1.149   1.156  12.314  3.1674  1.9827 -0.0347
  200DOPC   C1424771   1.147   1.305  12.536 -0.2494 -0.0318 -0.2667
  200DOPC  H14A24772   1.205   1.373  12.596 -0.2305  0.7156 -1.1124
  200DOPC  H14B24773   1.043   1.283  12.557 -0.6515  0.5662 -1.5216
  200DOPC  H14C24774   1.202   1.213  12.544 -1.3467 -0.6560  0.3525
  200DOPC   C1524775   1.292   1.368  12.360  0.2448 -0.0599  1.5972
  200DOPC  H15A24776   1.334   1.455  12.410 -0.0384  1.6603 -0.9619
  200DOPC  H15B24777   1.308   1.367  12.253 -0.6128  0.3793  1.4623
  200DOPC  H15C24778   1.341   1.279  12.395  2.5163  0.8909  1.0496
  200DOPC   C1124779   1.093   1.597  12.477  0.2191 -0.0564 -0.6433
  200DOPC  H11A24780   1.022   1.682  12.463 -0.6222 -0.1125  2.4873
  200DOPC  H11B24781   1.066   1.552  12.576 -0.6011  2.6289  0.4449
  200DOPC     P24782   1.314   1.654  12.606  0.2530 -0.2504  0.3256
  200DOPC   O1324783   1.301   1.792  12.656  0.2246 -0.0859  0.2290
  200DOPC   O1424784   1.449   1.602  12.574  0.0878 -0.2282  0.3530
  200DOPC   O1224785   1.227   1.644  12.472  0.4951  0.6678 -0.5633
  200DOPC   O1124786   1.254   1.551  12.710 -0.2305  0.1385  0.1062
  200DOPC    C124787   1.173   1.592  12.822 -0.4327  0.1275  0.1361
  200DOPC    HA24788   1.122   1.505  12.868 -4.0592  0.8550 -2.1112
  200DOPC    HB24789   1.095   1.667  12.799 -1.4048 -0.0587  2.5163
  200DOPC    C224790   1.269   1.655  12.928  0.0494 -0.0322 -0.1575
  200DOPC    HS24791   1.335   1.726  12.875 -0.9085 -0.4738 -2.0246
  200DOPC   O2124792   1.340   1.544  12.986  0.0696  0.4696 -0.2933
  200DOPC   C2124793   1.456   1.552  13.031 -0.7201  0.1172  0.1794
  200DOPC   O2224794   1.531   1.656  13.035  0.3866 -0.5056 -0.3720
  200DOPC   C2224795   1.513   1.417  13.074  0.0172 -0.4252 -0.0586
  200DOPC   H2R24796   1.608   1.403  13.019  1.3758 -1.1847  2.3558
  200DOPC   H2S24797   1.443   1.344  13.028 -0.7141 -0.0162  0.3706
  200DOPC    C324798   1.181   1.732  13.033  0.8531 -0.1890 -0.3419
  200DOPC    HX24799   1.109   1.664  13.083 -0.3139 -0.2682 -2.0895
  200DOPC    HY24800   1.117   1.801  12.974  0.1346 -0.2895  0.3032
  200DOPC   O3124801   1.260   1.813  13.122 -0.3638 -0.0258 -0.0556
  200DOPC   C3124802   1.282   1.775  13.249  0.3505 -0.6763 -0.8336
  200DOPC   O3224803   1.216   1.692  13.307  0.0647  0.6433 -0.0276
  200DOPC   C3224804   1.401   1.856  13.303  0.0759 -0.3802  0.3932
  200DOPC   H2X24805   1.487   1.854  13.232 -0.0453 -1.1748  0.2606
  200DOPC   H2Y24806   1.361   1.958  13.318 -2.1828 -1.2058  0.3070
  200DOPC   C2324807   1.549   1.402  13.226 -0.1150 -0.1668  0.2988
  200DOPC   H3R24808   1.609   1.491  13.256 -0.4267 -0.0048  0.4589
  200DOPC   H3S24809   1.603   1.308  13.248 -0.3070 -0.2672  0.3429
  200DOPC   C2424810   1.442   1.404  13.334  0.0528 -0.0825  0.5260
  200DOPC   H4R24811   1.366   1.325  13.315  0.3494 -0.2470 -0.0130
  200DOPC   H4S24812   1.399   1.506  13.325  1.1214  0.2065 -3.9370
  200DOPC   C2524813   1.494   1.398  13.474  0.0589 -0.2730  0.3087
  200DOPC   H5R24814   1.565   1.483  13.487  2.0635 -1.9711  1.0929
  200DOPC   H5S24815   1.548   1.304  13.497  4.6929  0.8661 -4.0216
  200DOPC   C2624816   1.377   1.410  13.576 -0.6847 -0.1784  0.6631
  200DOPC   H6R24817   1.324   1.312  13.583  0.5447 -1.1359 -1.9979
  200DOPC   H6S24818   1.300   1.484  13.545 -1.9447 -0.8748  1.9933
  200DOPC   C2724819   1.425   1.452  13.718 -0.1268  0.4136  0.6874
  200DOPC   H7R24820   1.472   1.553  13.713  0.1995  0.2087 -1.0291
  200DOPC   H7S24821   1.508   1.383  13.742  2.0055  2.3411 -0.6836
  200DOPC   C2824822   1.310   1.443  13.825 -0.5432  0.1156 -0.1263
  200DOPC   H8R24823   1.362   1.431  13.923 -2.8302 -0.3211  1.1231
  200DOPC   H8S24824   1.261   1.346  13.804  1.0174 -1.3005  2.1973
  200DOPC   C2924825   1.218   1.559  13.818  0.7099 -0.0886 -0.1442
  200DOPC   H9R24826   1.197   1.599  13.718 -0.1656 -1.0410 -0.3520
  200DOPC  C21024827   1.178   1.638  13.927  0.5603  0.3136 -0.8183
  200DOPC  H10R24828   1.104   1.717  13.907  0.0845  0.3095  0.7721
  200DOPC  C21124829   1.194   1.612  14.072 -0.2122  0.2420 -0.4724
  200DOPC  H11R24830   1.146   1.699  14.122 -0.0898 -0.9110  1.8138
  200DOPC  H11S24831   1.297   1.613  14.113 -0.9066  0.8472  1.3703
  200DOPC  C21224832   1.111   1.489  14.118  0.0051  0.8309  0.4187
  200DOPC  H12R24833   1.149   1.393  14.077 -2.3006 -0.5448  1.2977
  200DOPC  H12S24834   1.003   1.496  14.092  0.1951 -0.9472 -1.0018
  200DOPC  C21324835   1.117   1.468  14.274 -0.3341  0.1470  0.2880
  200DOPC  H13R24836   1.025   1.415  14.305 -0.3687 -0.2994 -0.5492
  200DOPC  H13S24837   1.132   1.568  14.320 -1.2878  0.8714 -0.9095
  200DOPC  C21424838   1.241   1.386  14.318 -0.5347  0.1832 -0.0563
  200DOPC  H14R24839   1.324   1.451  14.284  1.1534  0.2128  3.6001
  200DOPC  H14S24840   1.262   1.291  14.265  1.5340  0.8799 -0.5711
  200DOPC  C21524841   1.253   1.359  14.465  0.3318  0.6299 -0.2354
  200DOPC  H15R24842   1.359   1.342  14.493  0.4081 -2.0792 -1.7649
  200DOPC  H15S24843   1.203   1.265  14.496 -0.3501  1.0159 -0.1469
  200DOPC  C21624844   1.184   1.465  14.551  0.0959 -0.5892  0.6964
  200DOPC  H16R24845   1.078   1.474  14.520  0.6222 -0.1273 -1.0936
  200DOPC  H16S24846   1.233   1.564  14.532  0.8575 -1.0594  0.1532
  200DOPC  C21724847   1.198   1.432  14.699 -0.0130  0.7882 -0.5464
  200DOPC  H17R24848   1.153   1.333  14.720 -0.2494  1.1679  0.9091
  200DOPC  H17S24849   1.121   1.491  14.754 -0.9639 -3.1430  2.7952
  200DOPC  C21824850   1.342   1.436  14.764  0.4145  0.8130 -0.1389
  200DOPC  H18R24851   1.415   1.360  14.727  1.1352  0.6956  1.4281
  200DOPC  H18S24852   1.347   1.412  14.872  0.3685 -1.1773 -0.5352
  200DOPC  H18T24853   1.383   1.539  14.753  2.5836 -0.2029 -2.9515
  200DOPC   C3324854   1.440   1.795  13.435  0.1644  0.2399 -0.1127
  200DOPC   H3X24855   1.510   1.709  13.425  0.1611  0.3567 -1.3348
  200DOPC   H3Y24856   1.347   1.772  13.490 -1.2183  4.4200 -0.3839
  200DOPC   C3424857   1.512   1.903  13.513  0.2549 -0.0862  0.1712
  200DOPC   H4X24858   1.470   2.005  13.500  0.9085 -0.0288 -1.8264
  200DOPC   H4Y24859   1.617   1.901  13.478  0.1923  0.4001 -0.0502
  200DOPC   C3524860   1.531   1.864  13.661  0.0378  0.4112  0.1385
  200DOPC   H5X24861   1.541   1.753  13.666  2.1677  0.5297 -0.4470
  200DOPC   H5Y24862   1.432   1.874  13.711  0.1562  2.1883  0.0786
  200DOPC   C3624863   1.652   1.934  13.716  0.1154 -0.5240 -0.7041
  200DOPC   H6X24864   1.739   1.915  13.650  1.9175  3.9960  0.0278
  200DOPC   H6Y24865   1.636   2.043  13.727  1.1337 -0.5103  1.0269
  200DOPC   C3724866   1.679   1.877  13.862 -0.7715  0.1226  0.9333
  200DOPC   H7X24867   1.582   1.873  13.916  0.1592 -0.0073  2.6385
  200DOPC   H7Y24868   1.722   1.777  13.842 -1.1385 -0.2088  1.7683
  200DOPC   C3824869   1.782   1.951  13.944 -0.6553  0.0026  0.3642
  200DOPC   H8X24870   1.751   2.056  13.964  0.1670  0.7742 -2.0282
  200DOPC   H8Y24871   1.883   1.967  13.899  0.5740 -0.4886  2.7785
  200DOPC   C3924872   1.797   1.867  14.067 -0.0896 -0.4720 -0.0230
  200DOPC   H9X24873   1.817   1.759  14.056 -2.1006 -0.7460 -1.5611
  200DOPC  C31024874   1.785   1.908  14.193 -0.2939 -0.3888 -0.6667
  200DOPC  H10X24875   1.802   1.839  14.277 -0.4536 -0.5234 -0.7455
  200DOPC  C31124876   1.751   2.042  14.249  0.4064  0.0530 -0.1614
  200DOPC  H11X24877   1.666   2.038  14.319  0.9095  4.2757  0.9151
  200DOPC  H11Y24878   1.721   2.117  14.173  0.0078 -0.0378 -0.0938
  200DOPC  C31224879   1.875   2.105  14.325  0.5225  0.1144  0.6988
  200DOPC  H12X24880   1.944   2.156  14.255 -0.1108 -0.7037 -0.5688
  200DOPC  H12Y24881   1.934   2.031  14.382  3.4873  0.9086 -1.1060
  200DOPC  C31324882   1.835   2.207  14.432  0.2007 -0.0224  0.2769
  200DOPC  H13X24883   1.929   2.250  14.473  0.3297 -1.4264  1.5429
  200DOPC  H13Y24884   1.779   2.290  14.384  1.5598  1.9948  1.9852
  200DOPC  C31424885   1.741   2.155  14.548  0.0147  0.0780  0.1266
  200DOPC  H14X24886   1.634   2.176  14.529  0.3509  1.1645 -0.7068
  200DOPC  H14Y24887   1.753   2.045  14.545  0.4098  0.1310 -0.2811
  200DOPC  C31524888   1.781   2.204  14.688 -0.7169 -0.0667  0.0301
  200DOPC  H15X24889   1.874   2.151  14.716 -0.3475  0.3192 -0.4401
  200DOPC  H15Y24890   1.697   2.173  14.755 -0.8571  0.0573 -0.0850
  200DOPC  C31624891   1.812   2.352  14.714  0.6183  0.5878 -0.8981
  200DOPC  H16X24892   1.895   2.368  14.642  0.4287  0.7168 -1.0897
  200DOPC  H16Y24893   1.725   2.416  14.690 -2.8685 -2.2996  2.6014
  200DOPC  C31724894   1.857   2.388  14.852 -0.5740 -0.3369  0.3070
  200DOPC  H17X24895   1.773   2.354  14.915 -0.8474 -0.1285  0.0569
  200DOPC  H17Y24896   1.947   2.324  14.866  0.9259  1.5163 -0.3020
  200DOPC  C31824897   1.884   2.532  14.877 -0.5731 -0.2503 -0.1865
  200DOPC  H18X24898   1.933   2.581  14.789  0.2991 -0.9570 -0.1125
  200DOPC  H18Y24899   1.787   2.581  14.898 -1.8234 -1.3045 -3.0665
  200DOPC  H18Z24900   1.943   2.548  14.970 -3.0372  0.2378  1.3911
  201SOD    SOD24901   3.297   0.006  17.252 -0.3828 -0.0192 -0.0599
  202SOD    SOD24902   0.701   0.332  10.496  0.4401  0.1342 -0.1496
  203SOD    SOD24903   6.476   1.949  19.905  0.1247 -0.2280  0.0208
  204SOD    SOD24904   2.286   3.128  10.574  0.2448  0.0901  0.0787
  205SOD    SOD24905   4.231   4.327  17.983  0.2891 -0.0166  0.1765
  206SOD    SOD24906   5.075   0.100  10.415  0.2142 -0.2310  0.0858
  207SOD    SOD24907   5.209   3.353   9.373 -0.1494  0.5140 -0.1027
  208SOD    SOD24908   6.377   1.449  18.327  0.0659 -0.2573  0.6492
  209SOD    SOD24909   0.077   0.557  10.337 -0.1933  0.0826  0.0139
  210SOD    SOD24910   2.264   0.856  19.695 -0.6234  0.1868  0.0268
  211SOD    SOD24911   3.578   4.879  19.628 -0.4464 -0.5136  0.3044
  212SOD    SOD24912   2.598   5.049  17.534  0.3214  0.1720 -0.0633
  213SOD    SOD24913   2.916   6.413   9.694 -0.0665  0.0854 -0.2982
  214SOD    SOD24914   4.805   6.479  17.939  0.8122 -0.1214  0.3152
  215SOD    SOD24915   4.050   2.158  17.445  0.2160 -0.2063 -0.3050
  216SOD    SOD24916   2.082   3.811  17.227  0.2559 -0.4787 -0.1019
  217SOD    SOD24917   6.200   0.252  11.078 -0.7190  0.1750 -0.2374
  218SOD    SOD24918   0.063   4.293  19.811 -0.1855 -0.0950 -0.3044
  219SOD    SOD24919   0.352   0.367  16.927 -0.1031 -0.5230 -0.2201
  220SOD    SOD24920   0.628   2.451  12.528  0.1677 -0.4390 -0.2525
  221SOD    SOD24921   4.534   5.873  11.699 -0.6257 -0.1938  0.1066
  222SOD    SOD24922   6.491   6.538  19.050  0.1857 -0.4273 -0.3455
  223SOD    SOD24923   1.997   3.282  10.901 -0.2489  0.4611 -0.4420
  224SOD    SOD24924   1.315   3.780  10.746  0.1381 -0.6791  0.1682
  225SOD    SOD24925   5.140   1.826   9.761 -0.1831  0.3976  0.3578
  226SOD    SOD24926   0.870   0.750  19.797  0.3637 -0.0342 -0.3659
  227CLA    CLA24927   5.113   2.460   9.513 -0.2469  0.0064 -0.2020
  228CLA    CLA24928   4.763   3.069   9.285 -0.4581 -0.4351 -0.5211
  229CLA    CLA24929   1.627   0.414  10.825  0.3055  0.0366 -0.2565
  230CLA    CLA24930   2.255   0.244  17.802  0.4455 -0.0080 -0.3437
  231CLA    CLA24931   1.436   1.162  17.734  0.1591  0.1867  0.1692
  232CLA    CLA24932   2.380   0.402  19.742  0.0137  0.0320  0.1631
  233CLA    CLA24933   6.409   2.408  18.548  0.2971 -0.2051 -0.4747
  234CLA    CLA24934   5.143   0.946  18.194  0.0139  0.1115 -0.1245
  235CLA    CLA24935   3.521   4.476  10.533 -0.1325 -0.0816  0.1555
  236CLA    CLA24936   3.915   3.052  19.504  0.5333 -0.0808  0.0136
  237CLA    CLA24937   4.678   5.959  17.572 -0.4141 -0.0441 -0.3429
  238CLA    CLA24938   6.324   2.238  10.096  0.2462 -0.1057 -0.0140
  239CLA    CLA24939   6.610   0.780  10.379 -0.0383 -0.3120  0.6678
  240CLA    CLA24940   0.004   0.192  17.672 -0.2819  0.3114 -0.0712
  241CLA    CLA24941   5.874   0.509  10.780 -0.0648  0.0216 -0.1215
  242CLA    CLA24942   0.003   2.620  19.371 -0.0959 -0.1220  0.2481
  243CLA    CLA24943   6.350   5.688   9.437 -0.1011 -0.1143  0.2705
  244CLA    CLA24944   5.631   2.635   9.990  0.3205 -0.3288 -0.1138
  245CLA    CLA24945   3.610   2.290  11.093 -0.0266  0.5045 -0.3705
  246CLA    CLA24946   2.206   4.662  18.396 -0.0115  0.0915 -0.0521
  247CLA    CLA24947   2.036   5.419   9.813  0.1036 -0.3284  0.0513
  248CLA    CLA24948   0.310   1.807   9.549 -0.1653  0.0194 -0.3140
  249CLA    CLA24949   6.199   3.760  11.497 -0.4147  0.3601  0.0072
  250CLA    CLA24950   4.020   4.592  19.438 -0.1978 -0.0313 -0.0278
  251CLA    CLA24951   6.635   5.720  18.043  0.2773  0.1459  0.2831
  252CLA    CLA24952   4.234   0.728  11.246  0.1075 -0.1029  0.0991
  253TIP3   OH224953   6.540   3.623  19.396  0.2148 -0.5921 -0.0861
  253TIP3    H124954   6.556   3.711  19.363  1.4027 -0.7205  0.0759
  253TIP3    H224955   6.501   3.576  19.322 -1.1525  0.2551  0.0675
  254TIP3   OH224956   3.431   2.038  20.032  0.6077  0.8131  0.1005
  254TIP3    H124957   3.351   2.072  19.991  0.1068 -0.5244 -0.0889
  254TIP3    H224958   3.440   2.089  20.113 -0.1656  1.3203 -0.1224
  255TIP3   OH224959   0.649   5.099  19.848 -0.0400  0.3390  0.5180
  255TIP3    H124960   0.729   5.058  19.816 -2.1373 -2.0083 -2.2348
  255TIP3    H224961   0.626   5.163  19.780 -1.4485 -0.3563  0.3215
  256TIP3   OH224962   5.835   3.158  18.893  0.6824  0.1144 -0.2316
  256TIP3    H124963   5.908   3.160  18.832  0.4582  1.0681 -0.4805
  256TIP3    H224964   5.801   3.247  18.893  1.0783  0.3095  1.7830
  257TIP3   OH224965   4.878   2.279  19.729 -0.0427 -0.3352 -0.4159
  257TIP3    H124966   4.867   2.365  19.689  2.7946 -0.4670 -1.7152
  257TIP3    H224967   4.932   2.296  19.806 -0.7199 -0.7902  0.1652
  258TIP3   OH224968   2.087   0.150  19.289 -0.6121  0.0656  0.2049
  258TIP3    H124969   2.113   0.168  19.198  0.0324  0.6749  0.5006
  258TIP3    H224970   1.994   0.128  19.284 -1.5551  3.5993 -0.1922
  259TIP3   OH224971   4.308   4.802  19.852 -0.1970  0.3968  0.2558
  259TIP3    H124972   4.300   4.804  19.757  0.2299 -0.1914  0.2079
  259TIP3    H224973   4.375   4.868  19.872  1.0107 -0.7155  0.0034
  260TIP3   OH224974   5.530   5.828  17.651 -0.0092 -0.3238  0.0647
  260TIP3    H124975   5.546   5.910  17.605  1.7976  0.1234  1.3617
  260TIP3    H224976   5.513   5.764  17.582 -0.3383  0.8947 -1.0258
  261TIP3   OH224977   1.567   1.658  17.584 -0.1926  0.4211 -0.1833
  261TIP3    H124978   1.542   1.686  17.496  1.2594 -0.1346 -0.8149
  261TIP3    H224979   1.578   1.563  17.577 -0.4603  0.3164  0.6998
  262TIP3   OH224980   0.369   3.053  17.421  0.2415 -0.9178 -0.0974
  262TIP3    H124981   0.325   3.012  17.346 -2.1275  1.9281 -0.4609
  262TIP3    H224982   0.298   3.084  17.477  1.6182  3.1807 -0.2559
  263TIP3   OH224983   3.282   2.286  18.984  0.1863 -0.1826 -0.1167
  263TIP3    H124984   3.376   2.284  18.969  0.3078  0.5961  0.4884
  263TIP3    H224985   3.262   2.199  19.018  0.2743 -1.1781 -2.4575
  264TIP3   OH224986   0.136   5.225  20.433 -0.2114 -0.0029  0.0742
  264TIP3    H124987   0.157   5.318  20.432  0.1389 -0.0604  0.8585
  264TIP3    H224988   0.139   5.201  20.526  0.6370 -0.9971 -0.1805
  265TIP3   OH224989   2.279   6.595  19.544  0.5450 -0.2266  0.0085
  265TIP3    H124990   2.284   6.689  19.563  1.3577 -0.5382  1.5078
  265TIP3    H224991   2.186   6.576  19.541  0.3728  0.5128  0.3635
  266TIP3   OH224992   4.616   4.470  18.741 -0.1924 -0.0402  0.0336
  266TIP3    H124993   4.656   4.471  18.827 -2.5228 -1.6392  1.2574
  266TIP3    H224994   4.663   4.537  18.691  1.9471  0.1739  2.1710
  267TIP3   OH224995   1.790   1.997  17.835 -0.6195  0.3787  0.4560
  267TIP3    H124996   1.878   2.028  17.813 -0.4166  1.1627  2.2526
  267TIP3    H224997   1.801   1.944  17.914 -1.5792 -0.7566 -0.1245
  268TIP3   OH224998   1.361   1.594  19.299 -0.3385  0.0701 -0.4379
  268TIP3    H124999   1.302   1.633  19.234  0.4353  1.9972 -0.0627
  268TIP3    H225000   1.408   1.526  19.251 -2.4257 -1.1422 -0.8764
  269TIP3   OH225001   2.705   4.906  17.685 -0.2521 -0.0250 -0.4744
  269TIP3    H125002   2.800   4.894  17.677  0.1265  2.2930 -0.1965
  269TIP3    H225003   2.684   4.868  17.771  0.7896  1.0518  0.3020
  270TIP3   OH225004   4.263   1.584  19.874  0.1103 -0.4192 -0.4631
  270TIP3    H125005   4.282   1.534  19.953  0.9567  0.1403 -0.3005
  270TIP3    H225006   4.236   1.670  19.906  0.6646 -0.1216 -0.7833
  271TIP3   OH225007   4.223   4.415  19.234 -0.2346  0.2536 -0.5147
  271TIP3    H125008   4.172   4.490  19.264  0.6034  1.4291 -1.8839
  271TIP3    H225009   4.264   4.445  19.153  1.1839 -1.2499 -0.4016
  272TIP3   OH225010   4.937   4.376  19.677  0.3536  0.0012 -0.4776
  272TIP3    H125011   4.985   4.314  19.623  1.4847  0.6836 -0.2812
  272TIP3    H225012   4.856   4.393  19.628  0.1489 -1.3946 -0.6625
  273TIP3   OH225013   4.385   5.999  18.824 -0.8752 -0.1964 -0.5208
  273TIP3    H125014   4.464   6.037  18.785 -1.0269  0.5612 -0.0974
  273TIP3    H225015   4.349   5.943  18.755  0.2848 -0.9343 -0.5497
  274TIP3   OH225016   4.864   1.373  17.366 -0.0876 -0.1389  0.5103
  274TIP3    H125017   4.778   1.394  17.330  0.2797  0.2183 -0.1871
  274TIP3    H225018   4.924   1.428  17.316  0.3182  1.4796  2.6210
  275TIP3   OH225019   0.207   4.093  20.668 -0.0178  0.3189 -0.1660
  275TIP3    H125020   0.144   4.147  20.621 -2.0395 -2.5278 -1.0511
  275TIP3    H225021   0.160   4.065  20.747  1.4215  0.7851  0.8958
  276TIP3   OH225022   1.414   1.741  19.015  0.1794 -0.2693  0.0381
  276TIP3    H125023   1.325   1.716  19.038 -0.2561  1.1410 -0.0390
  276TIP3    H225024   1.439   1.806  19.080  0.8283 -0.0001 -0.4639
  277TIP3   OH225025   0.289   4.120  18.309 -0.1784  0.5618  0.2529
  277TIP3    H125026   0.225   4.190  18.316 -1.6532 -0.4551 -1.9789
  277TIP3    H225027   0.243   4.042  18.339  0.4637  0.0547 -0.0491
  278TIP3   OH225028   3.004   1.682  19.680 -0.2588 -0.0361 -0.1142
  278TIP3    H125029   2.936   1.682  19.613 -0.6553 -0.3600  0.2875
  278TIP3    H225030   3.025   1.774  19.692 -0.9392  0.0991  0.0754
  279TIP3   OH225031   6.006   6.026  19.628  0.3787  0.2970  0.5981
  279TIP3    H125032   5.949   5.966  19.675  0.5445  0.3389  0.8545
  279TIP3    H225033   6.083   6.036  19.685 -0.0453  1.4809  0.9995
  280TIP3   OH225034   1.966   1.957  18.322  0.1949  0.0154 -0.1139
  280TIP3    H125035   1.985   2.030  18.263 -1.1049  1.0256  0.6804
  280TIP3    H225036   1.955   1.997  18.407 -2.2194 -0.8794  0.0568
  281TIP3   OH225037   3.971   1.840  18.138 -0.1662 -0.0101  0.2460
  281TIP3    H125038   4.002   1.782  18.207 -0.4342 -0.2498  0.1662
  281TIP3    H225039   3.920   1.907  18.184  1.0833  0.8291  0.4648
  282TIP3   OH225040   3.798   4.867  18.547 -0.4246  0.0771  0.4724
  282TIP3    H125041   3.821   4.827  18.463 -0.3008  0.1187  0.4865
  282TIP3    H225042   3.720   4.919  18.527 -1.7633 -1.7011  0.8743
  283TIP3   OH225043   3.222   5.792  18.548  0.0621 -0.1146 -0.3568
  283TIP3    H125044   3.260   5.872  18.510  2.5557 -1.5057 -1.0024
  283TIP3    H225045   3.215   5.811  18.642 -0.3962  1.2263 -0.6431
  284TIP3   OH225046   6.463   5.160  11.612 -0.0349  0.0352 -0.4365
  284TIP3    H125047   6.411   5.091  11.654  2.6655 -1.0987  1.3214
  284TIP3    H225048   6.442   5.153  11.519  0.4248 -3.5151 -0.4020
  285TIP3   OH225049   0.764   3.667  10.459  0.3044  0.0476 -0.3831
  285TIP3    H125050   0.798   3.647  10.372  0.3175  1.1649 -0.6520
  285TIP3    H225051   0.840   3.665  10.516  0.5280  0.6894 -0.6515
  286TIP3   OH225052   0.955   4.372   9.853 -0.0679  0.0683 -0.5202
  286TIP3    H125053   1.024   4.370   9.920  0.8364 -1.7302 -1.4616
  286TIP3    H225054   0.955   4.463   9.823  1.7502  0.1647 -0.3479
  287TIP3   OH225055   5.771   4.426   9.098 -0.0573  0.3495  0.0016
  287TIP3    H125056   5.710   4.491   9.133  0.1678 -0.6738  2.5540
  287TIP3    H225057   5.743   4.343   9.137  3.4444 -0.0369  2.1951
  288TIP3   OH225058   0.947   4.197  10.638 -0.1482 -0.1724 -0.8146
  288TIP3    H125059   0.894   4.148  10.701 -0.3868  0.0050 -0.8789
  288TIP3    H225060   1.035   4.162  10.649 -0.3641 -0.7895 -1.0335
  289TIP3   OH225061   6.562   1.653  11.111 -0.2111 -0.0996  0.2770
  289TIP3    H125062   6.586   1.653  11.019  1.6346  0.8558  0.7181
  289TIP3    H225063   6.570   1.744  11.139 -1.2809 -0.2764  1.2581
  290TIP3   OH225064   4.855   4.890  11.555  0.5681  0.6652 -0.1373
  290TIP3    H125065   4.866   4.825  11.485 -1.2276 -0.0289  0.1522
  290TIP3    H225066   4.819   4.840  11.628  0.2869  1.7829  0.5059
  291TIP3   OH225067   1.787   2.093  11.300 -0.0985  0.0684 -0.1537
  291TIP3    H125068   1.711   2.151  11.306  0.0543  0.3830 -1.0537
  291TIP3    H225069   1.832   2.121  11.221 -0.5783 -1.9546 -1.2178
  292TIP3   OH225070   1.429   1.144   9.198 -0.8217  0.4238  0.6033
  292TIP3    H125071   1.478   1.126   9.278 -0.1400 -0.0491  0.0953
  292TIP3    H225072   1.479   1.215   9.156  0.4811 -1.2393 -0.7844
  293TIP3   OH225073   3.184   2.408   9.978  0.4319  0.2978 -0.3106
  293TIP3    H125074   3.112   2.367  10.026  0.5380  0.5341  0.0524
  293TIP3    H225075   3.263   2.372  10.018  0.5245 -0.2062 -0.9184
  294TIP3   OH225076   6.682   3.366  11.198 -0.1823 -0.3441 -0.5409
  294TIP3    H125077   6.598   3.376  11.243  0.0566 -0.3322 -0.0927
  294TIP3    H225078   6.668   3.293  11.138 -0.7790  0.2136 -1.1055
  295TIP3   OH225079   5.647   4.469  11.036  0.0232 -0.5468  0.0215
  295TIP3    H125080   5.625   4.541  10.977 -0.6493  0.3681  1.3537
  295TIP3    H225081   5.574   4.407  11.028 -0.6230  0.1123  0.7170
  296TIP3   OH225082   4.425   1.257   8.957  0.2530 -0.4967 -0.0770
  296TIP3    H125083   4.460   1.345   8.970  0.4807 -0.7409  1.0405
  296TIP3    H225084   4.375   1.239   9.036 -0.5174 -1.0433 -0.6724
  297TIP3   OH225085   4.402   1.063  10.857 -0.0653  0.0240 -0.4811
  297TIP3    H125086   4.366   1.034  10.941 -0.3951 -0.6430 -0.8473
  297TIP3    H225087   4.417   0.982  10.808  2.0025  0.2470 -0.3366
  298TIP3   OH225088   3.990   5.914   9.214 -0.5164 -0.3941 -0.2242
  298TIP3    H125089   4.039   5.994   9.233  2.4984 -1.6805 -1.7937
  298TIP3    H225090   4.004   5.857   9.290 -0.7450 -0.2681 -0.0875
  299TIP3   OH225091   5.843   0.497  11.143 -0.3083 -0.3600  0.3567
  299TIP3    H125092   5.865   0.486  11.051 -0.3365  0.3900  0.2624
  299TIP3    H225093   5.811   0.410  11.170 -0.2180 -0.6045 -0.3097
  300TIP3   OH225094   4.949   5.002  10.190  0.3731 -0.8023  0.4896
  300TIP3    H125095   5.001   5.045  10.122  1.0362 -0.1857  1.3627
  300TIP3    H225096   4.902   4.933  10.144 -1.1427  1.1656 -1.0628
  301TIP3   OH225097   1.301   2.556  11.768  0.0350 -0.3035  0.5999
  301TIP3    H125098   1.320   2.569  11.675  0.8295 -0.9150  0.6719
  301TIP3    H225099   1.256   2.636  11.794 -0.0184 -0.0398 -0.2614
  302TIP3   OH225100   5.205   5.797  11.011  0.4378 -0.1567 -0.2689
  302TIP3    H125101   5.251   5.800  11.095  1.8556  1.0897 -1.0417
  302TIP3    H225102   5.201   5.704  10.989  3.3162 -0.3128 -0.5021
  303TIP3   OH225103   2.520   0.010   9.744 -0.4000 -0.4422 -0.0718
  303TIP3    H125104   2.598   0.059   9.718 -0.4268 -1.0023 -1.2644
  303TIP3    H225105   2.486   0.058   9.820  1.1045 -0.2024  0.4861
  304TIP3   OH225106   4.212   0.302  11.778 -0.5846  0.4259 -0.0948
  304TIP3    H125107   4.294   0.254  11.765  0.3216  2.3186 -1.8940
  304TIP3    H225108   4.145   0.245  11.741 -0.1133 -1.0423  1.1758
  305TIP3   OH225109   5.255   0.831  11.356 -0.1013 -0.1514 -0.2627
  305TIP3    H125110   5.324   0.770  11.328  0.3925  0.2827  0.0163
  305TIP3    H225111   5.207   0.850  11.275  0.5069  0.0612 -0.5763
  306TIP3   OH225112   0.026   6.632   9.997 -0.4272  0.3805 -0.3057
  306TIP3    H125113   0.046   6.609   9.906  0.0236 -0.1737 -0.0736
  306TIP3    H225114  -0.021   6.556  10.031 -0.3857  0.4864 -0.0089
  307TIP3   OH225115   0.367   3.612   9.920 -0.2621 -0.0617 -0.2262
  307TIP3    H125116   0.448   3.570   9.949 -0.4249 -1.0428 -1.1626
  307TIP3    H225117   0.299   3.547   9.937 -0.9556  0.9257  0.9934
  308TIP3   OH225118   4.204   0.118   8.970 -0.2628  0.2467  0.3630
  308TIP3    H125119   4.180   0.063   9.044  0.2588 -0.8783 -0.2850
  308TIP3    H225120   4.293   0.091   8.947  1.2921  3.4761  1.9338
  309TIP3   OH225121   1.626   4.035  10.486 -0.4533 -0.2398 -0.0053
  309TIP3    H125122   1.716   4.044  10.517 -1.4409  1.1650  2.7674
  309TIP3    H225123   1.598   4.125  10.469 -1.9793 -0.4345  1.3150
  310TIP3   OH225124   1.267   6.182  10.006  0.4685  0.6286  0.5067
  310TIP3    H125125   1.329   6.255  10.004  0.1408  0.9477  1.4524
  310TIP3    H225126   1.322   6.104  10.013  0.8036  0.8143  0.0023
  311TIP3   OH225127   0.474   5.523  11.632 -0.5462  0.2262 -0.0278
  311TIP3    H125128   0.479   5.510  11.726  3.2597 -1.0780 -0.2543
  311TIP3    H225129   0.508   5.612  11.618 -1.1592  0.4413 -0.2032
  312TIP3   OH225130   3.096   2.085   9.391 -0.6232 -0.5005 -0.2372
  312TIP3    H125131   3.010   2.064   9.356 -0.0992 -0.5057 -1.5569
  312TIP3    H225132   3.157   2.032   9.340  0.4567  1.8473 -1.5338
  313TIP3   OH225133   3.247   0.167   9.120  0.6324  0.1012 -0.0230
  313TIP3    H125134   3.266   0.102   9.187  3.1504  0.9917  0.2388
  313TIP3    H225135   3.242   0.116   9.038  1.0456 -0.5848  0.3700
  314TIP3   OH225136   5.376   5.697   9.169 -0.0929  0.5213 -0.6868
  314TIP3    H125137   5.392   5.623   9.228 -0.5172  1.1643  0.2728
  314TIP3    H225138   5.462   5.739   9.159  0.5501 -1.1380 -2.7497
  315TIP3   OH225139   5.728   5.299  11.752 -0.9138 -0.0257 -0.1837
  315TIP3    H125140   5.719   5.269  11.843 -2.5393  0.6323 -0.0823
  315TIP3    H225141   5.760   5.223  11.704  2.9131  0.3676  1.3717
  316TIP3   OH225142   5.954   3.912  12.087  0.2625 -0.0230  0.0527
  316TIP3    H125143   5.985   3.966  12.160 -2.8083  1.1301  0.6426
  316TIP3    H225144   5.937   3.826  12.127  0.2504  0.0959  0.3077
  317TIP3   OH225145   3.803   5.567   9.228  0.2560 -0.2774  0.5222
  317TIP3    H125146   3.726   5.556   9.284 -0.8710  0.8383 -0.7306
  317TIP3    H225147   3.803   5.660   9.206  0.4072 -0.7246 -1.6062
  318TIP3   OH225148   0.703   4.538   9.397 -0.2223 -0.8657  0.1329
  318TIP3    H125149   0.616   4.500   9.388 -0.6555  0.2696 -0.7996
  318TIP3    H225150   0.697   4.594   9.474 -0.9863  0.7940 -1.0542
  319TIP3   OH225151   1.616   5.263  11.293  0.0870  0.2012  0.4308
  319TIP3    H125152   1.586   5.234  11.206  1.7334 -2.3797  0.6099
  319TIP3    H225153   1.539   5.257  11.349 -0.6977  0.7001 -0.5638
  320TIP3   OH225154   6.451   3.316  11.321 -0.3333  0.0305  0.2458
  320TIP3    H125155   6.408   3.364  11.250  0.3171  0.1016 -0.1121
  320TIP3    H225156   6.381   3.268  11.364 -0.5919 -0.9401 -1.1760
  321TIP3   OH225157   5.521   5.661  11.752 -0.2330  0.1471  0.2897
  321TIP3    H125158   5.438   5.696  11.718 -0.3556 -0.7532 -0.3721
  321TIP3    H225159   5.522   5.688  11.844 -1.1456  0.3717  0.2466
  322TIP3   OH225160   6.311   5.713  11.167  0.0934  0.4357 -0.3538
  322TIP3    H125161   6.331   5.795  11.123  0.9061  0.0291 -0.7624
  322TIP3    H225162   6.260   5.663  11.103  0.8821  0.0299 -0.6805
  323TIP3   OH225163   2.728   1.605  17.181 -0.6305  0.4304  0.0997
  323TIP3    H125164   2.720   1.607  17.086 -1.9577  1.3599  0.2069
  323TIP3    H225165   2.736   1.697  17.207 -1.7235  0.3030  0.9805
  324TIP3   OH225166   5.510   1.390  17.652 -0.2691  0.7108 -0.3162
  324TIP3    H125167   5.513   1.484  17.665 -1.4421  0.4326  2.9989
  324TIP3    H225168   5.600   1.361  17.667 -0.3722  1.1286  1.3813
  325TIP3   OH225169   1.780   0.365  18.419 -0.1396  0.5027  0.4020
  325TIP3    H125170   1.741   0.294  18.368  0.7065 -0.2371  0.7610
  325TIP3    H225171   1.875   0.353  18.408  0.0129  1.8300  0.1289
  326TIP3   OH225172   2.329   6.087  18.048 -0.9852 -0.0127  0.1714
  326TIP3    H125173   2.347   6.007  18.097  0.4952  0.9665  1.2864
  326TIP3    H225174   2.234   6.087  18.037 -1.0530 -1.7436  0.4274
  327TIP3   OH225175   5.018   5.039  17.822  0.2538  0.0085 -0.0498
  327TIP3    H125176   4.973   4.989  17.753 -0.2983  1.2544 -0.6325
  327TIP3    H225177   5.014   5.129  17.792  2.7270  0.2465  0.1435
  328TIP3   OH225178   3.318   1.709  18.166 -0.3993 -0.6747 -0.0133
  328TIP3    H125179   3.288   1.709  18.256 -0.8539 -1.7793 -0.1489
  328TIP3    H225180   3.414   1.706  18.173 -0.3353  1.2177  0.4111
  329TIP3   OH225181   1.179   5.653  19.891  0.3058 -0.2643  0.5488
  329TIP3    H125182   1.203   5.745  19.902 -1.7189  0.5897 -1.3029
  329TIP3    H225183   1.087   5.650  19.916 -0.1042 -1.4093 -0.9991
  330TIP3   OH225184   6.241   6.371  20.299  0.6350 -0.3620 -0.0816
  330TIP3    H125185   6.167   6.429  20.281  1.3529  0.2306 -1.3185
  330TIP3    H225186   6.202   6.290  20.331 -0.5469 -0.0474 -0.6757
  331TIP3   OH225187   4.743   0.147  17.814  0.0612  0.4057  0.3093
  331TIP3    H125188   4.659   0.191  17.829  0.9603  1.8360  1.4439
  331TIP3    H225189   4.794   0.209  17.762  1.3151  0.6962  1.8167
  332TIP3   OH225190   5.729   1.821  18.676 -0.1001 -0.3918  0.2450
  332TIP3    H125191   5.800   1.874  18.639 -0.2824 -0.0656  0.3541
  332TIP3    H225192   5.719   1.854  18.765 -1.0429  0.2425 -0.0790
  333TIP3   OH225193   5.884   1.980  19.563  0.9164  0.2029 -0.1163
  333TIP3    H125194   5.870   1.910  19.499  1.7722 -0.2146  0.1418
  333TIP3    H225195   5.970   2.016  19.540  0.7463  0.7728  0.1251
  334TIP3   OH225196   6.581   6.251  19.347 -0.3529 -0.4406 -0.0063
  334TIP3    H125197   6.584   6.160  19.318  0.1662 -0.6932  0.7925
  334TIP3    H225198   6.669   6.269  19.381 -0.3326  0.4870 -0.5012
  335TIP3   OH225199   5.384   2.540  19.986 -0.4440 -0.2137  0.5985
  335TIP3    H125200   5.400   2.448  20.010 -0.8238 -0.2152  0.8444
  335TIP3    H225201   5.325   2.535  19.911 -0.5374 -0.1643  0.6706
  336TIP3   OH225202   1.483   4.296  17.861  0.4976  0.3080  0.0223
  336TIP3    H125203   1.501   4.273  17.952  0.8178  1.6460  0.3291
  336TIP3    H225204   1.557   4.260  17.811  0.6253  0.0743  0.3812
  337TIP3   OH225205   0.254   6.659  19.920  0.6143  0.6219 -0.3520
  337TIP3    H125206   0.222   6.569  19.933 -0.0858  0.8896 -0.1909
  337TIP3    H225207   0.213   6.688  19.839 -1.0165  1.5904  0.7605
  338TIP3   OH225208   6.416   4.868  19.523 -0.8681 -0.1780 -0.6716
  338TIP3    H125209   6.419   4.949  19.472 -4.0555  1.0995  0.8787
  338TIP3    H225210   6.467   4.887  19.601 -0.0214 -0.4044 -1.1535
  339TIP3   OH225211   2.058   6.302  17.897 -0.3423 -0.5407 -0.2015
  339TIP3    H125212   2.089   6.363  17.831 -0.3873  0.2852  0.5115
  339TIP3    H225213   2.111   6.321  17.974 -0.7285 -1.0267  0.1946
  340TIP3   OH225214   3.899   4.939  20.122  0.1781 -0.2295  0.3882
  340TIP3    H125215   3.921   4.906  20.035  2.1668 -1.3241  1.2198
  340TIP3    H225216   3.971   4.999  20.144 -0.9167  0.9768  0.8287
  341TIP3   OH225217   4.935   3.848  19.901  0.1965 -0.0190  0.4850
  341TIP3    H125218   4.949   3.806  19.816  0.6547  1.5233 -0.2462
  341TIP3    H225219   5.016   3.895  19.918 -0.8157  1.8378  0.4858
  342TIP3   OH225220   4.972   4.868  19.494  0.4948  0.1319 -0.0341
  342TIP3    H125221   5.007   4.788  19.532  2.2029  1.2015  0.7478
  342TIP3    H225222   4.907   4.838  19.430  0.5295 -1.8232  0.7997
  343TIP3   OH225223   0.338   5.286  19.438  0.0216 -0.7936 -0.0498
  343TIP3    H125224   0.433   5.293  19.429 -0.0239 -1.7709 -2.0148
  343TIP3    H225225   0.313   5.357  19.497  1.9949 -0.7307  0.7568
  344TIP3   OH225226   6.128   4.668  20.408 -0.3140  0.0105  0.2911
  344TIP3    H125227   6.093   4.757  20.403 -0.7013 -0.1703 -0.3222
  344TIP3    H225228   6.110   4.631  20.322  0.9246 -0.2601  0.1257
  345TIP3   OH225229   0.066   6.440  18.770  0.0278  0.2401 -0.1798
  345TIP3    H125230   0.014   6.447  18.690 -0.9709  0.3209  0.4609
  345TIP3    H225231   0.111   6.356  18.763 -2.9737 -1.6279  0.8346
  346TIP3   OH225232   1.358   4.728  17.365 -0.4494 -0.6388 -0.4015
  346TIP3    H125233   1.314   4.658  17.317 -0.3467 -0.3276 -0.9660
  346TIP3    H225234   1.288   4.772  17.412 -0.4286 -1.4994  0.4573
  347TIP3   OH225235   0.047   3.396  18.301 -0.3349 -0.3189  0.5801
  347TIP3    H125236   0.011   3.451  18.370  0.4296  0.0801  0.6773
  347TIP3    H225237   0.014   3.435  18.220 -0.6165 -0.3320  0.6881
  348TIP3   OH225238   0.665   5.478  18.890  0.1146 -0.1378  0.0150
  348TIP3    H125239   0.734   5.438  18.838 -1.9034 -1.6717 -1.6724
  348TIP3    H225240   0.614   5.529  18.828 -0.3639  0.8822  1.1962
  349TIP3   OH225241   5.570   5.666  19.830 -0.1899 -0.4560  0.0311
  349TIP3    H125242   5.625   5.692  19.904 -1.1165 -1.2743  1.0491
  349TIP3    H225243   5.626   5.608  19.778 -0.1551 -1.5265  1.2137
  350TIP3   OH225244   1.938   0.590  17.947  0.1242  0.1188 -0.2662
  350TIP3    H125245   1.956   0.570  18.038  0.5841 -3.4055 -1.0218
  350TIP3    H225246   1.850   0.628  17.948  0.2774  0.5073  1.6463
  351TIP3   OH225247   4.078   2.941  20.170  0.7790  0.3558  0.1767
  351TIP3    H125248   4.124   2.986  20.100  0.5486 -0.3555 -0.4397
  351TIP3    H225249   3.988   2.971  20.163 -0.0522 -2.2929 -2.0917
  352TIP3   OH225250   5.206   4.456  20.194  0.2267 -0.4394 -0.2571
  352TIP3    H125251   5.188   4.535  20.144 -1.0668  0.3476  1.3609
  352TIP3    H225252   5.298   4.466  20.221 -0.5642  1.8194  2.0049
  353TIP3   OH225253   2.840   0.394  20.252  0.3325  0.1987  0.6890
  353TIP3    H125254   2.766   0.454  20.245 -1.2663 -1.6000  1.1062
  353TIP3    H225255   2.886   0.421  20.331  0.2281  1.4349  0.3523
  354TIP3   OH225256   2.435   1.521  18.623  0.3969 -0.1417  0.0265
  354TIP3    H125257   2.340   1.525  18.635  0.3854 -2.3822  1.1376
  354TIP3    H225258   2.446   1.479  18.537  0.3488 -0.9177  0.3892
  355TIP3   OH225259   6.669   1.650  20.191  0.1716  0.2357  0.0411
  355TIP3    H125260   6.636   1.611  20.272 -0.7633  0.6588 -0.1210
  355TIP3    H225261   6.608   1.722  20.172  1.0645  0.8992 -0.4018
  356TIP3   OH225262   3.865   5.745  20.252  0.3086  0.0370 -0.1324
  356TIP3    H125263   3.946   5.693  20.249  0.5957  0.3532  1.3699
  356TIP3    H225264   3.885   5.823  20.201  0.7281 -0.1920 -0.3240
  357TIP3   OH225265   4.035   5.610  19.462 -0.5107 -0.2967  0.0735
  357TIP3    H125266   4.069   5.588  19.375  2.4291 -1.1071  1.3213
  357TIP3    H225267   4.046   5.704  19.469 -0.5618 -0.2570 -0.3299
  358TIP3   OH225268   1.862   4.672  20.069 -0.7724 -0.0410  0.2957
  358TIP3    H125269   1.934   4.619  20.103 -0.9534  0.1612  1.0134
  358TIP3    H225270   1.881   4.682  19.976  0.9987  1.3587  0.7422
  359TIP3   OH225271   3.406   3.445  19.252  0.3102  1.2335  1.0970
  359TIP3    H125272   3.375   3.424  19.340  0.3670  0.0004  0.8432
  359TIP3    H225273   3.339   3.504  19.216 -1.9276 -1.4082  0.5337
  360TIP3   OH225274   6.181   6.107  20.464  0.0561  0.2874 -0.9295
  360TIP3    H125275   6.263   6.103  20.514 -1.8234  1.6154  2.6323
  360TIP3    H225276   6.167   6.017  20.433  1.1252 -0.8103  1.5057
  361TIP3   OH225277   5.083   4.319  17.174 -0.4929  0.0902  0.2960
  361TIP3    H125278   5.174   4.290  17.168 -0.3220  0.7298 -0.2588
  361TIP3    H225279   5.032   4.241  17.151 -0.1024 -0.3204  0.7798
  362TIP3   OH225280   4.657   3.193  19.757  0.3417 -0.3174  0.1898
  362TIP3    H125281   4.649   3.209  19.851  0.0648  0.7406  0.0026
  362TIP3    H225282   4.607   3.263  19.716  1.7204  0.1484 -0.7921
  363TIP3   OH225283   6.511   3.345  18.143  0.1065 -0.3629  0.0656
  363TIP3    H125284   6.560   3.318  18.220 -0.3940 -0.5181  0.3343
  363TIP3    H225285   6.482   3.434  18.162  0.8429 -0.0208 -0.3713
  364TIP3   OH225286   5.530   4.876  18.867  0.0575 -0.0693 -0.5347
  364TIP3    H125287   5.537   4.931  18.789  0.7616 -0.5749 -0.8309
  364TIP3    H225288   5.542   4.936  18.940  1.7720  0.0326 -0.8785
  365TIP3   OH225289   4.206   4.183  20.555  0.0662  0.0584 -0.3339
  365TIP3    H125290   4.196   4.157  20.463  0.9060 -1.4160 -0.0429
  365TIP3    H225291   4.124   4.155  20.596 -0.1763  0.4279 -0.5499
  366TIP3   OH225292   5.988   3.214  18.208  0.5822  0.0868 -0.5531
  366TIP3    H125293   6.010   3.296  18.163  0.8654  1.0176  1.1744
  366TIP3    H225294   5.915   3.237  18.265  0.0841 -1.1064 -0.6744
  367TIP3   OH225295   0.112   0.085  20.103  0.0622  0.4159 -0.4393
  367TIP3    H125296   0.185   0.057  20.048  0.9134 -0.7289  1.2114
  367TIP3    H225297   0.065   0.004  20.124  0.1038  0.7357  0.9769
  368TIP3   OH225298   3.933   4.517  18.124 -0.1421 -0.2666  0.5693
  368TIP3    H125299   3.853   4.568  18.141 -0.2195  0.1402 -0.8386
  368TIP3    H225300   3.939   4.513  18.028 -1.2082 -4.6349  0.4939
  369TIP3   OH225301   4.717   4.101  19.563 -0.0145 -0.3132  0.0990
  369TIP3    H125302   4.646   4.118  19.625  0.1642  1.7001 -0.1672
  369TIP3    H225303   4.780   4.171  19.580  0.7946 -0.6721 -1.2700
  370TIP3   OH225304   5.123   5.879  19.459  0.2207  0.2908  0.1291
  370TIP3    H125305   5.057   5.863  19.391  2.1402  1.0504 -2.0355
  370TIP3    H225306   5.100   5.965  19.494 -0.9746 -0.2422  0.7134
  371TIP3   OH225307   0.846   4.925  19.426  0.9690 -0.6056  0.0224
  371TIP3    H125308   0.855   4.964  19.513 -0.7748  1.6733 -0.7277
  371TIP3    H225309   0.916   4.859  19.422 -0.1874 -2.3794  3.8885
  372TIP3   OH225310   6.187   3.278  17.684  0.2132 -0.1247  0.4902
  372TIP3    H125311   6.245   3.266  17.759  1.5084  0.2972 -0.4048
  372TIP3    H225312   6.183   3.192  17.642  0.6959 -0.0077  0.2029
  373TIP3   OH225313   4.361   3.853  17.178 -0.5583  0.0743 -0.1381
  373TIP3    H125314   4.389   3.908  17.105 -0.2554 -0.7440 -0.6571
  373TIP3    H225315   4.443   3.830  17.222 -0.6249 -0.4433 -0.2832
  374TIP3   OH225316   0.108   0.399  19.799  0.2233 -0.3893 -0.0749
  374TIP3    H125317   0.087   0.351  19.879 -0.2263 -0.2391 -0.0982
  374TIP3    H225318   0.200   0.380  19.782  0.1278 -0.9944  0.0808
  375TIP3   OH225319   2.965   6.387  19.550 -0.2954  0.5675  0.6409
  375TIP3    H125320   3.002   6.300  19.556 -1.1644  0.0849 -0.5631
  375TIP3    H225321   2.886   6.376  19.497  0.0516  2.2147 -0.2857
  376TIP3   OH225322   6.533   1.448  18.795  0.2051 -0.0554 -0.1823
  376TIP3    H125323   6.562   1.539  18.786  0.1194 -0.1404 -1.5871
  376TIP3    H225324   6.590   1.411  18.863  0.8588  0.7988 -0.2457
  377TIP3   OH225325   5.090   5.544  20.711  0.4594 -0.2405  0.4216
  377TIP3    H125326   5.167   5.601  20.707  0.5847 -0.4475 -0.4528
  377TIP3    H225327   5.045   5.560  20.627 -1.3930  1.1698  1.5980
  378TIP3   OH225328   0.349   2.643  18.053 -0.7015  0.0010 -0.6922
  378TIP3    H125329   0.307   2.615  17.972 -0.3023  0.9221 -1.2386
  378TIP3    H225330   0.343   2.739  18.052 -2.0835 -0.0105  1.1381
  379TIP3   OH225331   2.483   4.262  18.687  0.1042 -0.0407 -0.0237
  379TIP3    H125332   2.412   4.285  18.747  0.6096 -0.7131  0.8440
  379TIP3    H225333   2.491   4.339  18.630 -1.0717  0.1877  0.0920
  380TIP3   OH225334   5.551   0.927  19.612 -0.1125 -0.1596  0.4821
  380TIP3    H125335   5.472   0.962  19.653  1.1713  0.2116  2.8544
  380TIP3    H225336   5.539   0.832  19.615 -0.8871 -0.0938 -0.1416
  381TIP3   OH225337   3.126   6.672  19.905 -0.1336 -0.4857  0.2434
  381TIP3    H125338   3.165   6.741  19.959 -0.3600  1.4490 -1.8856
  381TIP3    H225339   3.200   6.619  19.876  0.1145 -0.8184  1.4276
  382TIP3   OH225340   3.516   0.248  18.818 -0.3644  0.2490 -0.0284
  382TIP3    H125341   3.527   0.197  18.899 -2.2361 -0.6203 -0.2528
  382TIP3    H225342   3.500   0.337  18.848 -0.1764  0.1013  0.5247
  383TIP3   OH225343   1.821   1.691  17.774 -0.0341 -0.0735 -0.1811
  383TIP3    H125344   1.771   1.652  17.845  0.7328  2.0090  1.6322
  383TIP3    H225345   1.912   1.668  17.793  0.1256 -0.0300 -0.8609
  384TIP3   OH225346   4.208   2.755  17.836 -0.5695 -0.0704  0.4917
  384TIP3    H125347   4.148   2.828  17.823 -0.4487 -0.1857 -0.7624
  384TIP3    H225348   4.271   2.788  17.900 -0.4816  0.9582 -0.0995
  385TIP3   OH225349   3.418   6.165  19.593  0.4557  0.4793  0.0902
  385TIP3    H125350   3.339   6.122  19.628  0.6170  1.4945  1.8081
  385TIP3    H225351   3.477   6.093  19.573 -1.0082 -0.3374 -1.6027
  386TIP3   OH225352   4.987   3.446  19.880  0.7128 -0.1266  0.6205
  386TIP3    H125353   4.939   3.372  19.916 -1.5181  1.2748  0.7070
  386TIP3    H225354   5.019   3.494  19.957  1.0720 -0.3062  0.5874
  387TIP3   OH225355   0.968   3.718  18.873 -0.0009  0.5885 -0.7487
  387TIP3    H125356   1.049   3.667  18.874 -0.1326  0.0547  3.8740
  387TIP3    H225357   0.997   3.807  18.852  1.9316  0.4561  0.9769
  388TIP3   OH225358   4.276   1.626  18.088 -0.1267 -0.0334  0.3003
  388TIP3    H125359   4.318   1.627  18.174  0.1720  2.3721  0.2046
  388TIP3    H225360   4.270   1.718  18.064 -1.9504 -0.5490 -1.4358
  389TIP3   OH225361   6.048   6.298  17.207 -0.2805 -0.0917  0.2633
  389TIP3    H125362   5.986   6.293  17.134 -1.6953  0.3853  1.3859
  389TIP3    H225363   6.130   6.264  17.171 -1.0707 -0.3498 -1.3915
  390TIP3   OH225364   1.325   1.910  17.986 -0.2147  0.4110 -0.2093
  390TIP3    H125365   1.387   1.961  18.038 -0.2723  0.1668  0.1023
  390TIP3    H225366   1.377   1.876  17.913  0.1305 -0.1795  0.3031
  391TIP3   OH225367   5.761   6.161  18.805 -0.1414 -0.0807 -0.1118
  391TIP3    H125368   5.794   6.161  18.895 -0.7107  0.3509  0.1017
  391TIP3    H225369   5.794   6.080  18.768 -0.5812 -0.6647  0.7369
  392TIP3   OH225370   5.616   2.951  18.662  0.5419  0.6778 -0.1332
  392TIP3    H125371   5.560   2.991  18.728 -0.8167 -0.5138 -0.5169
  392TIP3    H225372   5.660   2.879  18.709  2.2325  1.9144  0.3027
  393TIP3   OH225373   0.270   2.380  18.512  0.7372 -0.1339  0.0344
  393TIP3    H125374   0.280   2.434  18.434  1.0440 -0.7573 -0.3693
  393TIP3    H225375   0.176   2.379  18.529  0.7754  0.9102  0.3310
  394TIP3   OH225376   5.957   3.188  19.156  0.1662  0.1404 -0.3171
  394TIP3    H125377   5.926   3.261  19.209  0.4128 -0.5416  0.7980
  394TIP3    H225378   5.895   3.184  19.082 -1.5525 -0.2594  1.0698
  395TIP3   OH225379   5.141   3.923  17.263 -0.1296 -0.4577 -0.3032
  395TIP3    H125380   5.051   3.891  17.260 -0.2501 -0.0294 -1.9847
  395TIP3    H225381   5.174   3.913  17.174  1.3361 -0.1631  0.1759
  396TIP3   OH225382   3.949   0.799  17.043  0.3661 -0.4260  0.5395
  396TIP3    H125383   4.011   0.796  16.969  0.2884  0.9188  0.3955
  396TIP3    H225384   3.971   0.880  17.089 -0.6140 -0.4619  1.0874
  397TIP3   OH225385   0.444   1.782  16.784  0.4066 -0.1445 -0.1076
  397TIP3    H125386   0.395   1.821  16.711 -0.9444 -1.3026  0.1537
  397TIP3    H225387   0.423   1.837  16.859  0.7119  0.2423 -0.3006
  398TIP3   OH225388   6.294   6.533  19.517 -0.0889 -0.4024 -0.3034
  398TIP3    H125389   6.259   6.452  19.553 -0.5227 -0.3350 -0.5652
  398TIP3    H225390   6.257   6.538  19.429  1.0344 -0.6162 -0.8049
  399TIP3   OH225391   4.928   1.003  19.652  0.2357 -0.1603  0.0976
  399TIP3    H125392   4.932   1.073  19.587  1.2176  0.4282  0.7654
  399TIP3    H225393   4.835   0.995  19.673  0.0633  0.5936 -0.3514
  400TIP3   OH225394   4.742   1.216  18.982 -0.6869  0.3057  0.1869
  400TIP3    H125395   4.693   1.134  18.974  0.7580 -0.5984 -0.0216
  400TIP3    H225396   4.720   1.266  18.904  1.5776 -1.7626 -1.9728
  401TIP3   OH225397   5.753   5.114  18.618  0.2287 -0.2058 -0.2933
  401TIP3    H125398   5.676   5.155  18.580  0.2751 -0.8172 -1.0787
  401TIP3    H225399   5.812   5.099  18.544  0.5017 -1.0367  0.0700
  402TIP3   OH225400   2.552   1.012  18.035 -0.1198 -0.5493  0.8306
  402TIP3    H125401   2.480   0.973  18.083 -0.8828 -0.3826 -0.1455
  402TIP3    H225402   2.556   0.963  17.953 -1.3971  1.6193 -0.6376
  403TIP3   OH225403   1.641   5.556  18.227 -0.3056  0.0943  0.2356
  403TIP3    H125404   1.588   5.480  18.203  2.8798 -1.7626 -1.6602
  403TIP3    H225405   1.640   5.611  18.149 -0.4476  0.6756  0.6460
  404TIP3   OH225406   4.854   4.462  19.300  0.8823  0.0058 -0.0788
  404TIP3    H125407   4.791   4.414  19.245  1.6940 -1.0286 -0.1497
  404TIP3    H225408   4.909   4.509  19.238 -0.1708  1.4214  0.0043
  405TIP3   OH225409   4.203   2.960  18.713  0.2987  0.9189  0.0962
  405TIP3    H125410   4.200   2.943  18.619  0.8966  0.6753  0.1149
  405TIP3    H225411   4.234   2.878  18.751 -0.9695  0.6619  0.6191
  406TIP3   OH225412   2.027   0.140  18.358  0.1575 -0.1261  0.5643
  406TIP3    H125413   1.958   0.093  18.404  1.3234 -2.4574  0.1053
  406TIP3    H225414   2.108   0.110  18.399  1.0564  0.2597 -0.8357
  407TIP3   OH225415   6.138   5.541  19.187 -0.1317  0.1200  0.1341
  407TIP3    H125416   6.082   5.467  19.166 -0.9133  0.1088  2.1079
  407TIP3    H225417   6.085   5.618  19.165 -0.0056  0.1063 -0.2239
  408TIP3   OH225418   3.357   0.843  18.817  0.0126 -0.3019  0.3506
  408TIP3    H125419   3.385   0.923  18.862  0.0700 -1.1834  1.9730
  408TIP3    H225420   3.274   0.866  18.776  0.9266  1.1035 -0.8283
  409TIP3   OH225421   2.337   2.855  18.577 -0.1108 -1.0557  0.2049
  409TIP3    H125422   2.261   2.797  18.575  0.0990 -1.3280 -1.0991
  409TIP3    H225423   2.402   2.812  18.521  0.6882 -0.4097  0.6115
  410TIP3   OH225424   0.464   0.153  19.049 -0.1584  0.7303 -0.2406
  410TIP3    H125425   0.403   0.080  19.045 -0.6864  1.1998 -0.9938
  410TIP3    H225426   0.424   0.221  18.996  0.4911  1.4495  0.1651
  411TIP3   OH225427   2.383   2.589  19.456  0.0250 -0.5594  0.4593
  411TIP3    H125428   2.341   2.511  19.420  0.0020 -1.3457  2.0874
  411TIP3    H225429   2.435   2.557  19.530  1.0868  0.7980  0.3542
  412TIP3   OH225430   6.366   5.588  18.483 -0.0390 -0.2009  0.1331
  412TIP3    H125431   6.415   5.535  18.546 -1.7375 -1.2377  0.6322
  412TIP3    H225432   6.330   5.660  18.534  0.9048  0.5510 -0.2315
  413TIP3   OH225433   3.597   3.142  18.165 -0.1840  0.2180  0.5140
  413TIP3    H125434   3.548   3.210  18.211 -1.0680 -0.8886  1.2743
  413TIP3    H225435   3.562   3.143  18.076  0.5641  1.4517  0.2158
  414TIP3   OH225436   5.629   0.054  18.702 -0.3977  0.3890  0.1279
  414TIP3    H125437   5.601  -0.022  18.652 -0.5536  1.0340 -0.7912
  414TIP3    H225438   5.715   0.075  18.667 -0.6833  1.0951 -0.1669
  415TIP3   OH225439   3.282   0.019  19.245  0.4084  0.9361 -0.1607
  415TIP3    H125440   3.312   0.072  19.319 -1.0863  1.4679  0.0860
  415TIP3    H225441   3.234  -0.054  19.285  0.3692  0.7253 -0.5869
  416TIP3   OH225442   6.233   3.892  19.669 -0.1647  0.0930 -0.2523
  416TIP3    H125443   6.170   3.956  19.701  1.1997  0.6257  1.5775
  416TIP3    H225444   6.243   3.912  19.576 -1.3626  1.1208 -0.1870
  417TIP3   OH225445   1.630   6.269  16.866  0.0367  0.5671 -0.5867
  417TIP3    H125446   1.610   6.322  16.789  0.7355 -0.0833 -1.2312
  417TIP3    H225447   1.664   6.332  16.930  0.4532  0.9612 -1.1889
  418TIP3   OH225448   4.671   6.273  19.066 -0.5891  0.2950  0.0842
  418TIP3    H125449   4.764   6.254  19.057 -0.8824 -0.6767 -1.1606
  418TIP3    H225450   4.666   6.369  19.072  0.3704  0.4606 -1.4194
  419TIP3   OH225451   6.292   1.955  19.043 -0.1651 -0.0025  0.2392
  419TIP3    H125452   6.367   2.006  19.012 -0.8300  0.0346 -1.3861
  419TIP3    H225453   6.245   1.930  18.964 -1.1293 -1.1906  1.1496
  420TIP3   OH225454   4.621   4.372  17.852 -0.8224 -0.7173  0.2916
  420TIP3    H125455   4.534   4.403  17.828 -0.9123 -1.3573 -0.2269
  420TIP3    H225456   4.676   4.393  17.776 -0.2738  0.6311  1.0152
  421TIP3   OH225457   1.364   6.700  20.036  0.0428  0.1530 -0.0843
  421TIP3    H125458   1.290   6.658  20.082 -0.1295  0.6020  0.0525
  421TIP3    H225459   1.356   6.670  19.946  0.7090 -1.1919  0.2677
  422TIP3   OH225460   1.485   1.346  18.463  0.2530 -0.8087  0.5898
  422TIP3    H125461   1.521   1.288  18.396 -0.1269 -0.1202 -0.2158
  422TIP3    H225462   1.391   1.343  18.450  0.2637  0.5198  0.0774
  423TIP3   OH225463   1.362   2.555  18.192 -0.2741  0.6096 -0.4358
  423TIP3    H125464   1.451   2.558  18.227 -0.5950  0.2482  0.4515
  423TIP3    H225465   1.329   2.643  18.204 -0.6783  0.2925  1.0416
  424TIP3   OH225466   0.168   1.012  19.979 -0.5822 -0.4269 -0.3143
  424TIP3    H125467   0.196   1.056  19.899 -1.7465  1.1223  0.0727
  424TIP3    H225468   0.136   0.927  19.949  3.9890 -2.2328 -0.8067
  425TIP3   OH225469   4.414   6.249  18.964 -0.3973 -0.5152 -0.5535
  425TIP3    H125470   4.378   6.165  18.935  0.0061 -1.2737  1.0218
  425TIP3    H225471   4.508   6.233  18.974 -0.5040 -0.3172  1.0819
  426TIP3   OH225472   2.641   5.840  19.911  0.3389 -0.0403 -0.0448
  426TIP3    H125473   2.610   5.785  19.839  0.3975  0.5158 -0.5132
  426TIP3    H225474   2.579   5.913  19.913  2.1643  1.6763 -1.7235
  427TIP3   OH225475   2.491   5.598  20.241  0.2270 -0.5037 -0.1804
  427TIP3    H125476   2.489   5.552  20.325 -0.9270  1.1664  0.7787
  427TIP3    H225477   2.413   5.566  20.195  0.1221 -0.4381 -0.0497
  428TIP3   OH225478   2.034   0.953  19.688 -0.9666  0.2127  0.3152
  428TIP3    H125479   2.003   0.884  19.629 -0.8313  0.0170  0.4707
  428TIP3    H225480   1.988   0.936  19.770  0.7301 -1.0550  1.0488
  429TIP3   OH225481   6.481   2.948  18.674 -0.2651 -0.3719 -0.1347
  429TIP3    H125482   6.560   3.001  18.677 -0.9669  0.6813  0.4680
  429TIP3    H225483   6.504   2.867  18.719  0.4622 -0.0816  0.0225
  430TIP3   OH225484   3.338   4.711  16.793  0.4803  0.4712  0.5934
  430TIP3    H125485   3.372   4.764  16.721 -0.1003 -2.2850 -1.8990
  430TIP3    H225486   3.416   4.667  16.828  0.4582 -0.1244 -0.0877
  431TIP3   OH225487   1.789   0.262  19.812  0.4561  0.0619 -0.1099
  431TIP3    H125488   1.740   0.342  19.795  0.8343  0.5165  0.8684
  431TIP3    H225489   1.722   0.197  19.831  0.1644  0.2549 -0.4716
  432TIP3   OH225490   0.624   3.658  18.537 -0.4363  0.3038  0.7397
  432TIP3    H125491   0.715   3.659  18.508 -0.9694  1.8993 -1.0798
  432TIP3    H225492   0.595   3.749  18.529 -1.9516 -0.0149  2.1088
  433TIP3   OH225493   0.449   0.104  19.335  0.0262 -0.2517 -0.0286
  433TIP3    H125494   0.357   0.126  19.349 -0.3306 -1.4458 -0.3988
  433TIP3    H225495   0.468   0.136  19.247 -0.2785 -0.7430 -0.2762
  434TIP3   OH225496   5.121   3.781  17.996 -0.1802  0.3568  0.1559
  434TIP3    H125497   5.066   3.767  18.073 -2.0938  1.7362 -0.8613
  434TIP3    H225498   5.059   3.784  17.923  1.3950  0.7652 -1.2244
  435TIP3   OH225499   2.147   5.645  19.803 -0.5078  0.4239  0.0143
  435TIP3    H125500   2.140   5.702  19.879  0.1649 -1.1157  1.2969
  435TIP3    H225501   2.209   5.689  19.745  0.0935  0.9490  1.0321
  436TIP3   OH225502   2.834   4.487  20.069 -0.5254  0.1406 -0.4126
  436TIP3    H125503   2.823   4.402  20.027  1.2664  0.0102 -0.6743
  436TIP3    H225504   2.920   4.484  20.110 -0.2229  1.9684 -0.7888
  437TIP3   OH225505   2.146   5.036  18.920 -0.3197  0.2268  0.4788
  437TIP3    H125506   2.119   5.126  18.904  0.5251  0.2823 -0.8544
  437TIP3    H225507   2.090   5.005  18.991 -1.0184  1.6075  0.5468
  438TIP3   OH225508   0.241   5.127  17.603 -0.1561 -0.4241 -0.3389
  438TIP3    H125509   0.153   5.164  17.588 -0.3765  0.2063  2.0650
  438TIP3    H225510   0.254   5.066  17.531 -3.3192 -1.8328  0.1211
  439TIP3   OH225511   0.719   1.148  19.186  0.0011 -0.5304  0.1552
  439TIP3    H125512   0.741   1.125  19.277 -0.1185  0.3765  0.4256
  439TIP3    H225513   0.670   1.230  19.193  3.0688  1.6152 -0.9059
  440TIP3   OH225514   1.269   3.044  19.758 -0.3271 -0.1260  0.2836
  440TIP3    H125515   1.357   3.007  19.752 -1.0375 -1.8250 -0.2255
  440TIP3    H225516   1.223   2.985  19.818 -1.3365  0.2863 -0.0665
  441TIP3   OH225517   5.412   3.012  18.914 -0.0455 -0.4777  0.3698
  441TIP3    H125518   5.492   3.036  18.962 -0.4916 -0.6352  1.2138
  441TIP3    H225519   5.409   3.074  18.841  1.3239 -1.0499 -0.2085
  442TIP3   OH225520   4.072   2.043  19.723 -0.0574  0.0509  0.5542
  442TIP3    H125521   4.146   2.103  19.712 -0.5007  0.3775 -0.9532
  442TIP3    H225522   3.995   2.098  19.711 -0.4630 -1.0017 -2.4552
  443TIP3   OH225523   6.277   2.865  20.201 -0.3645  0.1045 -0.0375
  443TIP3    H125524   6.267   2.879  20.107 -1.5396  1.8323  0.2930
  443TIP3    H225525   6.215   2.794  20.221  0.5637 -0.9191 -0.6780
  444TIP3   OH225526   1.010   0.532  17.484 -0.1822  0.1152  0.0201
  444TIP3    H125527   0.923   0.565  17.507  0.4594 -0.1163  3.3822
  444TIP3    H225528   1.048   0.504  17.568  2.6880 -0.9353 -1.4686
  445TIP3   OH225529   3.321   5.189  19.287 -0.0030  0.2614  0.5865
  445TIP3    H125530   3.297   5.233  19.206 -0.3760 -0.0405  0.5337
  445TIP3    H225531   3.254   5.216  19.350  0.1805  0.3491  0.7472
  446TIP3   OH225532   2.493   1.698  19.859 -0.2909 -0.4864  0.3059
  446TIP3    H125533   2.546   1.724  19.783 -1.0695 -0.6432 -0.2968
  446TIP3    H225534   2.552   1.643  19.911  0.7404  0.8359  0.5993
  447TIP3   OH225535   4.514   0.589  18.068  0.9681 -0.1139 -0.1326
  447TIP3    H125536   4.524   0.658  18.134 -0.6635 -0.7069  0.7724
  447TIP3    H225537   4.502   0.637  17.986  1.6244  0.6488  0.1948
  448TIP3   OH225538   5.464   5.677  20.205  0.6519 -0.6753 -0.1159
  448TIP3    H125539   5.408   5.672  20.128 -0.1652  0.2314  0.4046
  448TIP3    H225540   5.418   5.626  20.271  0.2762  0.3305  0.4054
  449TIP3   OH225541   5.213   2.179  19.193 -0.1358  0.4453 -0.8481
  449TIP3    H125542   5.122   2.155  19.214 -1.0497  0.6201 -4.0020
  449TIP3    H225543   5.260   2.096  19.190 -0.5526  0.1992 -0.5956
  450TIP3   OH225544   1.590   1.955  18.785  0.4092  0.5983  0.4515
  450TIP3    H125545   1.626   1.894  18.849 -2.0312  0.0066  1.4059
  450TIP3    H225546   1.536   1.900  18.728  0.5318  1.4852 -0.5491
  451TIP3   OH225547   4.862   5.137  17.313 -0.1538  0.7991 -0.1660
  451TIP3    H125548   4.796   5.082  17.355  0.3667  0.6848  0.5368
  451TIP3    H225549   4.864   5.109  17.222  0.6133 -0.8715  0.3289
  452TIP3   OH225550   2.103   6.150  20.087 -0.6545  0.3473 -0.3712
  452TIP3    H125551   2.107   6.238  20.124 -2.5095  0.5939 -0.6664
  452TIP3    H225552   2.132   6.161  19.996 -0.2027  0.5241 -0.2060
  453TIP3   OH225553   3.401   5.241  17.783  0.3772  0.1998  0.0358
  453TIP3    H125554   3.375   5.150  17.795  1.5790  0.0718  2.1699
  453TIP3    H225555   3.494   5.243  17.804  0.5669  1.8006 -0.7429
  454TIP3   OH225556   0.293   3.729  19.277  0.3416 -0.1962 -0.1796
  454TIP3    H125557   0.225   3.736  19.211  0.8674  0.2563 -0.6763
  454TIP3    H225558   0.343   3.651  19.253 -0.4469 -0.9791  0.6212
  455TIP3   OH225559   3.373   1.689  17.670  0.8335  0.7233  0.0315
  455TIP3    H125560   3.405   1.715  17.584 -0.1387  2.0139  0.0252
  455TIP3    H225561   3.452   1.670  17.720  1.4937  1.4269 -0.7069
  456TIP3   OH225562   5.492   3.338  19.546  0.4769  0.7467 -0.4851
  456TIP3    H125563   5.582   3.346  19.514  0.1871  0.2680 -1.4822
  456TIP3    H225564   5.448   3.415  19.512  0.1667  0.2366 -1.2760
  457TIP3   OH225565   4.716   4.684  18.609  0.0957 -0.4508  0.1680
  457TIP3    H125566   4.697   4.777  18.624 -1.8586 -0.7351 -0.2932
  457TIP3    H225567   4.778   4.684  18.536  0.6447  0.5020  0.6126
  458TIP3   OH225568   4.806   6.620  19.103  0.3130 -0.2093  0.1994
  458TIP3    H125569   4.796   6.713  19.123  2.4259  0.1448 -0.1749
  458TIP3    H225570   4.778   6.575  19.182 -2.9180  0.5690 -0.3676
  459TIP3   OH225571   5.204   3.796  18.451 -0.2523 -0.5459 -0.1440
  459TIP3    H125572   5.240   3.718  18.494 -1.1697 -1.6020 -1.2249
  459TIP3    H225573   5.281   3.844  18.420  0.4023 -0.1583  1.9294
  460TIP3   OH225574   1.280   6.533  18.538  0.3386  0.0726 -0.6857
  460TIP3    H125575   1.223   6.465  18.574  1.2699  0.9589  2.7762
  460TIP3    H225576   1.270   6.523  18.443 -4.4011 -0.7706 -0.3710
  461TIP3   OH225577   4.508   1.603  17.484 -0.5720 -0.0634 -0.0238
  461TIP3    H125578   4.468   1.670  17.428 -3.5747 -1.2131  0.5422
  461TIP3    H225579   4.485   1.629  17.573 -0.1407 -0.8655  0.3288
  462TIP3   OH225580   1.074   0.852  19.734  0.2044 -0.6216 -0.2244
  462TIP3    H125581   1.117   0.932  19.704 -0.2188 -0.5004 -0.5369
  462TIP3    H225582   1.125   0.781  19.696  0.0341 -0.4772 -0.7412
  463TIP3   OH225583   5.722   3.792  20.256 -0.0889  0.2063  0.0736
  463TIP3    H125584   5.638   3.807  20.213 -0.4541 -0.4362  0.5398
  463TIP3    H225585   5.720   3.849  20.333 -0.3475 -0.2352  0.3973
  464TIP3   OH225586   3.575   5.540  17.417 -0.2288  0.2799  0.2609
  464TIP3    H125587   3.572   5.555  17.511  0.3898  2.0611  0.0403
  464TIP3    H225588   3.529   5.615  17.379  3.3325  2.0700 -0.9672
  465TIP3   OH225589   2.672   2.728  19.044  0.0047  0.6314  0.1793
  465TIP3    H125590   2.629   2.649  19.013  1.9861  0.2340 -1.7688
  465TIP3    H225591   2.721   2.700  19.121  2.5558 -0.7055 -1.8020
  466TIP3   OH225592   3.764   1.121  20.369  0.3631  0.0683 -0.4950
  466TIP3    H125593   3.695   1.056  20.378 -0.3102  0.6620 -1.1658
  466TIP3    H225594   3.724   1.191  20.316  0.7009  1.5050  1.0376
  467TIP3   OH225595   3.435   4.016  17.634  0.1348 -0.1578  0.3233
  467TIP3    H125596   3.517   3.996  17.590  0.6995 -1.3333  1.8364
  467TIP3    H225597   3.378   3.941  17.615 -0.4099  0.3795 -0.2321
  468TIP3   OH225598   4.919   6.158  17.658 -0.0176  0.3089 -0.0421
  468TIP3    H125599   4.971   6.167  17.578  1.1165  0.6565  0.7115
  468TIP3    H225600   4.859   6.085  17.640  3.5269 -3.0115  0.5192
  469TIP3   OH225601   0.215   2.581  17.800 -0.3077  0.4544  0.6265
  469TIP3    H125602   0.182   2.495  17.774 -0.6405  0.6168  0.5053
  469TIP3    H225603   0.136   2.633  17.815 -0.1117  0.6402  1.0312
  470TIP3   OH225604   1.595   6.157  19.677 -0.4846 -0.0071  0.0121
  470TIP3    H125605   1.659   6.110  19.731  0.8616  0.9335 -0.7026
  470TIP3    H225606   1.536   6.199  19.740  0.2227 -0.0438  0.7125
  471TIP3   OH225607   3.354   5.754  19.045  0.8814 -0.5397  0.8063
  471TIP3    H125608   3.430   5.770  19.102  0.7712 -0.8258  1.0382
  471TIP3    H225609   3.380   5.789  18.960  1.0304 -0.0644  1.0467
  472TIP3   OH225610   0.069   0.673  19.321  0.2562 -0.2408  0.0688
  472TIP3    H125611   0.019   0.753  19.336 -2.0323 -1.1546 -2.0037
  472TIP3    H225612   0.054   0.652  19.229  2.3437 -2.0696  0.0626
  473TIP3   OH225613   2.043   3.936  19.828  0.1150 -0.4766  0.3128
  473TIP3    H125614   2.003   3.878  19.893 -0.7017  0.3318  0.5483
  473TIP3    H225615   2.096   3.997  19.879 -0.2056 -0.0951  0.1960
  474TIP3   OH225616   0.243   2.712  19.788  0.7353  0.2676  0.1754
  474TIP3    H125617   0.271   2.752  19.706  0.4430  1.2836  0.5683
  474TIP3    H225618   0.279   2.623  19.784 -0.3692 -0.1649 -1.6389
  475TIP3   OH225619   4.455   1.416  18.131  0.3454 -0.1624 -0.5184
  475TIP3    H125620   4.441   1.510  18.121  0.7747 -0.0689 -0.2733
  475TIP3    H225621   4.434   1.379  18.045  0.6697  0.2185 -0.7656
  476TIP3   OH225622   2.090   2.067  17.792 -0.4287  0.4898 -0.4813
  476TIP3    H125623   2.142   2.022  17.858 -0.5820 -0.9449 -1.3056
  476TIP3    H225624   2.110   2.160  17.805 -0.1480  0.2233  1.2957
  477TIP3   OH225625   0.089   6.548  18.315 -0.2283 -0.1300 -0.7195
  477TIP3    H125626   0.013   6.551  18.257 -0.3285 -1.3643 -0.6874
  477TIP3    H225627   0.153   6.495  18.267  1.0381  1.7473 -1.2065
  478TIP3   OH225628   2.938   5.502  16.561  0.1183 -0.0512  0.1621
  478TIP3    H125629   2.890   5.507  16.477 -2.6941 -0.6958  1.6023
  478TIP3    H225630   2.982   5.417  16.558 -0.2126 -0.2086 -0.5303
  479TIP3   OH225631   3.357   5.566  20.333 -0.3433 -0.0364  0.0204
  479TIP3    H125632   3.436   5.514  20.348  0.1264  0.8560  0.6871
  479TIP3    H225633   3.288   5.519  20.382 -0.0023 -0.2320  0.3188
  480TIP3   OH225634   3.744   5.147  16.631 -0.0894  0.3536 -0.0061
  480TIP3    H125635   3.706   5.234  16.635  2.1845  1.7014 -3.1842
  480TIP3    H225636   3.805   5.144  16.705 -0.3623  1.3981  0.2699
  481TIP3   OH225637   0.238   4.738  20.309  0.0830 -0.0794  0.7606
  481TIP3    H125638   0.302   4.701  20.249  1.3532  2.2444  0.5683
  481TIP3    H225639   0.184   4.795  20.255 -0.8781 -0.4957  1.2664
  482TIP3   OH225640   5.167   0.756  19.263  0.7002 -0.2912  0.1334
  482TIP3    H125641   5.077   0.785  19.276  0.4596 -0.9712  0.0292
  482TIP3    H225642   5.194   0.722  19.348  0.8863 -0.0190  0.1841
  483TIP3   OH225643   4.522   0.381  17.445 -0.2077 -0.1246 -0.2219
  483TIP3    H125644   4.521   0.292  17.480 -0.2016 -0.0402 -0.0045
  483TIP3    H225645   4.534   0.370  17.350  1.8274 -0.3061  0.0132
  484TIP3   OH225646   0.744   3.789  17.703 -0.5049 -0.2420 -0.1552
  484TIP3    H125647   0.656   3.755  17.689  0.1621 -1.5424 -1.4055
  484TIP3    H225648   0.737   3.840  17.784 -2.3247 -0.5635 -0.0683
  485TIP3   OH225649   5.978   5.989  17.766 -0.0460 -0.0281  0.4237
  485TIP3    H125650   6.039   5.918  17.782  0.2093  0.6651  2.9860
  485TIP3    H225651   5.904   5.948  17.721  0.8202 -1.5459  0.3304
  486TIP3   OH225652   1.062   3.230  18.519 -0.1516  0.1690  0.2523
  486TIP3    H125653   0.996   3.167  18.490 -0.1135 -0.3880  1.3424
  486TIP3    H225654   1.073   3.213  18.612 -0.3970  2.0315  0.6623
  487TIP3   OH225655   5.404   6.196  19.631 -0.3348 -0.2567 -0.7399
  487TIP3    H125656   5.315   6.226  19.611 -0.3541  0.2571  0.0817
  487TIP3    H225657   5.399   6.166  19.722  0.3883  0.0289 -0.5981
  488TIP3   OH225658   2.136   3.125  20.117  0.0243  0.0195  0.1473
  488TIP3    H125659   2.229   3.148  20.128  0.5788 -1.2245 -1.4845
  488TIP3    H225660   2.130   3.034  20.148 -0.1201 -0.6708 -1.7334
  489TIP3   OH225661   2.410   5.805  19.546  0.2461  0.6385 -0.1597
  489TIP3    H125662   2.337   5.862  19.568  0.8857  1.1432  0.6873
  489TIP3    H225663   2.444   5.839  19.463  1.0478  1.9493  0.6623
  490TIP3   OH225664   5.378   5.827  19.762 -0.3322  1.2033 -0.3653
  490TIP3    H125665   5.369   5.830  19.667 -0.9121 -0.6459 -0.4072
  490TIP3    H225666   5.439   5.755  19.778 -1.0454  0.8168  0.6950
  491TIP3   OH225667   0.050   2.480  18.128 -0.4598 -0.1008  0.2774
  491TIP3    H125668   0.068   2.555  18.186 -2.3331  0.4364  0.2513
  491TIP3    H225669   0.085   2.405  18.175  1.6629  0.7828  0.2140
  492TIP3   OH225670   5.001   4.611  19.105  0.1574 -0.6383  0.2207
  492TIP3    H125671   5.050   4.574  19.032  0.7330 -0.3554  0.4518
  492TIP3    H225672   4.976   4.698  19.075  1.9538  0.2043  0.9801
  493TIP3   OH225673   0.397   3.146  19.202 -0.2818 -0.1169 -0.0457
  493TIP3    H125674   0.482   3.109  19.177 -1.0844 -1.8799 -0.3413
  493TIP3    H225675   0.334   3.076  19.182 -1.5566  0.3236  2.1261
  494TIP3   OH225676   2.419   2.295  17.766 -0.4383 -0.1610 -0.2968
  494TIP3    H125677   2.414   2.379  17.812  1.1619  0.5065 -1.2517
  494TIP3    H225678   2.408   2.318  17.673  1.7185 -0.7362 -0.7511
  495TIP3   OH225679   3.059   2.893  18.308 -0.3399  0.2599  0.1947
  495TIP3    H125680   3.105   2.854  18.383 -1.4894  0.7245  1.1624
  495TIP3    H225681   3.115   2.966  18.281  0.1858 -0.0412  0.4491
  496TIP3   OH225682   1.515   2.347  17.653  0.0841  0.3890  1.2745
  496TIP3    H125683   1.426   2.343  17.687  0.6009 -0.2190  2.6587
  496TIP3    H225684   1.536   2.441  17.651 -2.2351  1.1293 -3.9065
  497TIP3   OH225685   4.628   4.997  17.393 -0.4916  0.6365 -0.4097
  497TIP3    H125686   4.624   4.916  17.445  0.5569  0.6973 -0.2156
  497TIP3    H225687   4.555   5.050  17.426  0.0576  0.6136  0.9196
  498TIP3   OH225688   3.646   2.023  18.745 -0.2085 -0.1230  0.5514
  498TIP3    H125689   3.581   1.981  18.801  0.0045 -0.6423  0.4224
  498TIP3    H225690   3.635   1.981  18.660 -1.6224  1.7928 -0.2682
  499TIP3   OH225691   0.483   4.313  17.657  0.6318  0.1187  0.7252
  499TIP3    H125692   0.390   4.299  17.675  0.1055 -2.2555 -2.8678
  499TIP3    H225693   0.487   4.401  17.619 -0.0758  0.3842  1.2449
  500TIP3   OH225694   4.745   4.884  19.097  0.2234  0.1790 -1.1497
  500TIP3    H125695   4.753   4.945  19.171  0.1482 -0.3508 -0.6953
  500TIP3    H225696   4.708   4.937  19.027 -0.6904  0.4451 -0.4881
  501TIP3   OH225697   4.874   0.596  18.334 -0.1400 -0.4309 -0.8064
  501TIP3    H125698   4.829   0.679  18.325  0.1666 -0.2091 -0.3732
  501TIP3    H225699   4.816   0.543  18.388  0.4064  0.1003  0.3532
  502TIP3   OH225700   1.007   0.531  19.997  0.1729 -0.1295 -0.2652
  502TIP3    H125701   1.002   0.535  19.901  0.8374  1.3596 -0.2565
  502TIP3    H225702   0.995   0.621  20.026  0.3004 -0.5107  1.0447
  503TIP3   OH225703   5.526   4.432  18.546 -0.3867 -0.3873  0.0757
  503TIP3    H125704   5.587   4.377  18.595  1.4173  1.3599 -0.0480
  503TIP3    H225705   5.511   4.507  18.604 -1.2752 -0.1010 -0.5099
  504TIP3   OH225706   5.766   4.002  20.443  0.1515 -0.3684  0.5094
  504TIP3    H125707   5.790   4.009  20.535 -0.7071 -0.4268  0.7462
  504TIP3    H225708   5.766   4.093  20.412  0.6835 -0.3696  0.4978
  505TIP3   OH225709   5.156   1.412  18.235  0.3603 -0.1858 -0.2363
  505TIP3    H125710   5.108   1.446  18.160  1.5479  1.2041 -0.4147
  505TIP3    H225711   5.127   1.466  18.309  1.4035  0.5067 -0.3016
  506TIP3   OH225712   1.654   2.802  19.456  0.6382  0.2720  0.0309
  506TIP3    H125713   1.579   2.752  19.488  0.9401  0.3883  0.9453
  506TIP3    H225714   1.685   2.753  19.380  0.3781 -0.4286  0.3751
  507TIP3   OH225715   5.573   4.757  19.739  0.0156  0.7159 -0.1936
  507TIP3    H125716   5.556   4.813  19.815  0.6605  0.6535  0.0037
  507TIP3    H225717   5.650   4.706  19.764 -1.7777 -1.8487  0.5140
  508TIP3   OH225718   4.667   3.694  19.044 -0.4951  0.2121 -0.1672
  508TIP3    H125719   4.618   3.773  19.066 -0.8878 -0.1791  0.4270
  508TIP3    H225720   4.604   3.623  19.059  0.3788 -0.3396  1.0655
  509TIP3   OH225721   0.259   3.988  20.409 -0.3177  0.6448 -0.0497
  509TIP3    H125722   0.352   3.990  20.388 -0.4539  3.1861 -0.8587
  509TIP3    H225723   0.255   3.992  20.504  0.4428  1.8683 -0.0538
  510TIP3   OH225724   6.098   2.756  18.777  0.0001  0.6106 -0.1412
  510TIP3    H125725   6.092   2.674  18.729 -0.7750  1.2508 -1.1649
  510TIP3    H225726   6.043   2.817  18.729  1.8347  2.2030 -0.3815
  511TIP3   OH225727   5.868   0.404  17.321 -0.0683  0.6301 -0.2861
  511TIP3    H125728   5.911   0.478  17.364  0.0487 -0.0363  0.7718
  511TIP3    H225729   5.777   0.410  17.350 -0.3462  1.0910 -1.2219
  512TIP3   OH225730   2.112   2.804  19.245 -0.2496  0.4681  0.3328
  512TIP3    H125731   2.103   2.738  19.176  1.2475 -0.8051  1.2927
  512TIP3    H225732   2.086   2.886  19.203 -1.0073 -0.5242 -1.2416
  513TIP3   OH225733   1.335   0.844  18.635  0.2430 -0.0433  0.1305
  513TIP3    H125734   1.264   0.898  18.600  0.9241  0.4644 -0.4953
  513TIP3    H225735   1.294   0.796  18.707 -0.8983 -0.2232 -0.5950
  514TIP3   OH225736   3.608   6.381  18.175  0.4013 -0.2031 -0.3890
  514TIP3    H125737   3.536   6.345  18.123  1.1031  0.0459 -1.5855
  514TIP3    H225738   3.635   6.460  18.128  1.3669 -0.2169  0.1061
  515TIP3   OH225739   6.393   6.593  20.331 -0.0068  0.1522 -0.4568
  515TIP3    H125740   6.332   6.654  20.373  0.6541  0.8474 -0.4893
  515TIP3    H225741   6.338   6.519  20.304 -0.6581  0.3116  0.4095
  516TIP3   OH225742   4.841   4.208  19.910 -0.1618  0.0540 -0.2925
  516TIP3    H125743   4.888   4.196  19.992 -1.5487  0.3765  0.5800
  516TIP3    H225744   4.906   4.245  19.851  1.1449 -1.1488  0.3193
  517TIP3   OH225745   5.466   2.603  18.652 -0.3213  0.3655 -0.2292
  517TIP3    H125746   5.549   2.595  18.698  0.2469  0.4014 -1.2259
  517TIP3    H225747   5.414   2.663  18.706 -0.4583 -1.2022  1.4358
  518TIP3   OH225748   3.912   5.147  20.370 -0.1478  0.3154  0.5887
  518TIP3    H125749   4.006   5.136  20.379 -0.2784  0.4712  2.3972
  518TIP3    H225750   3.894   5.236  20.400 -0.9253  0.0991  0.8041
  519TIP3   OH225751   5.535   6.374  17.720 -0.6142 -0.3059  0.0810
  519TIP3    H125752   5.475   6.429  17.770 -0.3553 -0.3400  0.4335
  519TIP3    H225753   5.528   6.406  17.630 -2.2706 -1.2711 -0.1715
  520TIP3   OH225754   0.602   1.565  20.149  0.1786  0.0220 -0.3218
  520TIP3    H125755   0.634   1.652  20.173  0.6879  0.3006 -1.8951
  520TIP3    H225756   0.678   1.521  20.110 -0.7570 -0.0504 -2.2081
  521TIP3   OH225757   6.636   1.135  18.333 -0.1245 -0.3075  1.0077
  521TIP3    H125758   6.601   1.106  18.417 -0.3065  1.1354  1.4530
  521TIP3    H225759   6.731   1.132  18.344 -0.1460 -0.2831  1.2079
  522TIP3   OH225760   3.541   4.213  18.509  0.4115 -0.1121 -0.3318
  522TIP3    H125761   3.477   4.209  18.580 -0.4970  4.5976 -0.5583
  522TIP3    H225762   3.626   4.212  18.554  0.2761 -3.4532  0.1588
  523TIP3   OH225763   5.941   6.655  17.319 -0.5757  0.0296 -0.0032
  523TIP3    H125764   5.972   6.565  17.327 -1.1818 -0.2395 -0.6051
  523TIP3    H225765   6.011   6.708  17.358 -1.0038 -0.8185  1.9992
  524TIP3   OH225766   6.343   5.253  18.234  0.5429  0.3599 -0.4131
  524TIP3    H125767   6.420   5.309  18.239  0.7054  0.1206 -0.2109
  524TIP3    H225768   6.333   5.234  18.141  1.5202 -0.6938 -0.3242
  525TIP3   OH225769   1.097   0.058  18.702  0.7809  0.0837 -0.5872
  525TIP3    H125770   1.027  -0.006  18.688 -1.0377  2.0193 -0.7927
  525TIP3    H225771   1.100   0.109  18.621  2.0545  0.4048 -0.3547
  526TIP3   OH225772   3.167   6.250  20.335 -0.3382 -0.5991 -0.2394
  526TIP3    H125773   3.111   6.304  20.390  0.3696 -1.2424  1.1791
  526TIP3    H225774   3.143   6.273  20.246 -0.9519  1.0859  0.3248
  527TIP3   OH225775   4.418   3.834  20.423 -0.4845 -0.1907  0.3484
  527TIP3    H125776   4.395   3.744  20.448 -0.4108 -0.8087 -1.6063
  527TIP3    H225777   4.483   3.823  20.353 -1.3078  1.3536 -0.7190
  528TIP3   OH225778   5.153   5.493  18.827  0.5785 -0.2929  0.1405
  528TIP3    H125779   5.182   5.545  18.902 -2.5678 -0.3183  1.5697
  528TIP3    H225780   5.079   5.542  18.791 -0.3803 -2.1119 -0.5216
  529TIP3   OH225781   6.374   0.866  17.456  0.2650  0.3220  0.7999
  529TIP3    H125782   6.417   0.910  17.383  0.3703  2.3449  2.0112
  529TIP3    H225783   6.304   0.927  17.483  1.0442  0.2727  3.1820
  530TIP3   OH225784   3.093   0.680  19.565 -0.5195 -0.0607 -0.4100
  530TIP3    H125785   3.040   0.610  19.528  0.3598 -0.8388 -0.2328
  530TIP3    H225786   3.182   0.662  19.534 -0.0201  0.1001  0.8582
  531TIP3   OH225787   1.564   6.517  18.367  0.0880  0.0289  0.4680
  531TIP3    H125788   1.484   6.487  18.410  1.3344 -2.0219  1.5497
  531TIP3    H225789   1.584   6.447  18.304  1.0952  0.4380  0.3212
  532TIP3   OH225790   4.061   0.736  20.140  0.0254 -0.2159 -0.9498
  532TIP3    H125791   4.116   0.671  20.095 -0.8111  0.0828 -2.4929
  532TIP3    H225792   4.095   0.821  20.110 -0.6173 -0.0091 -1.1037
  533TIP3   OH225793   0.077   0.387  18.972  0.1845  0.2025 -0.6325
  533TIP3    H125794  -0.007   0.379  18.927  0.1320 -1.3208 -0.3207
  533TIP3    H225795   0.143   0.374  18.904  0.1243 -0.4634 -0.5750
  534TIP3   OH225796   6.607   5.582  19.578  0.0414 -1.1845  0.1820
  534TIP3    H125797   6.677   5.647  19.585 -0.4440 -0.6023 -0.2595
  534TIP3    H225798   6.565   5.602  19.494 -0.7003 -1.4857  0.4833
  535TIP3   OH225799   5.323   0.132  19.523  0.2133  0.0581  0.6487
  535TIP3    H125800   5.244   0.148  19.574  1.2828  1.7233  1.9407
  535TIP3    H225801   5.299   0.064  19.460 -1.4639 -1.3857  2.7287
  536TIP3   OH225802   4.353   3.082  17.673  0.3915  0.4574  0.1692
  536TIP3    H125803   4.377   2.992  17.693  3.6742  0.5005 -2.5627
  536TIP3    H225804   4.284   3.074  17.607 -0.2346 -0.0090  0.8744
  537TIP3   OH225805   2.516   6.611  18.708 -0.0949  0.0221  1.0220
  537TIP3    H125806   2.428   6.617  18.671  0.3017  0.0060  0.0462
  537TIP3    H225807   2.509   6.653  18.793 -1.0251  0.1060  0.9174
  538TIP3   OH225808   4.956   5.433  18.421 -0.5344  0.7719  0.4027
  538TIP3    H125809   4.874   5.481  18.424 -0.9795 -0.0034  1.4955
  538TIP3    H225810   4.931   5.342  18.437  0.7330  0.8084  3.2585
  539TIP3   OH225811   0.301   6.560  17.919  0.8483  0.4672  0.6430
  539TIP3    H125812   0.281   6.569  17.826  0.6913 -1.3993  0.4636
  539TIP3    H225813   0.249   6.629  17.961  0.1121  0.6717 -0.5519
  540TIP3   OH225814   2.489   3.368  20.015 -0.0598  0.2561  0.0496
  540TIP3    H125815   2.452   3.297  20.068 -1.2267 -0.6205 -1.8229
  540TIP3    H225816   2.553   3.326  19.959  1.3023  1.2046  0.8251
  541TIP3   OH225817   3.660   5.860  18.518  0.2060 -0.0132 -0.0079
  541TIP3    H125818   3.600   5.932  18.539 -0.7651 -0.5728 -0.7225
  541TIP3    H225819   3.709   5.845  18.599 -0.9427  0.1777  0.7509
  542TIP3   OH225820   1.215   3.941  17.950  0.7815  0.1707 -0.0012
  542TIP3    H125821   1.145   3.912  18.009  0.1491  0.6729 -0.4939
  542TIP3    H225822   1.180   4.020  17.908  1.3886  0.0583 -0.7424
  543TIP3   OH225823   0.282   6.676  19.036 -0.1989  0.0325  0.6693
  543TIP3    H125824   0.234   6.637  19.109 -1.6202  0.2997 -0.0821
  543TIP3    H225825   0.222   6.667  18.961  0.6682  0.9713 -0.1627
  544TIP3   OH225826   3.788   2.531  18.161 -0.1534 -0.0066  0.3952
  544TIP3    H125827   3.829   2.564  18.242  1.5091 -0.8536 -0.0594
  544TIP3    H225828   3.713   2.588  18.148 -0.9904 -0.3687  3.0077
  545TIP3   OH225829   3.611   4.665  19.712 -0.3427  0.0049  0.2658
  545TIP3    H125830   3.599   4.614  19.792  1.5911  0.1641  0.6884
  545TIP3    H225831   3.658   4.608  19.653 -1.3136  0.0739 -0.6040
  546TIP3   OH225832   0.815   1.971  19.565 -0.3002 -0.0674 -0.0336
  546TIP3    H125833   0.839   1.961  19.473 -0.5825  1.2694 -0.2709
  546TIP3    H225834   0.893   2.010  19.606 -0.4338  0.0253  0.1343
  547TIP3   OH225835   4.291   3.294  19.963 -0.6857  0.5520 -0.1790
  547TIP3    H125836   4.279   3.387  19.942 -0.6820  0.1771 -2.0733
  547TIP3    H225837   4.227   3.276  20.032 -1.3517  1.7483 -0.4519
  548TIP3   OH225838   1.769   0.341  19.466  0.4050 -0.1383 -0.4447
  548TIP3    H125839   1.702   0.280  19.496  1.1569 -0.5427  0.4576
  548TIP3    H225840   1.766   0.413  19.530 -0.0110  0.4645 -1.1169
  549TIP3   OH225841   4.538   1.103  16.540 -0.2786  0.4573  0.2476
  549TIP3    H125842   4.488   1.023  16.555  1.9879 -0.8834  1.2187
  549TIP3    H225843   4.568   1.130  16.627  0.0536  1.6523 -0.2049
  550TIP3   OH225844   5.576   2.876  16.815  0.7586  0.6181  0.3724
  550TIP3    H125845   5.561   2.967  16.839 -0.3125  0.6685 -0.3918
  550TIP3    H225846   5.661   2.854  16.852  1.0535  1.9437  0.5063
  551TIP3   OH225847   3.252   6.640  20.145  0.1798 -0.3078  0.5442
  551TIP3    H125848   3.210   6.563  20.106  1.7253 -0.4247 -1.0300
  551TIP3    H225849   3.285   6.609  20.229  1.9598 -1.8240 -0.6335
  552TIP3   OH225850   3.037   1.076  17.977 -0.0040 -0.0905  0.1882
  552TIP3    H125851   3.068   1.112  17.894  2.1117 -0.5019  0.7214
  552TIP3    H225852   2.960   1.025  17.954  0.9944 -0.8665 -1.7051
  553TIP3   OH225853   4.468   1.274  19.764  0.0915  0.2339 -0.4007
  553TIP3    H125854   4.473   1.198  19.707 -3.3521 -1.2367  0.9592
  553TIP3    H225855   4.416   1.338  19.714  1.3502  0.9791 -0.7945
  554TIP3   OH225856   0.299   4.973  16.725  0.2489 -0.1316 -0.6388
  554TIP3    H125857   0.337   5.038  16.666 -0.9615  0.5133 -0.7389
  554TIP3    H225858   0.205   4.975  16.706  0.3310 -3.1607 -1.8400
  555TIP3   OH225859   5.850   5.521  20.562 -0.3299  0.8041 -0.0568
  555TIP3    H125860   5.847   5.521  20.467  0.5391  0.8461 -0.0864
  555TIP3    H225861   5.919   5.459  20.584  1.1572  2.5733  0.4808
  556TIP3   OH225862   2.962   2.246  20.147  0.3650 -0.0137  0.4219
  556TIP3    H125863   2.875   2.282  20.132  0.3162 -0.1687  0.3351
  556TIP3    H225864   2.961   2.217  20.238  0.7224  1.1011  0.7985
  557TIP3   OH225865   3.433   0.501  18.896  0.3203  0.2564  0.0864
  557TIP3    H125866   3.389   0.510  18.812  0.7290  0.2550 -0.1267
  557TIP3    H225867   3.398   0.573  18.949  0.9413  0.9736 -0.4668
  558TIP3   OH225868   2.897   5.399  19.823  0.0656  0.7484 -0.3986
  558TIP3    H125869   2.909   5.487  19.859 -0.2323  1.3401 -1.6920
  558TIP3    H225870   2.983   5.357  19.831  0.4583  1.5004 -0.6593
  559TIP3   OH225871   6.112   0.824  17.329 -0.5895 -0.1366 -0.5608
  559TIP3    H125872   6.056   0.884  17.377  0.1713  0.4841 -0.4248
  559TIP3    H225873   6.180   0.799  17.391 -0.4644 -0.5447 -0.8500
  560TIP3   OH225874   6.486   3.170  20.416 -0.1138 -0.1243  0.4788
  560TIP3    H125875   6.395   3.159  20.388  0.6085  0.1608 -2.3637
  560TIP3    H225876   6.500   3.265  20.412  0.8562 -0.2926 -1.3836
  561TIP3   OH225877   1.689   2.039  18.492 -0.2687 -0.3352  0.2624
  561TIP3    H125878   1.677   1.965  18.432 -0.3253 -0.4830  0.4572
  561TIP3    H225879   1.749   2.006  18.559 -0.5108 -0.2907  0.4993
  562TIP3   OH225880   5.334   0.287  18.899  0.1359  0.0284 -0.3112
  562TIP3    H125881   5.265   0.260  18.839  0.1370 -0.3065 -0.1633
  562TIP3    H225882   5.327   0.227  18.973  1.1552 -0.5876 -0.6953
  563TIP3   OH225883   3.426   6.644  19.575  0.0392 -0.7808 -0.3926
  563TIP3    H125884   3.468   6.676  19.655  0.2663  0.3989 -0.9468
  563TIP3    H225885   3.351   6.593  19.605 -0.8665  1.0085  0.6003
  564TIP3   OH225886   2.716   6.699  19.536 -0.0806 -0.0447 -0.0049
  564TIP3    H125887   2.794   6.704  19.592  1.0070 -2.1333 -1.2172
  564TIP3    H225888   2.643   6.720  19.594  1.3119  1.5762  1.2657
  565TIP3   OH225889   0.954   3.627  17.587 -0.1793  0.4221 -0.3315
  565TIP3    H125890   0.938   3.535  17.568  0.0790  0.5923 -1.4414
  565TIP3    H225891   0.868   3.663  17.607  0.0044 -0.6692  3.2518
  566TIP3   OH225892   0.626   3.422  18.707  0.3392 -0.4143  0.2349
  566TIP3    H125893   0.642   3.476  18.629  1.5414 -1.0178  0.0336
  566TIP3    H225894   0.707   3.430  18.757 -0.5746  0.3017  1.6583
  567TIP3   OH225895   5.647   3.640  17.660  0.0538 -0.0440 -0.3598
  567TIP3    H125896   5.640   3.544  17.665 -0.3416 -0.0340 -0.6899
  567TIP3    H225897   5.659   3.667  17.751 -0.3966 -0.3712 -0.1924
  568TIP3   OH225898   1.095   6.347  18.624  0.0720 -0.3093 -0.0537
  568TIP3    H125899   1.012   6.336  18.577  1.0946  1.0255 -2.3183
  568TIP3    H225900   1.069   6.350  18.716 -2.5001  0.6624 -0.7205
  569TIP3   OH225901   3.191   1.628  19.144 -0.3170  0.2756 -0.0613
  569TIP3    H125902   3.152   1.579  19.072  0.2259  0.0530 -0.2075
  569TIP3    H225903   3.118   1.646  19.203 -0.9733  1.4021 -1.1774
  570TIP3   OH225904   6.013   6.230  20.636  0.2044 -0.4223 -0.2648
  570TIP3    H125905   6.067   6.288  20.691  0.4769 -0.8306 -0.1029
  570TIP3    H225906   6.073   6.200  20.568  0.0698 -0.5457 -0.3278
  571TIP3   OH225907   5.842   4.634  19.028 -0.0795 -0.1945 -0.1789
  571TIP3    H125908   5.901   4.611  19.101  0.6147 -0.5821 -0.8463
  571TIP3    H225909   5.759   4.653  19.070  0.3148 -0.3972  0.7265
  572TIP3   OH225910   1.486   3.107  18.141  0.0669 -0.7679  0.0326
  572TIP3    H125911   1.429   3.105  18.218  0.3694  0.6957  0.3157
  572TIP3    H225912   1.540   3.185  18.152  0.7563 -1.0298 -1.2241
  573TIP3   OH225913   0.046   2.751  17.985 -0.2160  0.5113  0.3049
  573TIP3    H125914   0.056   2.710  18.070 -0.5217 -0.0746  0.0607
  573TIP3    H225915   0.028   2.843  18.005  0.0371  0.4458  0.8596
  574TIP3   OH225916   1.170   3.667  17.892  0.1709  0.0052 -0.8085
  574TIP3    H125917   1.224   3.732  17.848 -1.1019 -0.1159 -2.6601
  574TIP3    H225918   1.112   3.718  17.949  1.6506  0.1836  0.5982
  575TIP3   OH225919   5.698   1.409  19.114  0.0172 -0.0150 -0.0666
  575TIP3    H125920   5.722   1.411  19.021  0.7543  0.7913  0.1270
  575TIP3    H225921   5.644   1.330  19.123  0.5913 -0.5433 -1.0212
  576TIP3   OH225922   6.186   0.426  19.786 -0.0137 -0.2608  0.2929
  576TIP3    H125923   6.209   0.390  19.700  1.7697  2.3452 -0.4409
  576TIP3    H225924   6.149   0.512  19.768  0.1777  0.2577  2.1195
  577TIP3   OH225925   5.539   1.824  18.451  0.5131  0.3700 -0.6486
  577TIP3    H125926   5.589   1.838  18.531 -1.9409 -0.2652  1.0898
  577TIP3    H225927   5.559   1.734  18.426 -1.3004 -0.6540  1.2870
  578TIP3   OH225928   1.430   6.599  18.027  0.1712  0.0897  0.2887
  578TIP3    H125929   1.434   6.617  17.933  0.6061  4.8393  0.9652
  578TIP3    H225930   1.517   6.619  18.060 -0.5701  0.7344  1.9736
  579TIP3   OH225931   3.849   2.344  18.779  0.1394 -0.3425 -0.3526
  579TIP3    H125932   3.824   2.434  18.757 -0.0934 -0.2146  0.4100
  579TIP3    H225933   3.913   2.354  18.850 -0.0228 -0.7800 -0.1387
  580TIP3   OH225934   0.611   5.623  18.660 -0.2392 -0.3352  0.0587
  580TIP3    H125935   0.659   5.640  18.579  0.0794 -0.2837  0.2564
  580TIP3    H225936   0.532   5.576  18.632  0.1506 -0.8325 -0.2184
  581TIP3   OH225937   6.475   5.535  17.811  0.0554 -0.1211  0.5874
  581TIP3    H125938   6.510   5.599  17.874 -0.0993  0.3486  0.2003
  581TIP3    H225939   6.506   5.451  17.843  0.0906  0.1269  1.2248
  582TIP3   OH225940   5.611   1.160  18.230 -0.6184 -0.8108  0.4064
  582TIP3    H125941   5.615   1.202  18.316  2.1182 -1.1381  0.5311
  582TIP3    H225942   5.635   1.229  18.168 -0.8345 -1.0145  0.0924
  583TIP3   OH225943   0.867   5.277  17.946 -0.4381 -0.5786 -0.2566
  583TIP3    H125944   0.835   5.304  17.860  2.3046  0.3810 -1.0936
  583TIP3    H225945   0.830   5.341  18.006 -1.2041 -0.3644 -0.9383
  584TIP3   OH225946   4.972   1.149  17.738  0.1649 -0.0991  0.5159
  584TIP3    H125947   4.998   1.213  17.672 -1.2583 -0.7019 -0.6848
  584TIP3    H225948   5.030   1.166  17.812  1.9287  0.4891 -0.9410
  585TIP3   OH225949   2.931   4.408  18.147  0.2097  0.0731 -0.3282
  585TIP3    H125950   2.835   4.408  18.150  0.2218  0.8231  1.2586
  585TIP3    H225951   2.957   4.383  18.235  1.4302  3.5064  0.4555
  586TIP3   OH225952   3.587   1.313  20.213 -0.0929 -0.3183 -0.7087
  586TIP3    H125953   3.612   1.391  20.262  0.0502 -0.5531 -0.4066
  586TIP3    H225954   3.509   1.341  20.164  1.0381  0.5636 -2.0737
  587TIP3   OH225955   2.637   1.228  18.153  0.0197 -0.1949  0.0998
  587TIP3    H125956   2.628   1.192  18.241  0.2112 -1.2479 -0.3007
  587TIP3    H225957   2.628   1.153  18.095  0.2047  0.4404 -0.7756
  588TIP3   OH225958   0.244   3.184  20.002 -0.0553 -0.1271 -0.4761
  588TIP3    H125959   0.206   3.110  19.956 -0.2185  0.1209 -0.7412
  588TIP3    H225960   0.174   3.249  20.007  0.6903  0.8708 -2.1568
  589TIP3   OH225961   4.138   6.576  19.481 -0.3523 -0.1427  0.0380
  589TIP3    H125962   4.190   6.617  19.549  1.1401  0.2665 -1.2772
  589TIP3    H225963   4.151   6.482  19.495 -1.5971 -0.1481  1.4159
  590TIP3   OH225964   0.434   4.369  17.321  0.2047 -0.4413  0.3490
  590TIP3    H125965   0.384   4.300  17.364 -0.7978  0.3332  0.4537
  590TIP3    H225966   0.473   4.419  17.393 -1.4305  0.8231  0.4183
  591TIP3   OH225967   0.886   0.553  17.956 -0.1171  0.3925 -0.6342
  591TIP3    H125968   0.927   0.586  18.036 -0.4667  0.8006 -0.6180
  591TIP3    H225969   0.858   0.632  17.910  1.2615  0.2442 -1.8028
  592TIP3   OH225970   0.225   4.788  19.416  0.0175 -0.0551  0.3775
  592TIP3    H125971   0.225   4.796  19.512 -1.1499 -2.2831  0.6294
  592TIP3    H225972   0.132   4.786  19.393  0.2906  0.6730 -0.8505
  593TIP3   OH225973   0.840   6.215  17.363  0.4058  0.3617  0.3481
  593TIP3    H125974   0.776   6.246  17.299 -0.8818 -0.4533  1.2113
  593TIP3    H225975   0.915   6.188  17.311 -0.1509  0.8367 -0.7243
  594TIP3   OH225976   4.429   2.840  17.979 -0.3845 -0.0990 -0.3312
  594TIP3    H125977   4.428   2.917  18.036 -1.4879  0.1930 -0.7296
  594TIP3    H225978   4.514   2.844  17.935 -0.2945  0.7017 -0.0946
  595TIP3   OH225979   5.896   4.246  18.215  0.0439  0.0370 -0.6648
  595TIP3    H125980   5.847   4.320  18.252 -0.7145 -0.3211 -0.9372
  595TIP3    H225981   5.856   4.169  18.256  0.3248 -0.2622 -0.9584
  596TIP3   OH225982   6.221   1.649  20.049  0.3303 -0.3314  0.2629
  596TIP3    H125983   6.164   1.572  20.041 -0.7364  0.4004  0.5514
  596TIP3    H225984   6.176   1.717  19.998  1.0432  0.2205  0.3550
  597TIP3   OH225985   3.157   1.850  17.268  0.0331  0.0472 -0.5474
  597TIP3    H125986   3.110   1.858  17.185 -0.2555 -0.4853 -0.4392
  597TIP3    H225987   3.224   1.919  17.265 -0.5450  0.6058 -0.8443
  598TIP3   OH225988   6.008   4.913  18.796  0.1196 -0.5459 -0.8037
  598TIP3    H125989   6.073   4.962  18.746 -0.4538  0.5989 -0.4684
  598TIP3    H225990   6.042   4.824  18.800  1.4007 -0.0814 -1.0734
  599TIP3   OH225991   2.381   2.470  19.890  0.5098 -0.0627 -0.4466
  599TIP3    H125992   2.410   2.384  19.859 -1.1450 -0.7770 -0.1235
  599TIP3    H225993   2.289   2.474  19.864 -0.5934 -0.1013  3.0354
  600TIP3   OH225994   0.416   2.349  17.897 -0.4382  0.1981  0.4536
  600TIP3    H125995   0.365   2.279  17.939 -0.3833 -0.4021 -0.4542
  600TIP3    H225996   0.354   2.390  17.836 -0.7833  1.6639  1.7382
  601TIP3   OH225997   2.508   1.531  17.628  0.0528 -0.0617  0.9487
  601TIP3    H125998   2.501   1.526  17.723 -2.5599 -1.1895  0.7634
  601TIP3    H225999   2.429   1.576  17.600  0.7460  0.1968 -0.7353
  602TIP3   OH226000   1.779   6.585  19.410 -0.4657  0.2291  0.3842
  602TIP3    H126001   1.712   6.635  19.364 -1.9302 -1.5324  0.4949
  602TIP3    H226002   1.731   6.516  19.455  1.1323  0.6005  2.8695
  603TIP3   OH226003   1.162   3.149  18.770 -0.1221  0.1952 -0.1588
  603TIP3    H126004   1.247   3.123  18.807 -0.1516  0.8933  0.4067
  603TIP3    H226005   1.132   3.071  18.724  0.1481 -0.5482  0.8759
  604TIP3   OH226006   0.694   0.644  19.883  0.0269  0.1402 -0.2048
  604TIP3    H126007   0.665   0.576  19.822 -0.3185  0.7227 -0.7025
  604TIP3    H226008   0.625   0.648  19.949  0.8667 -1.1693  0.7930
  605TIP3   OH226009   5.099   0.549  17.506  0.0489  0.3268 -0.3004
  605TIP3    H126010   5.075   0.624  17.561  0.9627  1.8833 -1.9497
  605TIP3    H226011   5.177   0.512  17.549 -1.0452 -0.4473  1.1417
  606TIP3   OH226012   4.211   3.375  20.542 -0.8088 -0.2619  0.0805
  606TIP3    H126013   4.169   3.299  20.503 -0.8875 -0.1220 -0.1089
  606TIP3    H226014   4.288   3.339  20.587 -0.1560 -0.3173 -1.0389
  607TIP3   OH226015   5.721   5.464  18.466 -0.2117 -0.2538  0.0181
  607TIP3    H126016   5.737   5.380  18.424  0.7938  0.3531 -0.8503
  607TIP3    H226017   5.771   5.527  18.414 -0.8982  0.8765  0.6843
  608TIP3   OH226018   1.224   1.349  19.433  0.0313  0.1689 -0.4479
  608TIP3    H126019   1.227   1.444  19.423 -0.2776  0.1137 -1.0944
  608TIP3    H226020   1.268   1.315  19.356 -1.7706 -0.2513 -1.3540
  609TIP3   OH226021   0.929   2.576  18.274  0.1011  0.0213 -0.2442
  609TIP3    H126022   0.873   2.600  18.348  1.2014 -1.7091  1.2210
  609TIP3    H226023   0.888   2.619  18.198 -1.4228  1.3222  1.2387
  610TIP3   OH226024   4.121   1.992  17.586  0.0742 -0.1711  0.1817
  610TIP3    H126025   4.206   2.025  17.613 -0.6405  0.4090  1.8765
  610TIP3    H226026   4.101   1.923  17.649 -0.7213 -0.2642 -0.1608
  611TIP3   OH226027   1.965   0.153  17.533 -0.1806 -0.4158  0.2943
  611TIP3    H126028   2.029   0.224  17.535 -0.3229 -0.2871  2.5027
  611TIP3    H226029   1.942   0.144  17.440  1.0002  1.3450 -0.2181
  612TIP3   OH226030   0.179   6.145  19.293  0.0768 -0.3588 -0.5894
  612TIP3    H126031   0.137   6.223  19.330 -1.0968 -0.9557 -0.6347
  612TIP3    H226032   0.239   6.116  19.362  0.8475  0.8174 -0.7391
  613TIP3   OH226033   4.733   1.423  19.646  0.3733 -0.3228  0.0058
  613TIP3    H126034   4.666   1.483  19.677  0.7300 -1.0923  2.4590
  613TIP3    H226035   4.810   1.442  19.700  0.5074 -2.8981  0.8660
  614TIP3   OH226036   4.575   3.287  20.508  0.2275 -0.3482 -0.6122
  614TIP3    H126037   4.514   3.348  20.467 -0.1667 -0.9727 -0.9685
  614TIP3    H226038   4.528   3.204  20.511  1.0878 -0.8683 -1.0021
  615TIP3   OH226039   4.176   6.020  17.500 -0.6147  0.0724 -0.2877
  615TIP3    H126040   4.122   5.942  17.489  1.1198 -1.2922  0.2861
  615TIP3    H226041   4.236   6.019  17.425  0.1492  0.2000  0.3020
  616TIP3   OH226042   3.870   3.638  18.900  0.3778  0.0692 -0.6429
  616TIP3    H126043   3.847   3.548  18.922  1.5142 -0.0124  0.2954
  616TIP3    H226044   3.823   3.691  18.965 -0.2535  0.1529 -1.1644
  617TIP3   OH226045   5.114   5.251  19.995  0.2394  0.0039  0.4821
  617TIP3    H126046   5.204   5.233  20.021  0.6664  2.1430  0.6763
  617TIP3    H226047   5.070   5.281  20.075 -0.5647 -0.6676  0.3129
  618TIP3   OH226048   6.143   3.614  18.318  0.0006  0.4839  0.7493
  618TIP3    H126049   6.117   3.562  18.241  1.4909 -1.0801  1.2431
  618TIP3    H226050   6.060   3.644  18.355 -0.7551  1.9974 -1.8902
  619TIP3   OH226051   3.261   0.485  20.622 -0.4394  0.3129 -0.3613
  619TIP3    H126052   3.273   0.397  20.587  1.6780  1.3100 -2.4074
  619TIP3    H226053   3.277   0.476  20.716  3.1657 -1.0167 -0.9461
  620TIP3   OH226054   5.584   2.698  19.226 -0.2734  0.0833 -0.4162
  620TIP3    H126055   5.610   2.652  19.306 -1.2938 -0.6606 -0.4878
  620TIP3    H226056   5.533   2.634  19.177 -0.8278  0.9632 -1.0270
  621TIP3   OH226057   0.041   2.603  20.271  0.4128 -0.2383  0.6631
  621TIP3    H126058   0.022   2.532  20.209  1.2325 -0.8984  1.1535
  621TIP3    H226059  -0.018   2.674  20.244  0.9805 -0.3777 -1.0897
  622TIP3   OH226060   5.555   2.289  20.250  0.0848  0.1671  0.0117
  622TIP3    H126061   5.604   2.299  20.168  0.1450  0.4106  0.0786
  622TIP3    H226062   5.473   2.247  20.224  0.5285 -0.6961 -0.0401
  623TIP3   OH226063   2.973   0.441  20.477  0.3190 -0.2560 -0.1619
  623TIP3    H126064   2.925   0.426  20.558 -1.0678  0.5769 -0.7973
  623TIP3    H226065   3.061   0.408  20.495  0.2755  0.6266  1.9439
  624TIP3   OH226066   0.574   4.823  19.945 -0.1087  0.1316 -0.3012
  624TIP3    H126067   0.559   4.789  19.857  0.0946  0.6481 -0.5456
  624TIP3    H226068   0.603   4.914  19.930 -0.5238  0.3700  0.3189
  625TIP3   OH226069   0.583   1.000  18.987 -0.3040  0.6702  0.1972
  625TIP3    H126070   0.661   0.976  18.936 -0.1059  0.8391  0.4186
  625TIP3    H226071   0.617   1.055  19.058 -0.5778  0.4440  0.5087
  626TIP3   OH226072   0.292   4.917  17.444 -0.4410 -0.2796 -0.1717
  626TIP3    H126073   0.334   4.859  17.380 -0.3277 -0.3747 -0.0108
  626TIP3    H226074   0.315   4.880  17.529  1.7790  1.4271  0.0779
  627TIP3   OH226075   2.449   3.260  17.631  0.7462  0.7052 -0.2214
  627TIP3    H126076   2.427   3.244  17.539  2.3284  0.3152 -0.5654
  627TIP3    H226077   2.370   3.298  17.669 -0.5213 -0.7163 -1.3230
  628TIP3   OH226078   5.531   4.289  19.391  0.0865 -0.0738  0.3521
  628TIP3    H126079   5.472   4.356  19.427 -0.3927 -0.2031 -0.1812
  628TIP3    H226080   5.558   4.325  19.307  1.3651  0.3213  0.8990
  629TIP3   OH226081   1.489   6.630  17.752 -0.3212  0.0242  0.2481
  629TIP3    H126082   1.449   6.712  17.723  0.8339  0.5184 -0.0285
  629TIP3    H226083   1.548   6.606  17.681 -0.0343 -0.6061  0.6899
  630TIP3   OH226084   2.012   2.401  20.329  0.3787 -0.4735  0.3915
  630TIP3    H126085   1.990   2.418  20.238 -1.7187 -3.2247  0.2857
  630TIP3    H226086   1.936   2.430  20.379  1.0546 -0.0023  1.1789
  631TIP3   OH226087   1.745   3.315  18.201 -0.4841 -0.1325  0.1674
  631TIP3    H126088   1.779   3.246  18.258  2.6117  0.9316 -0.1768
  631TIP3    H226089   1.822   3.349  18.156 -2.3682  1.2670 -2.2533
  632TIP3   OH226090   0.151   4.365  19.161  0.2835 -0.2919 -0.0522
  632TIP3    H126091   0.138   4.447  19.209 -0.4990 -1.4542  1.8783
  632TIP3    H226092   0.118   4.382  19.073 -1.1993  1.0771  0.7121
  633TIP3   OH226093   3.700   6.573  17.986 -0.0040  0.2674  0.2550
  633TIP3    H126094   3.686   6.664  17.960  1.6972  0.4490 -0.1772
  633TIP3    H226095   3.780   6.548  17.940  0.1729 -1.0848  1.2539
  634TIP3   OH226096   0.124   6.120  17.528  0.2210  0.6563  0.5037
  634TIP3    H126097   0.207   6.090  17.492 -0.6688 -0.6789 -0.5105
  634TIP3    H226098   0.130   6.101  17.622 -0.5273 -3.5270 -0.1120
  635TIP3   OH226099   2.804   6.173  17.218  0.5901  0.2154  0.0166
  635TIP3    H126100   2.801   6.226  17.138 -0.6348  0.2062  0.0462
  635TIP3    H226101   2.724   6.120  17.215  1.7444 -1.6402 -0.0069
  636TIP3   OH226102   1.409   2.006  19.491 -0.0653 -0.9361  0.0167
  636TIP3    H126103   1.381   1.958  19.569  0.0928 -0.2921  0.4711
  636TIP3    H226104   1.346   2.077  19.482  1.1852  0.3131  0.8461
  637TIP3   OH226105   3.431   2.650  19.166 -0.5702  0.6250 -0.0971
  637TIP3    H126106   3.500   2.717  19.165  0.2405 -0.1389  1.2973
  637TIP3    H226107   3.458   2.587  19.098  0.1082  0.3396  0.4313
  638TIP3   OH226108   6.605   2.428  17.212  0.1513 -0.0016  0.0784
  638TIP3    H126109   6.630   2.337  17.227  0.6030  0.4555  2.3860
  638TIP3    H226110   6.630   2.444  17.121  2.7688 -1.3472  0.4521
  639TIP3   OH226111   4.090   6.277  19.415 -0.3037 -0.7951 -0.3323
  639TIP3    H126112   4.066   6.275  19.322 -2.1456  1.4602 -0.0025
  639TIP3    H226113   4.007   6.274  19.461  0.4801 -0.2183  1.1880
  640TIP3   OH226114   2.404   3.115  18.146  0.1276 -0.4182 -0.0996
  640TIP3    H126115   2.434   3.049  18.083  2.9050  1.5387 -1.0024
  640TIP3    H226116   2.446   3.089  18.228  2.5751  0.9692 -0.8162
  641TIP3   OH226117   4.928   6.658  18.575  0.0392  0.0806  0.0986
  641TIP3    H126118   4.876   6.577  18.572 -0.7380  0.5972 -0.7386
  641TIP3    H226119   4.999   6.643  18.513  0.0026 -0.0344  0.0850
  642TIP3   OH226120   0.311   3.704  18.880  0.2381 -0.4325  0.1152
  642TIP3    H126121   0.336   3.668  18.965 -0.3843 -0.5757  0.2423
  642TIP3    H226122   0.222   3.736  18.892  0.1361 -0.4660 -0.4873
  643TIP3   OH226123   0.625   6.625  19.453  0.2063 -0.1357 -0.2076
  643TIP3    H126124   0.585   6.700  19.408  0.9523  0.5004  0.1626
  643TIP3    H226125   0.623   6.648  19.546 -1.2339 -1.3981  0.1147
  644TIP3   OH226126   4.916   1.912  19.630 -0.2401  0.6076  0.3524
  644TIP3    H126127   4.879   1.911  19.718  1.2228 -1.9221  1.0456
  644TIP3    H226128   4.980   1.983  19.632 -1.3080  1.5945  0.7839
  645TIP3   OH226129   5.938   1.984  17.619 -0.2355  0.8723  0.2934
  645TIP3    H126130   6.027   1.971  17.587  0.4411  0.4676  2.1740
  645TIP3    H226131   5.902   2.054  17.564  1.5088  1.5792 -0.0198
  646TIP3   OH226132   1.931   2.679  19.926 -0.1226  0.7747 -0.5342
  646TIP3    H126133   2.007   2.623  19.906 -1.7607 -1.4108 -1.0199
  646TIP3    H226134   1.908   2.718  19.841  0.6184  1.7195 -0.3213
  647TIP3   OH226135   2.734   4.905  19.569 -0.3084  0.4363 -0.1170
  647TIP3    H126136   2.730   4.961  19.492 -0.8708  0.0434 -0.3821
  647TIP3    H226137   2.777   4.826  19.539 -2.5253 -0.6592 -0.6650
  648TIP3   OH226138   1.500   0.676  18.493  0.7243  0.0410  0.1710
  648TIP3    H126139   1.450   0.754  18.519 -0.9884 -0.8469 -0.2660
  648TIP3    H226140   1.510   0.684  18.398 -2.1452 -1.6145 -0.4136
  649TIP3   OH226141   6.565   1.227  17.074  0.3414 -0.3458 -0.1149
  649TIP3    H126142   6.611   1.298  17.029  0.8568  0.0911  1.0591
  649TIP3    H226143   6.540   1.167  17.004  1.1469  0.2872 -0.9786
  650TIP3   OH226144   6.709   4.534  18.487  0.3298 -0.2450  0.0668
  650TIP3    H126145   6.695   4.440  18.499 -0.6985 -0.4629 -2.1837
  650TIP3    H226146   6.622   4.572  18.492  0.5933  0.4100 -0.2129
  651TIP3   OH226147   0.655   3.608  16.810  0.8642  0.2891  0.2889
  651TIP3    H126148   0.675   3.685  16.756  0.5605  0.5414  0.5369
  651TIP3    H226149   0.733   3.553  16.801  1.3462  0.8960  0.5906
  652TIP3   OH226150   1.938   0.101  20.085  0.0744 -0.9744 -0.4417
  652TIP3    H126151   1.977   0.142  20.008 -0.3750  0.5103  0.0747
  652TIP3    H226152   1.925   0.010  20.060 -2.9142  0.0371 -3.3127
  653TIP3   OH226153   5.663   2.883  17.416  0.0656  0.2656 -1.0088
  653TIP3    H126154   5.593   2.925  17.365 -1.5600 -1.0235  0.0479
  653TIP3    H226155   5.671   2.796  17.378 -1.3375 -0.8044  0.9780
  654TIP3   OH226156   0.645   6.601  18.744  0.2543  0.4797  0.0702
  654TIP3    H126157   0.557   6.622  18.713  0.0948  1.5468  1.2059
  654TIP3    H226158   0.631   6.548  18.822  0.6520 -0.2872 -0.3588
  655TIP3   OH226159   1.155   2.488  18.788 -0.0923  0.5118  0.6524
  655TIP3    H126160   1.189   2.465  18.875  0.2307 -0.7620  0.2161
  655TIP3    H226161   1.219   2.453  18.727 -0.7762  0.5796 -0.1297
  656TIP3   OH226162   0.260   6.105  20.112 -0.0680  0.2003  0.2422
  656TIP3    H126163   0.314   6.123  20.034  2.5720 -0.8239  1.7025
  656TIP3    H226164   0.252   6.009  20.114  0.9951  0.0966  1.8221
  657TIP3   OH226165   0.081   4.760  18.331 -0.0703 -0.0143 -0.4010
  657TIP3    H126166   0.026   4.710  18.391  0.9840  0.7173  1.2392
  657TIP3    H226167   0.091   4.846  18.372 -1.6696  1.5668 -3.0563
  658TIP3   OH226168   0.482   6.086  18.763 -0.6474  0.0644 -0.0253
  658TIP3    H126169   0.499   5.992  18.763 -2.3277 -0.3051  1.7973
  658TIP3    H226170   0.476   6.109  18.670 -0.9103 -1.7750 -0.5082
  659TIP3   OH226171   4.490   5.391  17.954 -0.0210  0.2155  0.5972
  659TIP3    H126172   4.508   5.483  17.932 -0.5098  0.1807  0.0391
  659TIP3    H226173   4.575   5.355  17.978  0.5777  0.2296 -1.3349
  660TIP3   OH226174   2.371   3.358  19.365 -0.3049 -0.7259 -0.1947
  660TIP3    H126175   2.300   3.296  19.381 -0.9952 -0.6475 -2.5322
  660TIP3    H226176   2.445   3.304  19.339 -0.4476 -0.6778 -0.7231
  661TIP3   OH226177   5.785   1.571  18.171 -0.0797  0.2669  0.3370
  661TIP3    H126178   5.872   1.609  18.183  0.0673  0.1586 -0.3206
  661TIP3    H226179   5.788   1.534  18.083 -0.5345 -0.4341  0.6120
  662TIP3   OH226180   4.775   4.355  20.271  0.1987 -0.4923  0.5475
  662TIP3    H126181   4.764   4.368  20.365 -1.2556  1.1708  0.2199
  662TIP3    H226182   4.776   4.444  20.235  0.9743 -1.0883 -0.9822
  663TIP3   OH226183   4.635   5.288  19.532 -0.3693 -0.2086  0.0223
  663TIP3    H126184   4.587   5.252  19.458  2.4665 -0.7295 -1.6802
  663TIP3    H226185   4.616   5.382  19.530 -1.1230 -0.3670 -0.6971
  664TIP3   OH226186   4.307   0.196  17.328  0.3807  0.0925 -0.3579
  664TIP3    H126187   4.262   0.266  17.376  0.7032 -0.3639  0.6357
  664TIP3    H226188   4.283   0.116  17.373  0.2327 -0.4257 -1.3315
  665TIP3   OH226189   0.257   5.095  17.871 -0.3759  0.3536  0.2266
  665TIP3    H126190   0.258   5.109  17.776 -1.3241  1.3163  0.3290
  665TIP3    H226191   0.196   5.022  17.884 -1.7045  1.4220  0.1951
  666TIP3   OH226192   3.836   1.993  17.781 -0.3367  0.2369 -0.5838
  666TIP3    H126193   3.893   1.917  17.795 -0.7586 -0.4607 -2.3332
  666TIP3    H226194   3.892   2.068  17.803  1.4016 -0.4120 -2.3983
  667TIP3   OH226195   6.274   6.649  20.005  0.6018 -0.1394  0.0473
  667TIP3    H126196   6.309   6.692  20.084  0.1122  0.2452  0.0591
  667TIP3    H226197   6.227   6.719  19.960 -0.0064 -0.6124 -0.0570
  668TIP3   OH226198   1.774   1.932  19.163  0.6011 -0.0512  0.3560
  668TIP3    H126199   1.789   1.908  19.255  0.9472  0.2407  0.3802
  668TIP3    H226200   1.682   1.958  19.160 -0.1033 -2.4122  0.0846
  669TIP3   OH226201   5.916   3.819  18.109 -0.3475 -0.0658  0.1665
  669TIP3    H126202   5.994   3.780  18.071  1.6588  0.9340  2.9475
  669TIP3    H226203   5.917   3.910  18.079 -1.0853 -0.3108 -0.6446
  670TIP3   OH226204   6.497   0.686  18.027 -0.4047  0.1600  0.3684
  670TIP3    H126205   6.472   0.738  17.951 -2.3622 -0.1270  0.7688
  670TIP3    H226206   6.590   0.668  18.014  0.1641  2.9980 -0.2131
  671TIP3   OH226207   6.654   0.443  17.099  0.2007 -0.2424  0.0480
  671TIP3    H126208   6.734   0.407  17.060 -0.4174  0.4665 -1.9846
  671TIP3    H226209   6.680   0.528  17.133  0.7605 -0.8909  1.3017
  672TIP3   OH226210   2.689   0.749  19.789  0.0454  0.4268  0.1409
  672TIP3    H126211   2.700   0.844  19.792  0.5733  0.3432  1.5378
  672TIP3    H226212   2.779   0.715  19.790 -0.1423 -0.0941 -0.3777
  673TIP3   OH226213   1.767   3.882  18.911  0.2972 -0.0720 -0.2360
  673TIP3    H126214   1.749   3.957  18.855  0.8569  0.4737  0.2905
  673TIP3    H226215   1.745   3.913  18.999 -0.4726 -0.8802 -0.1338
  674TIP3   OH226216   5.841   1.153  19.497 -0.1412 -0.0773 -0.3728
  674TIP3    H126217   5.804   1.146  19.585 -3.2406 -2.4123 -1.6728
  674TIP3    H226218   5.801   1.231  19.460 -0.0465  0.0512 -0.2027
  675TIP3   OH226219   2.646   5.221  17.894  0.2697  0.3736  0.3953
  675TIP3    H126220   2.572   5.215  17.833  1.0657 -0.3838 -0.5097
  675TIP3    H226221   2.605   5.218  17.981 -0.9199  1.9391 -0.0559
  676TIP3   OH226222   0.209   5.948  19.103 -0.6628  0.2727  0.0614
  676TIP3    H126223   0.128   5.897  19.103 -1.5886  1.6964 -0.5198
  676TIP3    H226224   0.203   6.004  19.180  0.3409 -0.4467  0.6898
  677TIP3   OH226225   5.143   6.228  19.241 -0.0883 -0.2117  0.1832
  677TIP3    H126226   5.139   6.292  19.170 -1.3605 -0.1653  0.2605
  677TIP3    H226227   5.231   6.190  19.235  0.9440  2.0007  0.5798
  678TIP3   OH226228   1.361   2.816  18.276 -0.3613  0.2000  0.2855
  678TIP3    H126229   1.427   2.788  18.338 -0.4773 -1.6291 -0.3696
  678TIP3    H226230   1.357   2.911  18.287 -0.4521 -0.0417  3.1127
  679TIP3   OH226231   3.554   1.716  20.217  0.0454  0.0425  0.4719
  679TIP3    H126232   3.459   1.714  20.210  0.1726 -1.6220 -1.5792
  679TIP3    H226233   3.574   1.658  20.291 -0.5106  0.2716  0.8043
  680TIP3   OH226234   6.518   3.238  19.377 -0.1325 -0.1580  0.0691
  680TIP3    H126235   6.504   3.216  19.469  3.1508  0.6525  0.9122
  680TIP3    H226236   6.576   3.169  19.344  1.3197  1.2157 -0.4021
  681TIP3   OH226237   1.960   4.708  19.816 -0.6502 -0.7893 -0.1612
  681TIP3    H126238   2.051   4.684  19.800  0.1747  1.0639  1.3541
  681TIP3    H226239   1.921   4.712  19.729  1.2990  0.4807 -1.0575
  682TIP3   OH226240   4.429   2.754  18.439  0.4159 -0.7200  0.1141
  682TIP3    H126241   4.457   2.692  18.372 -1.8609 -2.2182  0.4281
  682TIP3    H226242   4.494   2.824  18.437  2.9780 -2.9687 -0.4311
  683TIP3   OH226243   3.541   6.179  18.970  0.0073 -0.3637 -0.0349
  683TIP3    H126244   3.634   6.162  18.952  0.3959  0.8984  0.6758
  683TIP3    H226245   3.510   6.227  18.893  0.2668  0.2781  0.2545
  684TIP3   OH226246   3.059   1.665  16.944  0.0026  0.3020 -0.2536
  684TIP3    H126247   3.034   1.735  17.004  1.9623  0.3627  0.5493
  684TIP3    H226248   2.988   1.601  16.952  0.1669  0.3273  2.1111
  685TIP3   OH226249   5.064   1.635  20.425  0.4130  0.4483 -0.2356
  685TIP3    H126250   5.070   1.596  20.337  0.1296  0.7237 -0.3763
  685TIP3    H226251   5.152   1.667  20.443  0.4894  0.3262 -0.3883
  686TIP3   OH226252   5.179   2.534  18.063 -0.3383 -0.0816  0.4594
  686TIP3    H126253   5.215   2.589  18.133 -0.2153 -0.3322  0.5938
  686TIP3    H226254   5.250   2.526  18.000 -0.2640 -0.3196  0.5747
  687TIP3   OH226255   2.283   5.506  20.089  0.4425 -0.1237 -0.0943
  687TIP3    H126256   2.210   5.444  20.095 -1.8359  2.3723 -0.2856
  687TIP3    H226257   2.273   5.547  20.003 -0.2646  2.8431  1.2761
  688TIP3   OH226258   4.994   1.649  19.541 -0.2162  0.0722  0.4810
  688TIP3    H126259   4.961   1.737  19.561  0.9836  0.2176  2.0301
  688TIP3    H226260   4.978   1.599  19.621  2.0304 -0.1975  0.8373
  689TIP3   OH226261   4.251   3.672  18.778 -0.2012 -0.0195  0.6928
  689TIP3    H126262   4.330   3.675  18.724  0.0550 -1.7216  0.9117
  689TIP3    H226263   4.189   3.622  18.726 -0.4835 -0.3239  1.3145
  690TIP3   OH226264   2.012   5.991  19.139  0.0464 -0.1231 -0.5039
  690TIP3    H126265   1.923   5.979  19.104  0.4947 -1.6944 -1.1809
  690TIP3    H226266   2.064   6.017  19.063  0.7091 -2.0007 -0.7427
  691TIP3   OH226267   3.746   3.281  19.424 -0.3127  0.3434  0.3548
  691TIP3    H126268   3.819   3.222  19.445  0.4195  0.2376 -2.1720
  691TIP3    H226269   3.668   3.226  19.435  0.0454  0.0871  1.8531
  692TIP3   OH226270   1.678   1.455  19.516 -0.4920 -0.4383  0.1210
  692TIP3    H126271   1.756   1.421  19.561 -0.0439 -0.2624 -0.4962
  692TIP3    H226272   1.613   1.385  19.524 -0.7169 -0.0827  1.7476
  693TIP3   OH226273   6.311   2.130  18.712 -1.3166  0.2288  0.3619
  693TIP3    H126274   6.328   2.156  18.802 -0.6420 -1.0339  0.6343
  693TIP3    H226275   6.342   2.203  18.659 -1.5363  0.8973  1.1394
  694TIP3   OH226276   3.476   1.638  18.841 -0.1301 -0.1112  0.3694
  694TIP3    H126277   3.570   1.624  18.835 -0.1753 -0.9834  1.3764
  694TIP3    H226278   3.437   1.554  18.818 -0.6766  0.2467 -0.0656
  695TIP3   OH226279   0.104   4.989  19.151 -0.0287  0.6160  0.0198
  695TIP3    H126280   0.072   4.940  19.076  0.0922 -1.3095  1.1512
  695TIP3    H226281   0.197   4.970  19.155 -0.3052 -0.6584  1.5397
  696TIP3   OH226282   2.724   4.099  18.664 -0.8750 -0.5827  0.0286
  696TIP3    H126283   2.722   4.066  18.754 -0.8484  1.6952  0.9531
  696TIP3    H226284   2.640   4.143  18.653 -1.2720 -1.6584 -1.4397
  697TIP3   OH226285   2.134   2.237  19.921  0.0967 -0.5853 -0.4223
  697TIP3    H126286   2.052   2.277  19.894 -0.9320 -0.4647  2.5705
  697TIP3    H226287   2.116   2.143  19.919 -0.8680 -0.5132  2.1565
  698TIP3   OH226288   3.279   4.032  17.097  0.2611 -0.7898  0.0100
  698TIP3    H126289   3.269   4.120  17.060 -1.4725 -0.6708  0.7123
  698TIP3    H226290   3.259   3.973  17.024 -0.2088 -0.5810 -0.0353
  699TIP3   OH226291   2.292   3.777  20.254 -0.1335 -0.3895 -0.5100
  699TIP3    H126292   2.347   3.702  20.233 -0.5314 -0.8012 -0.1062
  699TIP3    H226293   2.351   3.852  20.249  0.3625 -0.7722 -0.4989
  700TIP3   OH226294   4.200   6.444  17.955  0.5319  0.3181 -0.3595
  700TIP3    H126295   4.250   6.455  18.036  0.5004 -1.3582 -0.0875
  700TIP3    H226296   4.110   6.430  17.984  0.6189 -0.8945 -0.6428
  701TIP3   OH226297   3.981   4.034  20.634 -0.0509 -0.4880  0.0255
  701TIP3    H126298   3.972   3.980  20.712  1.9545 -0.0627  0.6193
  701TIP3    H226299   3.914   4.000  20.574 -0.3037 -2.1689  1.1666
  702TIP3   OH226300   1.919   6.341  18.910  0.0402  0.1807  0.0935
  702TIP3    H126301   1.826   6.347  18.890 -0.4740 -1.1407  1.8963
  702TIP3    H226302   1.923   6.332  19.005  1.9220 -1.1362 -0.0614
  703TIP3   OH226303   3.606   1.865  17.591 -0.2830 -0.1982 -0.3134
  703TIP3    H126304   3.676   1.926  17.613  0.1455  0.5125 -3.2189
  703TIP3    H226305   3.648   1.779  17.593  0.3968  0.1070 -0.8423
  704TIP3   OH226306   0.018   4.504  19.460  0.3292 -0.2766  0.1482
  704TIP3    H126307  -0.029   4.537  19.384 -0.1767  1.2047  1.0655
  704TIP3    H226308  -0.000   4.410  19.460 -2.2118  0.1432  0.1377
  705TIP3   OH226309   2.230   2.249  19.629  0.3728 -0.0850  0.7534
  705TIP3    H126310   2.170   2.228  19.701  0.4015  0.8806  1.0810
  705TIP3    H226311   2.172   2.268  19.555  0.3507 -1.4396  0.3917
  706TIP3   OH226312   0.958   2.731  19.771  0.3550  0.3363  0.7807
  706TIP3    H126313   0.938   2.764  19.683 -1.9925 -0.2617  1.0139
  706TIP3    H226314   0.994   2.806  19.817  2.7419  0.3853 -0.9566
  707TIP3   OH226315   6.606   3.478  18.503  0.4742  0.3419  0.1927
  707TIP3    H126316   6.674   3.490  18.568 -1.2703  2.2941  1.8170
  707TIP3    H226317   6.534   3.438  18.551 -0.1842  0.0386 -1.0072
  708TIP3   OH226318   6.716   5.249  19.160  0.0980  0.1440 -0.0598
  708TIP3    H126319   6.756   5.163  19.174 -0.1763 -0.0692 -0.5861
  708TIP3    H226320   6.775   5.309  19.205  0.4921 -0.2770 -0.0001
  709TIP3   OH226321   1.632   1.906  18.238  0.1740 -0.6270  0.3189
  709TIP3    H126322   1.706   1.884  18.181  1.7764  1.2580  1.5371
  709TIP3    H226323   1.602   1.991  18.208 -0.6665 -0.7843  0.6743
  710TIP3   OH226324   6.509   5.100  20.217  0.0086  0.3670 -0.2573
  710TIP3    H126325   6.475   5.127  20.132  0.3726  0.9930 -0.2062
  710TIP3    H226326   6.522   5.182  20.265 -0.1794  0.0210  0.3984
  711TIP3   OH226327   4.002   1.230  20.268 -0.2762 -0.4782  0.4266
  711TIP3    H126328   3.930   1.176  20.300 -2.3370  2.7710  1.7151
  711TIP3    H226329   4.068   1.225  20.337  0.1192 -2.1955 -0.0215
  712TIP3   OH226330   5.470   6.020  19.015 -0.2516  0.0001 -0.1721
  712TIP3    H126331   5.437   6.104  18.981 -1.9836 -1.1496 -1.4785
  712TIP3    H226332   5.480   5.965  18.938  0.3392 -1.1895  0.7217
  713TIP3   OH226333   5.935   6.466  18.690 -0.2051 -0.1954  0.4977
  713TIP3    H126334   5.899   6.499  18.608  1.4062  1.8586  0.5654
  713TIP3    H226335   5.994   6.395  18.664 -0.1344  0.0678 -0.0625
  714TIP3   OH226336   6.529   2.726  19.002  0.2336 -0.0385 -0.1529
  714TIP3    H126337   6.468   2.655  18.979  0.4517 -0.0716 -0.6466
  714TIP3    H226338   6.476   2.788  19.052  0.2603 -0.9863  1.1043
  715TIP3   OH226339   5.325   3.316  18.433  0.1989 -0.1291  0.2239
  715TIP3    H126340   5.410   3.277  18.413  0.8258  1.1519  0.2795
  715TIP3    H226341   5.292   3.346  18.348 -0.3795 -0.9452  0.1486
  716TIP3   OH226342   3.259   4.695  17.610  0.0179  0.0451  0.3694
  716TIP3    H126343   3.296   4.613  17.576  1.1393 -0.8816  3.4469
  716TIP3    H226344   3.272   4.758  17.539  0.8559 -1.9779 -1.4040
  717TIP3   OH226345   3.753   4.319  19.797  0.4791  0.2921 -0.5339
  717TIP3    H126346   3.836   4.299  19.840 -0.0144  1.4033  1.0111
  717TIP3    H226347   3.689   4.323  19.868 -1.5142 -3.1679 -1.9028
  718TIP3   OH226348   0.944   3.044  18.355  0.4299  0.6154 -0.0505
  718TIP3    H126349   1.002   2.980  18.314  0.4606  0.4851  0.1903
  718TIP3    H226350   0.967   3.127  18.314  0.8803  0.5855  0.1362
  719TIP3   OH226351   0.644   5.298  18.534 -0.9224 -0.7277 -0.5048
  719TIP3    H126352   0.560   5.255  18.521 -0.9749 -0.3443 -1.5650
  719TIP3    H226353   0.626   5.391  18.516 -0.4449 -0.5235  0.0539
  720TIP3   OH226354   2.294   5.842  18.162  0.2106  0.2622 -0.3144
  720TIP3    H126355   2.292   5.747  18.152  0.2753 -0.0540  2.1068
  720TIP3    H226356   2.202   5.867  18.172  0.3143  0.1696  1.0114
  721TIP3   OH226357   1.238   0.540  17.737  0.1396 -0.3100  0.4341
  721TIP3    H126358   1.250   0.592  17.658 -1.6853  1.5497  1.2971
  721TIP3    H226359   1.326   0.528  17.771  0.7339  1.0616 -0.5281
  722TIP3   OH226360   1.592   3.707  17.315 -0.0110  0.3764  0.1949
  722TIP3    H126361   1.564   3.620  17.345  1.2762  0.6613  2.4414
  722TIP3    H226362   1.671   3.726  17.367  0.0097  2.6889 -0.5806
  723TIP3   OH226363   4.762   2.520  18.045  0.3156 -0.0188  0.4030
  723TIP3    H126364   4.740   2.613  18.036 -0.3994 -0.2902 -0.7971
  723TIP3    H226365   4.825   2.518  18.117 -0.0988  1.3261  0.8447
  724TIP3   OH226366   4.965   2.191  20.406  0.5884 -0.0590  0.4730
  724TIP3    H126367   4.893   2.254  20.408  0.3060 -0.1486 -2.2984
  724TIP3    H226368   4.924   2.110  20.374  1.7444 -0.3536 -0.3178
  725TIP3   OH226369   0.066   1.436  17.513 -0.3636 -0.6100 -0.0297
  725TIP3    H126370   0.061   1.520  17.558 -0.6824  0.0304 -1.2126
  725TIP3    H226371  -0.002   1.441  17.446  0.5265 -1.2391 -1.0176
  726TIP3   OH226372   4.095   1.017  20.114 -0.1688  0.2574  0.6477
  726TIP3    H126373   4.060   1.085  20.171  0.1417  0.3426  0.7412
  726TIP3    H226374   4.112   1.063  20.031  0.2227  0.3451  0.7713
  727TIP3   OH226375   4.904   5.643  17.855 -0.0205  0.4377  0.3912
  727TIP3    H126376   4.810   5.639  17.872 -0.2381 -0.3879 -0.8948
  727TIP3    H226377   4.916   5.724  17.805 -0.2930 -0.2196 -0.7679
  728TIP3   OH226378   0.170   1.587  17.866 -0.6441  0.1048  0.9201
  728TIP3    H126379   0.140   1.589  17.775 -2.2878 -1.0501  1.3823
  728TIP3    H226380   0.189   1.679  17.887 -0.3367  0.4006 -0.5361
  729TIP3   OH226381   5.790   6.117  18.148  0.7424  0.3468  0.0071
  729TIP3    H126382   5.866   6.139  18.093  0.3101 -1.0485 -1.1875
  729TIP3    H226383   5.714   6.135  18.092  0.3044 -1.3584  0.0165
  730TIP3   OH226384   0.372   5.545  17.703 -0.4112 -0.0337 -0.1162
  730TIP3    H126385   0.357   5.634  17.671  0.8319  0.1941 -0.1326
  730TIP3    H226386   0.330   5.489  17.637 -1.5993  0.5408  0.1374
  731TIP3   OH226387   3.706   0.967  16.973  0.2118 -0.3275 -0.3347
  731TIP3    H126388   3.738   1.052  16.944  1.5746 -0.7910 -0.2436
  731TIP3    H226389   3.768   0.904  16.936  0.2423 -1.1587  1.0666
  732TIP3   OH226390   6.047   6.242  16.344  0.2161  0.5774  0.3528
  732TIP3    H126391   6.095   6.227  16.426 -1.0107 -2.0507  0.7135
  732TIP3    H226392   6.112   6.231  16.275  0.3605 -2.6164  0.8385
  733TIP3   OH226393   4.164   5.665  17.609 -0.4262 -0.4528  0.1272
  733TIP3    H126394   4.249   5.710  17.616  0.0450 -1.5604  2.2260
  733TIP3    H226395   4.182   5.588  17.556  0.0209 -0.9398  0.9671
  734TIP3   OH226396   1.603   5.311  19.533 -0.1156 -0.0904  0.2001
  734TIP3    H126397   1.598   5.403  19.506 -1.4241  0.7165  2.8163
  734TIP3    H226398   1.696   5.296  19.550 -0.1999  1.9328  3.0959
  735TIP3   OH226399   0.863   0.330  17.264 -0.2919 -0.2932 -0.3359
  735TIP3    H126400   0.798   0.375  17.210 -1.1223  1.4731  1.9543
  735TIP3    H226401   0.912   0.401  17.307  1.0766 -1.5978  0.3658
  736TIP3   OH226402   2.670   3.719  17.919  0.4844  0.1601  0.4964
  736TIP3    H126403   2.707   3.739  17.833 -0.3922 -0.1076  0.0432
  736TIP3    H226404   2.700   3.631  17.938 -1.5201 -0.8772 -0.8016
  737TIP3   OH226405   4.589   4.721  20.446  0.0629  0.2376 -0.3794
  737TIP3    H126406   4.679   4.726  20.477 -0.4987 -1.3836  1.7694
  737TIP3    H226407   4.548   4.801  20.479  0.5834  0.7175 -0.8926
  738TIP3   OH226408   1.106   1.495  19.808 -0.2281  0.2976  0.4340
  738TIP3    H126409   1.175   1.464  19.749 -1.8634  0.2941 -1.5920
  738TIP3    H226410   1.149   1.560  19.863  1.3341  0.5015 -0.9375
  739TIP3   OH226411   0.499   3.116  19.806  0.1017  0.0881  0.2892
  739TIP3    H126412   0.510   3.022  19.813 -2.8603 -0.4903 -1.1877
  739TIP3    H226413   0.432   3.137  19.871  1.0878  1.3029  0.9550
  740TIP3   OH226414   3.812   2.023  19.404 -0.5134  0.2264  0.9140
  740TIP3    H126415   3.906   2.035  19.393  0.0001 -3.8325 -0.9181
  740TIP3    H226416   3.774   2.055  19.323 -0.5556  0.4066  1.0036
  741TIP3   OH226417   4.789   1.615  19.979  0.4613  0.2829  0.1600
  741TIP3    H126418   4.789   1.643  20.071  0.5248  0.5561  0.0748
  741TIP3    H226419   4.719   1.549  19.975  0.9773 -0.2988  0.5787
  742TIP3   OH226420   4.629   4.828  17.679 -0.5918 -0.1792 -0.2598
  742TIP3    H126421   4.669   4.786  17.755  0.1256  0.3034 -0.3585
  742TIP3    H226422   4.627   4.760  17.612  0.6929 -0.0529 -0.4677
  743TIP3   OH226423   0.098   6.605  19.257 -0.1634  0.1339  0.0700
  743TIP3    H126424   0.054   6.689  19.239 -0.9903 -0.4518 -0.7111
  743TIP3    H226425   0.044   6.540  19.213  0.1863 -0.8840  1.1173
  744TIP3   OH226426   4.486   3.351  17.997 -0.6175  0.4013 -0.0730
  744TIP3    H126427   4.423   3.365  18.067 -0.2960 -2.1007  0.8331
  744TIP3    H226428   4.432   3.328  17.921 -0.9279 -3.0219  1.0210
  745TIP3   OH226429   3.858   2.218  19.622 -0.4974 -0.2954  0.4072
  745TIP3    H126430   3.929   2.256  19.570 -0.0135 -0.8767  0.6263
  745TIP3    H226431   3.846   2.130  19.585 -1.4975 -0.0047 -0.0021
  746TIP3   OH226432   3.319   6.411  18.982  0.2464 -0.4199 -0.6067
  746TIP3    H126433   3.339   6.350  18.911  1.9549 -1.7848  0.9497
  746TIP3    H226434   3.401   6.457  18.998 -0.8310  1.8591 -1.2646
  747TIP3   OH226435   0.998   4.867  18.345  0.3254  0.6455 -0.2441
  747TIP3    H126436   1.018   4.807  18.418 -1.7012  1.0227  0.6877
  747TIP3    H226437   0.986   4.952  18.387 -1.6068  0.7324 -0.8625
  748TIP3   OH226438   3.807   0.599  18.079  0.0689  0.3992 -0.1933
  748TIP3    H126439   3.834   0.632  17.993 -0.8256 -1.2672 -1.1672
  748TIP3    H226440   3.714   0.622  18.085 -0.6507 -1.9940 -1.0121
  749TIP3   OH226441   2.774   2.859  17.747  0.1433 -0.7078  0.1413
  749TIP3    H126442   2.797   2.941  17.703 -0.3620 -1.0486 -0.7931
  749TIP3    H226443   2.697   2.881  17.799  0.1115 -0.5472  0.0293
  750TIP3   OH226444   5.459   1.469  18.639 -0.4434 -0.3145 -0.0159
  750TIP3    H126445   5.383   1.527  18.640  2.0692  3.3046 -0.6734
  750TIP3    H226446   5.466   1.440  18.548 -0.4037  0.2658 -0.1970
  751TIP3   OH226447   6.202   5.389  17.031 -0.4176 -0.3789 -0.5729
  751TIP3    H126448   6.267   5.432  17.086 -0.8813  1.0552 -1.0850
  751TIP3    H226449   6.252   5.344  16.963  0.1369  2.9540 -2.6242
  752TIP3   OH226450   1.138   6.541  20.086 -0.2817  0.0338  0.0085
  752TIP3    H126451   1.121   6.449  20.107 -1.5444  0.0736 -0.7446
  752TIP3    H226452   1.142   6.543  19.990 -2.5932  1.0801 -0.1394
  753TIP3   OH226453   5.445   3.357  20.381  0.0904 -0.2422  0.0802
  753TIP3    H126454   5.537   3.333  20.369 -0.4692 -2.1722 -0.7240
  753TIP3    H226455   5.397   3.275  20.372 -1.8650  0.9407 -1.1727
  754TIP3   OH226456   6.488   1.804  16.520 -0.0967 -0.2922  0.2181
  754TIP3    H126457   6.530   1.865  16.460  0.0283 -0.3773  0.2205
  754TIP3    H226458   6.523   1.827  16.606  0.6213 -0.9450  0.1117
  755TIP3   OH226459   5.843   4.920  20.683  0.0406 -0.1752 -0.1403
  755TIP3    H126460   5.793   4.988  20.727  0.5705  0.9826 -1.2654
  755TIP3    H226461   5.932   4.931  20.716 -0.2127 -1.5748  1.0953
  756TIP3   OH226462   1.484   5.862  19.190  0.1135 -0.0639  0.1102
  756TIP3    H126463   1.389   5.875  19.186  0.0357 -0.5155  0.4103
  756TIP3    H226464   1.521   5.949  19.174 -0.3857  0.6854  2.6728
  757TIP3   OH226465   1.200   3.310  17.663 -0.1817  0.3175 -0.3907
  757TIP3    H126466   1.147   3.310  17.583 -0.1822 -1.0282 -0.4167
  757TIP3    H226467   1.281   3.355  17.637  1.2197 -2.8956 -2.2048
  758TIP3   OH226468   0.390   0.745  17.616  0.3907 -0.0028  0.0043
  758TIP3    H126469   0.380   0.714  17.525 -1.0471 -0.4232  0.2833
  758TIP3    H226470   0.401   0.840  17.608 -1.8541  0.2673 -0.5432
  759TIP3   OH226471   3.137   1.003  17.685 -0.7709  0.0791  0.2770
  759TIP3    H126472   3.064   0.950  17.718  0.9396 -2.1656  0.7260
  759TIP3    H226473   3.177   0.948  17.618 -0.2900  1.8597 -0.9615
  760TIP3   OH226474   3.393   3.302  17.488 -0.2310  0.0772  0.5911
  760TIP3    H126475   3.373   3.209  17.500  0.9365 -0.2665  0.0477
  760TIP3    H226476   3.488   3.307  17.494 -0.0843  0.8947 -1.4877
  761TIP3   OH226477   6.544   6.505  19.266  0.7457 -0.1283 -0.6532
  761TIP3    H126478   6.535   6.410  19.274  0.0134 -0.0546 -0.5663
  761TIP3    H226479   6.564   6.534  19.355 -1.7252  0.0719 -0.0901
  762TIP3   OH226480   1.291   6.260  19.771 -0.2444  0.2935  0.2416
  762TIP3    H126481   1.228   6.217  19.713 -0.4656  0.4765  0.3438
  762TIP3    H226482   1.296   6.350  19.738 -1.1545  0.6935  1.1284
  763TIP3   OH226483   4.821   1.019  17.930 -0.2302 -0.0738 -0.6016
  763TIP3    H126484   4.862   1.064  17.857 -0.2850 -0.1935 -0.7077
  763TIP3    H226485   4.848   0.928  17.920 -0.8980 -0.2427 -0.9411
  764TIP3   OH226486   3.625   2.856  19.110 -0.0520  0.2050  0.1387
  764TIP3    H126487   3.632   2.867  19.015  1.3047 -0.1702  0.1777
  764TIP3    H226488   3.713   2.873  19.143 -0.0136 -1.5917  1.1142
  765TIP3   OH226489   0.835   1.087  16.829  0.6002  0.2181 -0.4018
  765TIP3    H126490   0.752   1.122  16.799  1.0419  1.7841  0.1103
  765TIP3    H226491   0.895   1.162  16.829  1.6782 -0.5978  0.4557
  766TIP3   OH226492   5.677   6.441  18.150 -0.1161  0.4255  0.2093
  766TIP3    H126493   5.739   6.462  18.220 -0.9278 -0.4853  1.2242
  766TIP3    H226494   5.708   6.493  18.075  0.7094  1.5058  1.2541
  767TIP3   OH226495   5.066   2.818  18.849  0.2151  0.5470 -0.5990
  767TIP3    H126496   5.004   2.807  18.921 -0.1113  0.3630 -0.9017
  767TIP3    H226497   5.020   2.782  18.773 -0.2682  2.5082 -1.3204
  768TIP3   OH226498   5.493   5.572  18.520  0.2899  0.2523 -0.1236
  768TIP3    H126499   5.575   5.534  18.488 -0.2333  0.3241 -1.5717
  768TIP3    H226500   5.476   5.525  18.602  0.8815 -0.9510 -0.6691
  769TIP3   OH226501   0.313   5.390  17.463 -0.0454 -0.1490 -0.6433
  769TIP3    H126502   0.282   5.317  17.518  0.7985 -0.5683 -0.7084
  769TIP3    H226503   0.402   5.365  17.439  0.8698  1.6396  0.6597
  770TIP3   OH226504   0.000   5.738  17.719 -0.9574  0.2888 -1.0392
  770TIP3    H126505  -0.046   5.703  17.794  1.3927  0.1151  0.4253
  770TIP3    H226506  -0.069   5.770  17.660 -2.9439 -1.7790  0.0432
  771TIP3   OH226507   4.347   6.524  19.871  0.3453  0.2687  0.1600
  771TIP3    H126508   4.345   6.539  19.966 -0.0971 -0.6447  0.3073
  771TIP3    H226509   4.308   6.437  19.860 -0.0977  0.5865 -0.9036
  772TIP3   OH226510   3.453   1.748  17.396  1.0485 -0.3867 -0.2922
  772TIP3    H126511   3.488   1.762  17.308  1.8698  2.4619  0.3937
  772TIP3    H226512   3.483   1.823  17.447 -1.2026 -0.8092  1.8928
  773TIP3   OH226513   1.855   6.441  19.177 -0.2537  0.2591 -0.2774
  773TIP3    H126514   1.933   6.391  19.201 -1.4520 -1.4945  0.1932
  773TIP3    H226515   1.823   6.477  19.260 -0.8350 -0.4280 -0.1886
  774TIP3   OH226516   4.499   0.768  17.862  0.5074  0.5417  0.2505
  774TIP3    H126517   4.426   0.807  17.814  0.1390  0.3352  0.6454
  774TIP3    H226518   4.565   0.838  17.865  0.2635  0.7835  0.0414
  775TIP3   OH226519   6.423   6.389  16.863 -1.1401  0.1067  0.1799
  775TIP3    H126520   6.343   6.348  16.832 -0.5824  0.6985 -2.2537
  775TIP3    H226521   6.494   6.337  16.826 -0.4103  0.9089  0.3974
  776TIP3   OH226522   1.168   0.099  19.235  0.2251 -0.0926  0.3599
  776TIP3    H126523   1.146   0.184  19.195  2.3375  0.5788  0.4640
  776TIP3    H226524   1.169   0.038  19.161 -0.3542  0.1718  0.1238
  777TIP3   OH226525   2.612   1.884  18.763 -0.3742  0.7000 -0.6724
  777TIP3    H126526   2.654   1.967  18.741 -0.8126  1.2604  0.5785
  777TIP3    H226527   2.676   1.838  18.817  0.2979 -0.2676 -2.1873
  778TIP3   OH226528   0.513   5.975  18.348  0.5710  0.0327  0.3388
  778TIP3    H126529   0.464   5.933  18.419 -0.2142  0.1790 -0.1121
  778TIP3    H226530   0.490   5.924  18.270  0.6478  0.4949  0.0157
  779TIP3   OH226531   3.306   4.748  18.888 -0.1434 -0.2748  0.1391
  779TIP3    H126532   3.387   4.700  18.908  0.2941  0.4077  0.0492
  779TIP3    H226533   3.333   4.840  18.889 -0.0990 -0.1361 -3.3744
  780TIP3   OH226534   5.005   4.065  18.227  0.3725 -0.3330  0.3207
  780TIP3    H126535   5.065   4.017  18.170 -0.0061  0.4921 -0.7970
  780TIP3    H226536   5.026   4.157  18.212 -0.4014 -0.0743  0.7788
  781TIP3   OH226537   6.558   6.486  18.184 -0.1657 -0.3949  0.0277
  781TIP3    H126538   6.555   6.504  18.090  1.4091 -2.8375 -0.5897
  781TIP3    H226539   6.521   6.398  18.192  2.2066 -1.3426  1.2894
  782TIP3   OH226540   2.801   6.233  19.775  0.3622 -0.5227 -0.2580
  782TIP3    H126541   2.793   6.315  19.823 -0.8766  0.2174 -1.6332
  782TIP3    H226542   2.818   6.167  19.842 -2.3688  0.2619  1.3628
  783TIP3   OH226543   6.016   5.132  18.012  0.3964 -0.3254 -0.7412
  783TIP3    H126544   6.027   5.212  18.063 -1.7126  0.0934 -0.8719
  783TIP3    H226545   5.961   5.157  17.938 -0.7502 -1.9709 -0.5056
  784TIP3   OH226546   4.360   4.203  18.629  0.0726  0.3421  0.2617
  784TIP3    H126547   4.282   4.209  18.683  1.1566 -0.6321  2.0257
  784TIP3    H226548   4.344   4.264  18.556 -2.0134  0.6530  0.9295
  785TIP3   OH226549   2.635   2.567  19.980  0.0803  0.6662 -0.2859
  785TIP3    H126550   2.618   2.660  19.995  0.8732  0.9588 -1.0673
  785TIP3    H226551   2.549   2.528  19.965 -0.1175  1.6211 -1.7667
  786TIP3   OH226552   0.873   0.824  18.916 -0.0411  0.5079  0.2862
  786TIP3    H126553   0.844   0.881  18.845 -1.8911  1.0141  1.3927
  786TIP3    H226554   0.941   0.769  18.876  1.8100  3.3796 -0.8707
  787TIP3   OH226555   4.033   0.434  18.064 -0.2267 -0.2390 -0.4302
  787TIP3    H126556   3.942   0.461  18.051  0.2099  0.8133 -1.4936
  787TIP3    H226557   4.084   0.499  18.016  1.1583 -0.2074  1.0297
  788TIP3   OH226558   2.488   4.918  20.510  0.5194 -0.5749  0.2136
  788TIP3    H126559   2.501   4.960  20.425 -0.2294  1.3098  0.9754
  788TIP3    H226560   2.475   4.990  20.571 -1.2697 -1.9385  1.5567
  789TIP3   OH226561   4.832   5.767  19.398 -0.0392 -0.2210  0.1097
  789TIP3    H126562   4.740   5.788  19.419  0.2959  0.3731  1.0795
  789TIP3    H226563   4.864   5.845  19.353 -0.3937 -0.9983 -1.5652
  790TIP3   OH226564   2.886   3.665  18.745  0.1328  0.0318  0.2508
  790TIP3    H126565   2.798   3.649  18.779 -0.9344  1.4932 -1.6598
  790TIP3    H226566   2.892   3.760  18.738  1.7257 -0.0668 -0.0608
  791TIP3   OH226567   2.065   3.311  17.463  0.5988 -0.2903 -0.3063
  791TIP3    H126568   2.022   3.311  17.378  0.6570 -0.0942 -0.3367
  791TIP3    H226569   2.158   3.320  17.443  0.5480  0.5909 -0.1950
  792TIP3   OH226570   1.646   3.625  18.833  0.4669  0.2339  0.0329
  792TIP3    H126571   1.667   3.713  18.863  0.0248 -0.2736  1.9836
  792TIP3    H226572   1.718   3.570  18.866  0.1800 -0.3020 -0.2095
  793TIP3   OH226573   3.660   2.146  17.383 -0.6707  0.0386 -0.0914
  793TIP3    H126574   3.579   2.130  17.335 -0.5508  0.5714 -0.4820
  793TIP3    H226575   3.633   2.200  17.457 -0.7955 -0.4642  0.2363
  794TIP3   OH226576   4.776   0.442  16.460  0.0228  0.6773 -0.3861
  794TIP3    H126577   4.716   0.408  16.526 -0.5187 -0.7762 -1.5655
  794TIP3    H226578   4.719   0.489  16.399  0.2286  0.2620 -0.9014
  795TIP3   OH226579   0.466   2.119  18.110 -0.5429  0.2971  0.4557
  795TIP3    H126580   0.534   2.185  18.102 -0.1048 -0.2599 -0.6093
  795TIP3    H226581   0.433   2.129  18.199  1.1670  0.3647  1.1259
  796TIP3   OH226582   2.316   5.100  19.948 -0.6761  0.1552  0.2004
  796TIP3    H126583   2.269   5.046  19.885 -1.3016  1.9140 -0.8984
  796TIP3    H226584   2.285   5.189  19.932  2.1971  1.2699  0.1332
  797TIP3   OH226585   0.616   2.646  18.192 -0.2127 -0.0732  0.2751
  797TIP3    H126586   0.522   2.629  18.180 -0.0919 -2.4456  1.9449
  797TIP3    H226587   0.658   2.564  18.167  1.3001  0.4817  0.8801
  798TIP3   OH226588   5.162   1.967  18.952  0.2280  0.2639 -0.1132
  798TIP3    H126589   5.093   1.940  19.013  0.1643  1.2698  0.2755
  798TIP3    H226590   5.242   1.960  19.004  0.3912 -0.5863 -0.4645
  799TIP3   OH226591   3.488   3.971  17.893 -0.0473 -0.2147  0.5003
  799TIP3    H126592   3.475   3.995  17.802 -2.7426  0.0186  0.8506
  799TIP3    H226593   3.504   4.054  17.938 -1.1629  0.0001  0.5398
  800TIP3   OH226594   0.401   6.169  19.458  0.1644 -0.1837 -0.3483
  800TIP3    H126595   0.448   6.246  19.424  2.2806 -0.5610  1.4931
  800TIP3    H226596   0.464   6.097  19.448 -1.1495 -1.3486 -0.4736
  801TIP3   OH226597   4.664   3.975  19.950 -0.3957  0.0110  0.8300
  801TIP3    H126598   4.742   3.934  19.912 -0.7543  0.5138 -0.5354
  801TIP3    H226599   4.690   4.065  19.969 -0.4614 -0.0021  0.9868
  802TIP3   OH226600   1.340   0.729  19.068  0.4545  0.2268  0.4031
  802TIP3    H126601   1.402   0.656  19.073 -0.8955 -0.8946  1.3044
  802TIP3    H226602   1.315   0.746  19.159 -2.1701 -0.7866 -0.0548
  803TIP3   OH226603   5.853   5.832  17.551 -0.8724 -0.6269  0.0553
  803TIP3    H126604   5.773   5.870  17.516 -0.0207  0.1389 -1.1274
  803TIP3    H226605   5.920   5.849  17.485  0.8131  0.8180  1.9683
  804TIP3   OH226606   4.100   2.781  19.450 -0.0805 -0.6193  0.2797
  804TIP3    H126607   4.005   2.766  19.451 -0.1885 -0.2458 -1.2973
  804TIP3    H226608   4.110   2.874  19.470 -0.0572 -0.6302  0.3176
  805TIP3   OH226609   6.537   1.549  20.398  0.5500  0.1946 -0.4800
  805TIP3    H126610   6.509   1.560  20.489  1.5564  2.1507 -0.3512
  805TIP3    H226611   6.484   1.476  20.366  0.7046 -1.0739  1.8708
  806TIP3   OH226612   2.504   6.477  19.680 -0.2874 -0.5902  0.2308
  806TIP3    H126613   2.434   6.500  19.618  0.2749  1.4589  0.2922
  806TIP3    H226614   2.525   6.559  19.724  2.5289 -1.0060 -0.1662
  807TIP3   OH226615   1.396   5.821  17.539  0.6318  0.0630  0.0346
  807TIP3    H126616   1.436   5.834  17.453 -2.7225  0.9478 -1.5401
  807TIP3    H226617   1.326   5.886  17.543 -0.5850 -1.2628  2.6352
  808TIP3   OH226618   1.942   2.029  18.589  0.0941  0.0178  0.3551
  808TIP3    H126619   1.992   1.950  18.608  1.8269  0.2919 -2.4624
  808TIP3    H226620   1.992   2.099  18.633  0.0099 -0.1402  0.7086
  809TIP3   OH226621   6.704   0.312  20.019  0.2484  0.1586  0.4069
  809TIP3    H126622   6.705   0.364  20.099  0.4449 -1.1925  1.3206
  809TIP3    H226623   6.733   0.225  20.047  1.4832 -0.0441 -1.3433
  810TIP3   OH226624   2.157   5.361  16.901 -0.2246 -0.4381  0.4444
  810TIP3    H126625   2.225   5.339  16.964  1.0546 -1.4792 -1.2120
  810TIP3    H226626   2.158   5.289  16.838 -0.4538  1.1986 -1.5406
  811TIP3   OH226627   1.666   0.536  20.001 -0.4383  0.2412  0.4774
  811TIP3    H126628   1.727   0.572  19.937 -0.1891 -0.5929  0.2384
  811TIP3    H226629   1.718   0.475  20.053 -1.0661 -0.4834  0.2693
  812TIP3   OH226630   1.331   5.689  18.560  0.1031 -0.4007 -0.1628
  812TIP3    H126631   1.240   5.718  18.558 -0.0179 -0.6781  0.7456
  812TIP3    H226632   1.376   5.746  18.498 -0.4642  0.5385  0.2656
  813TIP3   OH226633   1.953   3.798  17.999 -0.7870  0.5805 -0.1724
  813TIP3    H126634   1.907   3.875  18.035 -1.5183  1.1260 -2.1403
  813TIP3    H226635   1.889   3.727  18.006  0.0941 -0.0830  2.2008
  814TIP3   OH226636   0.037   4.505  20.671 -0.4180 -0.0965 -0.6968
  814TIP3    H126637   0.005   4.445  20.738 -0.8806  0.5518 -0.3209
  814TIP3    H226638  -0.042   4.544  20.634 -0.1564 -0.2990 -1.4883
  815TIP3   OH226639   0.976   4.710  19.504 -0.7973 -0.0578  0.3112
  815TIP3    H126640   0.907   4.644  19.516  1.2059 -2.1447  1.0286
  815TIP3    H226641   1.024   4.710  19.586  0.1054  1.3040 -0.1895
  816TIP3   OH226642   6.564   2.805  20.142 -0.1508 -0.0395  0.1344
  816TIP3    H126643   6.609   2.872  20.194 -1.6848  1.7394 -0.7535
  816TIP3    H226644   6.478   2.797  20.182 -0.8795  0.3917 -1.2970
  817TIP3   OH226645   2.269   5.349  17.314 -0.3692  0.3728  0.3317
  817TIP3    H126646   2.317   5.267  17.314 -0.1660  0.4874  0.7911
  817TIP3    H226647   2.221   5.350  17.396 -1.6532 -0.0133 -0.3831
  818TIP3   OH226648   1.449   0.386  19.304 -0.7685 -0.0028  0.2309
  818TIP3    H126649   1.375   0.327  19.290 -1.0677  0.5826 -0.6877
  818TIP3    H226650   1.527   0.332  19.287 -1.0539 -0.0054 -1.1748
  819TIP3   OH226651   0.170   5.719  18.306  0.9095 -0.3722  0.3065
  819TIP3    H126652   0.117   5.648  18.270  0.7571 -0.1951  0.1754
  819TIP3    H226653   0.260   5.695  18.285  0.7311  0.8793 -2.4057
  820TIP3   OH226654   0.105   4.969  18.536 -0.2596 -0.3610 -0.3749
  820TIP3    H126655   0.199   4.968  18.550 -0.0587 -1.6791 -1.5867
  820TIP3    H226656   0.073   5.043  18.588  1.3766 -0.1511  0.3685
  821TIP3   OH226657   4.785   0.593  17.925 -0.0972  0.6083 -0.2898
  821TIP3    H126658   4.760   0.568  17.836 -1.1531  1.3310 -0.2093
  821TIP3    H226659   4.708   0.573  17.978  0.7891 -0.5490  0.6230
  822TIP3   OH226660   5.073   4.909  18.513  0.2553 -0.1740  0.2765
  822TIP3    H126661   5.081   5.002  18.496 -0.4962 -0.1436  0.0657
  822TIP3    H226662   5.137   4.892  18.582  1.8298  0.0997 -1.0769
  823TIP3   OH226663   2.254   5.743  19.011 -0.4505  0.2536  0.3270
  823TIP3    H126664   2.300   5.711  19.088  0.3236  1.1144  0.2385
  823TIP3    H226665   2.283   5.834  19.001  0.6566 -0.2759 -1.8602
  824TIP3   OH226666   4.614   0.962  19.370  0.0442  0.7669 -0.2318
  824TIP3    H126667   4.571   0.931  19.290 -1.2000  0.9086  0.3551
  824TIP3    H226668   4.643   0.882  19.414 -1.4279  0.5186  0.3346
  825TIP3   OH226669   3.149   2.007  16.882 -0.3473  0.1838 -0.1843
  825TIP3    H126670   3.087   2.010  16.809  0.7767 -2.7994 -1.4101
  825TIP3    H226671   3.103   1.959  16.951 -0.0924 -0.3459 -0.3788
  826TIP3   OH226672   1.715   4.004  20.111 -0.1892  0.0748 -0.1518
  826TIP3    H126673   1.690   4.065  20.180 -0.1700 -0.5317  0.3943
  826TIP3    H226674   1.750   3.928  20.157  1.0583  0.1979 -0.8561
  827TIP3   OH226675   1.257   2.008  19.948 -0.5139 -0.3350 -0.0045
  827TIP3    H126676   1.257   1.938  20.013 -2.8428 -0.2125  0.2137
  827TIP3    H226677   1.174   2.055  19.963  0.9588  2.5318 -0.0836
  828TIP3   OH226678   5.920   5.709  16.860  0.2238 -0.1760 -0.5952
  828TIP3    H126679   5.947   5.621  16.835 -0.4200 -0.8876  1.0998
  828TIP3    H226680   5.830   5.717  16.828 -0.2706 -0.7371  0.6182
  829TIP3   OH226681   1.838   4.393  18.354 -0.0472  1.0498 -0.0479
  829TIP3    H126682   1.831   4.482  18.389 -0.6307  1.1708 -0.4560
  829TIP3    H226683   1.907   4.352  18.406 -0.0439  1.6195  0.4056
  830TIP3   OH226684   5.162   6.191  20.394  0.2953 -0.6683  0.2586
  830TIP3    H126685   5.233   6.231  20.444  0.0168 -0.1951  0.2794
  830TIP3    H226686   5.163   6.236  20.309  1.5282 -2.2670 -0.6341
  831TIP3   OH226687   0.648   2.757  17.099  0.0636 -0.3762  0.0920
  831TIP3    H126688   0.603   2.787  17.178 -2.1701 -0.2342 -1.1459
  831TIP3    H226689   0.641   2.661  17.102 -0.3191 -0.3556 -0.0854
  832TIP3   OH226690   3.279   0.712  18.062  0.4678  1.0528 -0.4070
  832TIP3    H126691   3.285   0.693  18.156  1.3575  0.8502 -0.4979
  832TIP3    H226692   3.186   0.730  18.047  0.3207  1.0936  0.5117
  833TIP3   OH226693   3.102   1.949  19.776  0.2553  0.2459 -0.2016
  833TIP3    H126694   3.149   1.990  19.703  1.8027 -0.8992  0.1101
  833TIP3    H226695   3.082   2.021  19.835 -1.1267  1.2208 -1.7701
  834TIP3   OH226696   4.931   6.456  18.163 -0.3117  0.3646 -0.8855
  834TIP3    H126697   4.960   6.374  18.203 -0.3216  0.0496 -1.5132
  834TIP3    H226698   5.002   6.518  18.180 -0.4196  0.3030 -0.1854
  835TIP3   OH226699   2.836   4.886  19.062  0.1576  0.4897 -0.2376
  835TIP3    H126700   2.842   4.821  18.993 -0.3724  0.3630 -0.1718
  835TIP3    H226701   2.925   4.921  19.071  0.3961 -0.0662 -0.4239
  836TIP3   OH226702   4.120   4.673  19.027 -0.2565 -0.3017  0.1511
  836TIP3    H126703   4.051   4.737  19.006  0.3224  0.4242  0.4010
  836TIP3    H226704   4.187   4.688  18.960 -0.0896 -0.6113  0.2464
  837TIP3   OH226705   1.337   2.306  18.647  0.0002  0.1059 -0.3313
  837TIP3    H126706   1.288   2.251  18.585  0.9021 -1.3561  0.2182
  837TIP3    H226707   1.390   2.362  18.591 -0.6840  0.2067 -0.9023
  838TIP3   OH226708   4.022   5.148  18.556  0.1913 -0.3344  0.2060
  838TIP3    H126709   4.086   5.084  18.525  0.7670  0.6111 -0.6014
  838TIP3    H226710   4.037   5.226  18.502 -1.4847 -0.0029  0.1593
  839TIP3   OH226711   1.836   6.359  18.562  0.3131 -0.3733 -0.7498
  839TIP3    H126712   1.876   6.283  18.604  1.7620  0.9582  0.3547
  839TIP3    H226713   1.836   6.337  18.469 -0.5952 -2.2947 -0.3501
  840TIP3   OH226714   4.260   1.217  18.848  0.4432 -0.5832  0.1006
  840TIP3    H126715   4.285   1.220  18.940 -0.2798 -0.0691  0.2819
  840TIP3    H226716   4.226   1.128  18.835 -0.0805 -0.4415  0.4932
  841TIP3   OH226717   6.464   5.224  19.962  0.2458 -0.1152 -0.2615
  841TIP3    H126718   6.399   5.295  19.958  0.8152  0.3560 -1.3469
  841TIP3    H226719   6.536   5.254  19.906  0.7163 -1.3337 -0.3286
  842TIP3   OH226720   5.804   2.747  20.070 -0.2848 -0.3060  0.4862
  842TIP3    H126721   5.813   2.838  20.042  1.1488 -0.8153 -0.8422
  842TIP3    H226722   5.728   2.714  20.022 -1.2562  0.3450  1.5169
  843TIP3   OH226723   0.181   5.424  19.270  0.1143 -0.1337  0.3737
  843TIP3    H126724   0.238   5.440  19.194 -0.1282  1.6820  0.5311
  843TIP3    H226725   0.226   5.355  19.319  2.4063  1.4476  0.6592
  844TIP3   OH226726   5.016   1.090  19.060 -0.3170 -0.4434 -0.4070
  844TIP3    H126727   5.076   1.141  19.006 -0.7879 -0.9005 -1.4086
  844TIP3    H226728   4.929   1.126  19.041 -0.3905  0.1539  0.9574
  845TIP3   OH226729   6.157   5.515  18.305  0.3718 -0.2942  0.1908
  845TIP3    H126730   6.208   5.505  18.224  0.1385 -0.3388  0.0483
  845TIP3    H226731   6.223   5.529  18.373  0.5897 -0.5770  0.0424
  846TIP3   OH226732   6.145   5.394  17.666  0.0084 -0.6680 -0.1470
  846TIP3    H126733   6.059   5.426  17.691  0.0306 -0.2361 -0.6122
  846TIP3    H226734   6.200   5.473  17.664  0.1449 -0.7693 -0.9525
  847TIP3   OH226735   2.712   3.340  19.798  0.4886  0.3056 -0.4512
  847TIP3    H126736   2.679   3.377  19.716  1.2673 -2.0035 -1.9075
  847TIP3    H226737   2.690   3.247  19.792  0.0162  0.1779  2.2812
  848TIP3   OH226738   3.823   2.069  18.941  0.1282  0.2531 -0.1506
  848TIP3    H126739   3.778   2.063  18.858 -1.5973  1.9230  0.5996
  848TIP3    H226740   3.904   2.117  18.921  0.0640  0.0286 -0.9770
  849TIP3   OH226741   5.231   4.856  17.855  0.1964  0.5350 -0.3104
  849TIP3    H126742   5.287   4.920  17.810 -0.5770  0.8743 -0.8068
  849TIP3    H226743   5.144   4.895  17.854 -0.3681 -0.6728 -0.9303
  850TIP3   OH226744   4.870   0.872  18.881  0.2739  0.5186  0.4234
  850TIP3    H126745   4.921   0.912  18.811 -1.4583  0.4330 -0.9427
  850TIP3    H226746   4.933   0.819  18.930  1.4956  0.4460 -1.1660
  851TIP3   OH226747   6.426   3.507  17.740 -0.4435  0.1452 -0.2469
  851TIP3    H126748   6.446   3.416  17.759 -0.0599  0.6407  1.9577
  851TIP3    H226749   6.389   3.541  17.821 -0.7963  1.9095 -1.0966
  852TIP3   OH226750   3.888   5.205  17.353  0.4994 -0.2716 -0.1241
  852TIP3    H126751   3.858   5.296  17.345  1.8115  0.1231 -0.7624
  852TIP3    H226752   3.949   5.193  17.280 -0.0905 -1.8580 -0.4132
  853TIP3   OH226753   5.740   1.632  17.408  0.7809  0.3488 -0.0391
  853TIP3    H126754   5.813   1.570  17.413  1.6118  1.0966 -1.8424
  853TIP3    H226755   5.708   1.624  17.318 -0.3018  1.2243  0.2414
  854TIP3   OH226756   1.410   4.482  17.644 -0.4778  0.1579  0.1511
  854TIP3    H126757   1.488   4.495  17.590 -0.3962  2.1267  0.6606
  854TIP3    H226758   1.441   4.433  17.721  0.4772  1.6541  0.7566
  855TIP3   OH226759   5.632   1.708  20.145  0.2897 -0.9856  0.0721
  855TIP3    H126760   5.671   1.777  20.199  1.2114 -2.0567  0.8395
  855TIP3    H226761   5.555   1.679  20.194  0.0889 -0.7306 -0.0914
  856TIP3   OH226762   6.180   5.946  17.024  0.1926 -0.1281 -0.3079
  856TIP3    H126763   6.220   5.873  17.073 -0.1377 -0.1942 -0.1359
  856TIP3    H226764   6.248   5.973  16.962  0.4280 -0.3836 -0.1641
  857TIP3   OH226765   3.538   5.935  20.042  0.2573  0.4579 -0.1467
  857TIP3    H126766   3.552   5.953  20.135 -1.2650  0.6515  0.0677
  857TIP3    H226767   3.484   6.008  20.011 -0.0403 -0.0896 -0.9606
  858TIP3   OH226768   1.800   6.556  20.089  0.7301 -0.4126 -0.1132
  858TIP3    H126769   1.839   6.473  20.118  1.5858 -0.1575 -0.4817
  858TIP3    H226770   1.800   6.550  19.993  0.4259 -0.1484 -0.1318
  859TIP3   OH226771   1.184   4.980  19.796 -0.3425  0.3331 -0.4637
  859TIP3    H126772   1.225   4.977  19.882 -1.6095 -1.4066  0.1390
  859TIP3    H226773   1.149   5.069  19.788  2.2186  1.4170 -0.4200
  860TIP3   OH226774   4.375   0.170  19.290  0.2083 -0.2182 -0.1665
  860TIP3    H126775   4.414   0.199  19.208  1.2710 -0.7135  0.1406
  860TIP3    H226776   4.334   0.248  19.327  2.0534  0.6690  0.1232
  861TIP3   OH226777   1.777   0.305  20.165 -0.5922  0.4776 -0.2138
  861TIP3    H126778   1.822   0.221  20.161 -1.3655  0.0422  0.0644
  861TIP3    H226779   1.722   0.300  20.243 -0.5933  1.2750 -0.1506
  862TIP3   OH226780   3.799   5.796  18.274  0.2509  0.6521 -0.2057
  862TIP3    H126781   3.742   5.744  18.217  0.2295  0.1059  0.3113
  862TIP3    H226782   3.742   5.822  18.347  0.1424  1.7642 -0.6654
  863TIP3   OH226783   2.443   0.852  17.833  0.0000  0.1381 -0.2757
  863TIP3    H126784   2.484   0.765  17.838  2.1137  1.0455 -0.6819
  863TIP3    H226785   2.355   0.839  17.867  0.7441 -1.8627  1.0776
  864TIP3   OH226786   5.567   3.264  17.473 -0.3016 -0.2516  0.1274
  864TIP3    H126787   5.601   3.241  17.387  0.0582  0.3315  0.1074
  864TIP3    H226788   5.506   3.194  17.494 -0.8263 -0.1071 -0.8516
  865TIP3   OH226789   5.469   3.922  19.146 -0.0443  0.5144 -0.0531
  865TIP3    H126790   5.446   4.009  19.116 -0.2850  0.9294  1.2628
  865TIP3    H226791   5.519   3.937  19.226 -0.8193 -0.5659  0.6656
  866TIP3   OH226792   5.300   5.157  19.448 -0.1354 -0.6061 -0.4426
  866TIP3    H126793   5.236   5.132  19.515 -1.5127  1.1014 -1.0275
  866TIP3    H226794   5.363   5.213  19.494 -2.6752  3.0244 -0.9058
  867TIP3   OH226795   0.381   6.015  17.402 -0.0729  0.2592  0.6814
  867TIP3    H126796   0.353   5.963  17.327 -0.8144 -1.3879  2.0510
  867TIP3    H226797   0.476   6.000  17.407  0.2649  1.6246 -0.7994
  868TIP3   OH226798   3.313   0.454  19.618 -0.0913  0.0469 -0.1777
  868TIP3    H126799   3.269   0.434  19.535  0.4230 -0.6474 -0.2929
  868TIP3    H226800   3.376   0.522  19.596  0.5763 -0.6598 -0.5384
  869TIP3   OH226801   2.822   2.854  17.343  0.3637 -0.0026  0.4305
  869TIP3    H126802   2.882   2.917  17.382 -1.1873  1.1916  0.9829
  869TIP3    H226803   2.862   2.830  17.260  2.1231 -0.0827  1.2580
  870TIP3   OH226804   2.400   4.669  20.500  0.2778  0.0377 -0.1474
  870TIP3    H126805   2.432   4.759  20.500 -0.3918  0.2852 -0.0315
  870TIP3    H226806   2.344   4.664  20.577  0.2752 -0.4662 -0.1837
  871TIP3   OH226807   5.439   0.956  20.294  0.7136  0.7240  0.3625
  871TIP3    H126808   5.528   0.931  20.269  0.7509  0.5114  0.7075
  871TIP3    H226809   5.393   0.874  20.308  0.1722  0.8059 -0.7825
  872TIP3   OH226810   6.248   0.512  18.052 -0.6374  0.5362 -0.0995
  872TIP3    H126811   6.260   0.451  17.979  0.3860  0.6159 -0.0199
  872TIP3    H226812   6.332   0.558  18.057 -0.6626  0.4583  1.1867
  873TIP3   OH226813   0.265   0.329  18.794  0.2200  0.2371  0.1652
  873TIP3    H126814   0.354   0.363  18.780 -0.3283  1.0846 -1.6187
  873TIP3    H226815   0.253   0.265  18.723 -1.7162  2.5646 -1.7687
  874TIP3   OH226816   1.103   4.078  18.431 -0.0785 -0.3504 -0.1457
  874TIP3    H126817   1.044   4.027  18.487  0.2295  0.9483  1.4246
  874TIP3    H226818   1.051   4.096  18.352 -0.8270 -1.4889  0.0685
  875TIP3   OH226819   0.370   2.910  19.594 -1.1156  0.1677 -0.3201
  875TIP3    H126820   0.375   2.997  19.557  0.1199 -0.0392 -0.6589
  875TIP3    H226821   0.460   2.886  19.615 -1.5387 -0.6276  0.7095
  876TIP3   OH226822   0.433   0.744  18.659  0.1481  0.5096 -0.6564
  876TIP3    H126823   0.488   0.736  18.738 -0.8857  0.1072  0.0430
  876TIP3    H226824   0.460   0.828  18.620  2.5895 -0.5250 -1.4002
  877TIP3   OH226825   4.775   4.777  19.787 -0.0556 -0.1221  0.3190
  877TIP3    H126826   4.738   4.813  19.706  0.6381  1.2282  0.5639
  877TIP3    H226827   4.716   4.706  19.811 -2.4425  1.8218  0.6213
  878TIP3   OH226828   3.769   1.508  20.317  0.4605 -0.1219  0.7190
  878TIP3    H126829   3.847   1.542  20.362 -0.7292  3.1492  0.5731
  878TIP3    H226830   3.786   1.525  20.225  0.1836 -0.8192  0.5361
  879TIP3   OH226831   0.927   3.897  18.566 -0.2116  0.1517 -0.0324
  879TIP3    H126832   0.833   3.879  18.571 -0.1261  0.0593  1.7573
  879TIP3    H226833   0.964   3.821  18.522 -1.0164  0.4317 -1.2407
  880TIP3   OH226834   2.122   1.317  20.128  0.1625  0.0315 -0.0254
  880TIP3    H126835   2.113   1.323  20.033 -0.9675  2.2086  0.1749
  880TIP3    H226836   2.195   1.375  20.149 -0.1833  0.2710  0.5299
  881TIP3   OH226837   5.812   4.621  19.729  0.2792  0.0963  0.3235
  881TIP3    H126838   5.801   4.567  19.650  0.2579  0.8133 -0.1669
  881TIP3    H226839   5.844   4.559  19.795 -0.7558 -0.7462  0.0694
  882TIP3   OH226840   2.265   4.411  18.227  0.5396  0.2705 -0.1726
  882TIP3    H126841   2.223   4.475  18.285  1.5759 -0.1147  1.0685
  882TIP3    H226842   2.200   4.342  18.215  0.6580 -0.1905  1.5058
  883TIP3   OH226843   2.970   4.551  19.527 -0.1637  0.4106 -0.2640
  883TIP3    H126844   3.005   4.472  19.485  2.0524  1.3524 -0.2795
  883TIP3    H226845   2.883   4.524  19.556 -0.1820 -1.5133 -1.8056
  884TIP3   OH226846   2.568   1.485  18.887  0.7640  0.0879 -0.3650
  884TIP3    H126847   2.631   1.436  18.940 -1.0779 -1.8302  0.2071
  884TIP3    H226848   2.591   1.466  18.797  0.4910 -1.3498 -0.1522
  885TIP3   OH226849   2.966   2.165  18.741 -0.1674 -0.3849  0.2519
  885TIP3    H126850   2.885   2.151  18.790 -1.0113  1.6186 -0.4575
  885TIP3    H226851   2.937   2.177  18.650  0.9152  0.3433 -0.0122
  886TIP3   OH226852   0.963   0.548  19.724 -0.0038 -0.3966 -0.5292
  886TIP3    H126853   1.040   0.576  19.677  0.3141 -0.0926  0.1553
  886TIP3    H226854   0.957   0.454  19.707  0.5625 -0.4352 -0.5293
  887TIP3   OH226855   3.798   5.985  19.290 -0.0719  0.3021  0.0859
  887TIP3    H126856   3.883   5.992  19.246 -1.3363 -0.0091 -2.6181
  887TIP3    H226857   3.816   5.936  19.371  2.2048 -0.3162 -0.7333
  888TIP3   OH226858   4.828   4.142  18.436  0.3296  0.4728  0.2562
  888TIP3    H126859   4.764   4.072  18.430  0.5213  0.4004 -1.4324
  888TIP3    H226860   4.894   4.120  18.369  0.1299  2.5014 -0.6773
  889TIP3   OH226861   0.834   5.704  18.161  0.2603  0.7085 -0.6682
  889TIP3    H126862   0.828   5.758  18.240 -0.2202  1.9305 -1.5194
  889TIP3    H226863   0.843   5.767  18.089  3.3213 -0.3987 -1.4045
  890TIP3   OH226864   4.655   5.040  18.853 -0.2049 -0.4782  0.0354
  890TIP3    H126865   4.621   5.011  18.768  1.0604 -1.7080 -0.1006
  890TIP3    H226866   4.749   5.054  18.837  0.2265 -1.6051  1.4078
  891TIP3   OH226867   1.538   1.474  19.830 -0.1523 -0.4453 -0.1337
  891TIP3    H126868   1.496   1.558  19.848 -3.0560 -1.5475 -1.1515
  891TIP3    H226869   1.478   1.430  19.770  1.2849 -3.2360  0.3236
  892TIP3   OH226870   0.120   6.576  19.645  0.6115 -0.4860  0.3065
  892TIP3    H126871   0.028   6.601  19.635  0.5359 -0.7174  0.4403
  892TIP3    H226872   0.169   6.655  19.620  0.3767 -0.3412  0.3068
  893TIP3   OH226873   5.504   2.476  17.421 -0.8478  0.0339 -0.2684
  893TIP3    H126874   5.564   2.403  17.407 -0.5021  0.2410  0.1022
  893TIP3    H226875   5.417   2.439  17.410 -0.6750 -0.4534 -0.0107
  894TIP3   OH226876   2.391   1.526  19.093 -0.7105 -0.0237  0.0452
  894TIP3    H126877   2.334   1.588  19.048 -0.1102 -0.4652 -1.3855
  894TIP3    H226878   2.464   1.511  19.032 -0.3019 -1.3144  0.7964
  895TIP3   OH226879   0.635   3.791  20.049  0.4858 -0.0979  0.2574
  895TIP3    H126880   0.603   3.876  20.079  0.5199  0.6382 -1.6168
  895TIP3    H226881   0.728   3.789  20.074  0.2972  0.0702  0.9814
  896TIP3   OH226882   5.477   5.410  20.039 -0.1008  0.5339 -0.6510
  896TIP3    H126883   5.508   5.389  20.127  0.3291  1.5285 -0.5561
  896TIP3    H226884   5.515   5.496  20.020 -0.1767  0.3221 -1.8158
  897TIP3   OH226885   6.161   2.182  17.248  0.1363  0.0282 -0.8621
  897TIP3    H126886   6.210   2.263  17.230  0.6465 -0.3892 -1.3854
  897TIP3    H226887   6.074   2.212  17.274  0.7708  0.8032  0.4679
  898TIP3   OH226888   1.190   4.169  16.992  0.0664  0.0778  0.3058
  898TIP3    H126889   1.107   4.208  17.017  0.5962  1.7317 -0.3923
  898TIP3    H226890   1.246   4.243  16.969  1.3118 -1.0602 -0.5222
  899TIP3   OH226891   6.470   1.981  18.424 -0.4098 -0.4287  0.0085
  899TIP3    H126892   6.384   2.022  18.428 -0.3588 -0.1929  4.7930
  899TIP3    H226893   6.531   2.055  18.426 -0.3126 -0.4198  3.7408
  900TIP3   OH226894   2.896   0.097  20.153  0.3465 -0.0320  0.3164
  900TIP3    H126895   2.830   0.167  20.152  2.5783  2.2550  1.8153
  900TIP3    H226896   2.969   0.131  20.102  1.2263 -1.6123  0.4411
  901TIP3   OH226897   3.759   6.369  19.886 -0.1013 -0.0822  0.4909
  901TIP3    H126898   3.737   6.387  19.795  0.1005 -0.2985  0.4012
  901TIP3    H226899   3.849   6.399  19.895 -1.3992  4.1532  1.7688
  902TIP3   OH226900   1.945   0.618  19.280  0.0160 -0.1041 -0.1699
  902TIP3    H126901   1.989   0.639  19.197 -0.7504  0.9584 -0.3356
  902TIP3    H226902   1.975   0.530  19.302  0.9372 -0.0434 -1.1106
  903TIP3   OH226903   0.082   5.309  17.954 -0.0451 -0.4096  0.2503
  903TIP3    H126904  -0.011   5.286  17.943 -0.4285  0.9905  0.3176
  903TIP3    H226905   0.129   5.243  17.903 -1.1520 -0.4414 -0.7820
  904TIP3   OH226906   2.308   1.773  18.472  0.2460  0.1378 -0.4472
  904TIP3    H126907   2.288   1.743  18.561  0.9880  0.9384  0.0060
  904TIP3    H226908   2.241   1.732  18.417 -1.3651  1.1126  0.7282
  905TIP3   OH226909   2.413   6.003  19.997 -0.5668  0.3421  0.1435
  905TIP3    H126910   2.448   6.028  20.083  2.3501 -0.9740 -0.5296
  905TIP3    H226911   2.424   6.082  19.943  0.5189  0.2671  0.2261
  906TIP3   OH226912   0.474   2.365  20.055  0.7100  0.3718 -0.7061
  906TIP3    H126913   0.394   2.359  20.004 -1.2577 -1.0548  2.2624
  906TIP3    H226914   0.464   2.445  20.107  0.6811 -0.3716  0.4560
  907TIP3   OH226915   6.612   6.198  17.806  0.1458 -0.4378  0.3003
  907TIP3    H126916   6.600   6.140  17.881 -0.4409 -2.4336 -1.2506
  907TIP3    H226917   6.523   6.223  17.781  0.3309  0.1224  0.1820
  908TIP3   OH226918   2.675   3.071  18.551 -0.7422  0.0018 -0.1759
  908TIP3    H126919   2.678   2.994  18.608 -1.5914 -0.3952 -0.6444
  908TIP3    H226920   2.767   3.092  18.533 -0.4952 -0.5590  0.4050
  909TIP3   OH226921   4.226   1.427  18.388 -0.4278  0.0419  0.0068
  909TIP3    H126922   4.318   1.435  18.409 -0.5951  1.3688  0.2820
  909TIP3    H226923   4.212   1.332  18.379  1.0486 -0.1540 -0.5189
  910TIP3   OH226924   5.880   0.698  17.480 -0.3693 -0.2400 -0.1422
  910TIP3    H126925   5.792   0.727  17.503 -0.0216  1.1566 -0.4668
  910TIP3    H226926   5.889   0.720  17.387 -0.8259 -3.4112 -1.0435
  911TIP3   OH226927   3.335   2.040  19.656 -0.2282 -0.0494  0.5782
  911TIP3    H126928   3.355   2.120  19.705  0.1529 -0.3521  0.9177
  911TIP3    H226929   3.412   2.025  19.602  1.2418 -2.0640  3.0011
  912TIP3   OH226930   6.150   1.145  18.951 -0.5586  0.3964  0.9102
  912TIP3    H126931   6.103   1.120  18.871 -1.2366  0.0383  1.4090
  912TIP3    H226932   6.084   1.189  19.005 -0.6985 -1.2458  2.1704
  913TIP3   OH226933   0.356   5.412  18.596  0.4040 -0.5707  0.1455
  913TIP3    H126934   0.270   5.448  18.577 -0.5081 -1.9894  1.3744
  913TIP3    H226935   0.379   5.363  18.517 -0.5560 -1.3259  0.3181
  914TIP3   OH226936   2.987   1.387  17.242 -0.7540 -0.2989  0.4077
  914TIP3    H126937   3.044   1.460  17.267 -1.3909  0.3733 -0.0422
  914TIP3    H226938   3.039   1.335  17.181  0.6223 -1.6501  2.5818
  915TIP3   OH226939   2.556   5.210  18.397  0.7624 -0.6274  0.4940
  915TIP3    H126940   2.522   5.166  18.319 -0.6491 -0.5972  1.0742
  915TIP3    H226941   2.575   5.299  18.368  0.7807 -0.7729  0.0554
  916TIP3   OH226942   1.841   0.872  19.888 -0.0256  0.0869  0.2308
  916TIP3    H126943   1.757   0.877  19.934 -0.7030 -0.4820 -0.9166
  916TIP3    H226944   1.871   0.783  19.902 -0.2291 -0.0847 -0.4138
  917TIP3   OH226945   0.742   2.723  18.804 -0.2098  0.1421  0.1526
  917TIP3    H126946   0.652   2.729  18.771  0.1121  1.2827 -0.5395
  917TIP3    H226947   0.795   2.703  18.728  0.1120 -0.8043  0.6077
  918TIP3   OH226948   5.660   1.924  20.306 -0.6830  0.1371  0.4852
  918TIP3    H126949   5.570   1.951  20.322 -0.5562 -0.1093  1.6750
  918TIP3    H226950   5.713   1.985  20.357 -0.2133 -0.1670  0.3665
  919TIP3   OH226951   5.231   5.935  19.119  0.0007 -0.1130  0.1548
  919TIP3    H126952   5.289   5.991  19.068  1.3027 -0.6536  0.9893
  919TIP3    H226953   5.250   5.957  19.211  0.6573 -1.9463  0.5198
  920TIP3   OH226954   3.327   3.914  20.363  0.0024 -0.2004 -0.4863
  920TIP3    H126955   3.314   3.819  20.370  0.1764 -0.2249 -0.4874
  920TIP3    H226956   3.253   3.944  20.311  0.3778 -0.4484 -1.1699
  921TIP3   OH226957   0.734   6.367  19.144  0.0177 -0.3092  0.1127
  921TIP3    H126958   0.808   6.420  19.114 -0.2866  0.8114  1.2831
  921TIP3    H226959   0.659   6.399  19.093 -0.0805  0.0905  0.5051
  922TIP3   OH226960   5.686   3.761  18.251 -0.4957 -0.2516  0.4156
  922TIP3    H126961   5.753   3.785  18.187 -1.1134  1.2347  0.2981
  922TIP3    H226962   5.733   3.713  18.319  0.1327 -2.1173 -1.2615
  923TIP3   OH226963   6.252   5.905  19.458  0.0038  0.1358  0.4625
  923TIP3    H126964   6.192   5.976  19.435  0.5675  1.2719  2.2761
  923TIP3    H226965   6.195   5.835  19.490 -0.6682 -0.8919 -2.7141
  924TIP3   OH226966   6.055   2.558  19.146  0.0592  0.0625  0.0485
  924TIP3    H126967   6.128   2.503  19.118  1.5272  1.4418  0.9849
  924TIP3    H226968   6.093   2.616  19.212 -1.3184  2.3155 -1.0024
  925TIP3   OH226969   0.433   6.364  18.767  0.4891 -0.0069 -0.1313
  925TIP3    H126970   0.369   6.365  18.695  0.5776  0.0755 -0.2092
  925TIP3    H226971   0.440   6.271  18.791 -0.6168  0.1225  0.7443
  926TIP3   OH226972   5.965   2.291  19.777 -0.2025 -0.1840  0.0849
  926TIP3    H126973   5.959   2.376  19.733 -1.4361  0.9544  2.3075
  926TIP3    H226974   6.034   2.244  19.729  0.4075  1.9896 -1.3041
  927TIP3   OH226975   4.474   2.059  17.874 -0.1560 -0.8186  0.2501
  927TIP3    H126976   4.437   2.111  17.803  0.1770  0.6646  1.1251
  927TIP3    H226977   4.547   2.111  17.907  0.1491 -1.8132  1.2043
  928TIP3   OH226978   0.906   5.303  17.631  0.0798 -0.3267  0.1883
  928TIP3    H126979   0.891   5.229  17.572  0.8333 -0.0901 -0.3230
  928TIP3    H226980   0.819   5.328  17.662 -0.2795 -0.7474 -0.4705
  929TIP3   OH226981   4.481   5.730  17.011 -0.1669  0.3523  0.1191
  929TIP3    H126982   4.482   5.636  17.030  0.1771  0.5942  1.3505
  929TIP3    H226983   4.441   5.770  17.088 -0.0791  1.2458 -0.2850
  930TIP3   OH226984   0.785   5.980  17.086 -0.0386 -0.1199 -0.0312
  930TIP3    H126985   0.847   6.014  17.150  0.1016  1.0197 -0.7325
  930TIP3    H226986   0.765   6.055  17.030 -1.4575 -0.6569 -0.2958
  931TIP3   OH226987   6.535   0.407  18.270  0.3441 -0.1718  0.1639
  931TIP3    H126988   6.517   0.495  18.304  0.5223  0.4745 -1.3310
  931TIP3    H226989   6.542   0.419  18.175  0.1280 -1.8455 -0.0953
  932TIP3   OH226990   2.834   2.863  18.877 -0.3830 -0.4667 -0.5068
  932TIP3    H126991   2.779   2.942  18.872 -0.2969 -0.3153  0.6093
  932TIP3    H226992   2.792   2.809  18.944 -0.2169 -1.2078 -0.9864
  933TIP3   OH226993   2.154   1.627  18.653 -0.0057  0.6317 -0.2170
  933TIP3    H126994   2.080   1.620  18.714  0.6331 -0.8188  0.4380
  933TIP3    H226995   2.114   1.656  18.571 -1.0197  1.7255  0.6279
  934TIP3   OH226996   6.675   3.537  18.042  0.6451  0.3845  0.3460
  934TIP3    H126997   6.758   3.493  18.020 -0.4350 -1.3152 -0.5906
  934TIP3    H226998   6.609   3.468  18.034 -0.7871  1.5268  1.7895
  935TIP3   OH226999   3.552   5.157  18.385  0.1584 -0.0130 -0.1418
  935TIP3    H127000   3.648   5.161  18.386  0.1759  0.2909  2.3129
  935TIP3    H227001   3.526   5.237  18.339  1.0633  0.0609 -0.5626
  936TIP3   OH227002   2.252   4.461  17.533  0.0252  0.2336  0.0359
  936TIP3    H127003   2.246   4.394  17.601  0.6008 -0.0844 -0.2238
  936TIP3    H227004   2.284   4.414  17.456  0.9932  0.9127  0.0124
  937TIP3   OH227005   5.178   5.337  20.382  0.0905  0.9625  0.6171
  937TIP3    H127006   5.252   5.396  20.371  0.3298  0.3167 -1.6101
  937TIP3    H227007   5.101   5.392  20.368  0.3232  0.7531 -1.9687
  938TIP3   OH227008   5.910   6.192  17.522  0.0601 -0.3205  0.3889
  938TIP3    H127009   5.981   6.222  17.578  1.3206 -2.3186 -0.0370
  938TIP3    H227010   5.946   6.116  17.477 -1.8123 -0.3748 -1.1191
  939TIP3   OH227011   5.578   4.686  20.059 -0.4391 -0.2502  0.0928
  939TIP3    H127012   5.671   4.663  20.064  0.0605  1.7714  3.2167
  939TIP3    H227013   5.577   4.775  20.023 -1.0147  0.1891  1.1347
  940TIP3   OH227014   3.550   0.196  20.240  0.5855 -0.0730 -0.2087
  940TIP3    H127015   3.510   0.132  20.298  3.3063 -0.5580  1.3114
  940TIP3    H227016   3.539   0.280  20.285 -1.6338  0.4024 -1.4748
  941TIP3   OH227017   0.250   1.671  18.660  0.3476 -0.0936 -0.2371
  941TIP3    H127018   0.336   1.643  18.628  0.8872 -0.3716  1.3820
  941TIP3    H227019   0.269   1.739  18.724 -0.6985  0.4506 -0.4880
  942TIP3   OH227020   4.344   0.900  19.204 -0.5111  0.2725 -0.5405
  942TIP3    H127021   4.351   0.806  19.219 -1.1502  0.1517 -0.9466
  942TIP3    H227022   4.320   0.937  19.289 -2.4301 -0.2032 -0.8286
  943TIP3   OH227023   1.044   3.829  18.133 -0.2013  0.0419 -0.6803
  943TIP3    H127024   0.953   3.859  18.138 -0.0630  0.3488  0.1407
  943TIP3    H227025   1.059   3.783  18.215 -0.0727 -1.3812 -1.4702
  944TIP3   OH227026   5.431   0.486  19.107  0.2108 -0.0569  0.0341
  944TIP3    H127027   5.465   0.512  19.021  0.1524  1.0282  0.3198
  944TIP3    H227028   5.446   0.392  19.111  1.9175  0.1610 -0.4056
  945TIP3   OH227029   3.472   6.261  20.292 -0.2823 -0.2095  0.5345
  945TIP3    H127030   3.504   6.175  20.319 -0.0205 -0.2150  0.2116
  945TIP3    H227031   3.381   6.264  20.323 -0.6349 -1.0238 -0.3847
  946TIP3   OH227032   0.330   3.801  19.756  0.6026  0.4591  0.0205
  946TIP3    H127033   0.351   3.724  19.809  0.9892  0.7659  0.3208
  946TIP3    H227034   0.339   3.874  19.816 -0.6952  0.6735 -0.0130
  947TIP3   OH227035   0.805   5.933  19.875 -0.2592  0.0013 -0.3734
  947TIP3    H127036   0.730   5.923  19.933 -1.2996 -0.1848 -1.6892
  947TIP3    H227037   0.854   5.851  19.884 -1.1870 -0.6179 -0.8046
  948TIP3   OH227038   1.163   0.801  20.199  0.3103 -0.2268 -0.8414
  948TIP3    H127039   1.243   0.814  20.148  0.1406 -1.6223 -1.5412
  948TIP3    H227040   1.174   0.856  20.276  1.6706  0.0756 -1.2177
  949TIP3   OH227041   0.606   4.732  19.078  0.3196 -0.1442 -0.1216
  949TIP3    H127042   0.523   4.688  19.058  0.0859 -0.2043  0.9296
  949TIP3    H227043   0.672   4.665  19.065  0.2163 -0.0892 -0.9947
  950TIP3   OH227044   1.001   1.213  19.529 -0.2483  0.0739  0.5048
  950TIP3    H127045   1.083   1.249  19.496  0.4373 -2.1568 -0.4382
  950TIP3    H227046   1.021   1.185  19.618 -0.2704  0.4232  0.6196
  951TIP3   OH227047   3.852   0.450  17.732  0.2228 -0.0466 -0.0061
  951TIP3    H127048   3.879   0.370  17.776 -0.9340 -0.3758  0.1431
  951TIP3    H227049   3.788   0.421  17.667 -0.1865  0.7468  0.0240
  952TIP3   OH227050   0.421   5.582  18.291  0.2820 -0.5054 -0.4594
  952TIP3    H127051   0.504   5.630  18.299 -0.3853  0.6906 -0.5254
  952TIP3    H227052   0.425   5.542  18.204  0.1181  0.8706 -1.1168
  953TIP3   OH227053   5.841   2.635  20.368 -0.3252  0.3571  0.1284
  953TIP3    H127054   5.887   2.556  20.396  1.1541  0.4913 -1.7756
  953TIP3    H227055   5.762   2.602  20.326  0.3903 -0.1510 -0.8571
  954TIP3   OH227056   1.226   4.435  16.898 -0.0476 -0.0919  0.3274
  954TIP3    H127057   1.179   4.424  16.980 -0.6060  0.1221  0.0387
  954TIP3    H227058   1.188   4.514  16.859  0.7129  0.2238  0.2018
  955TIP3   OH227059   1.900   1.195  18.510 -0.1726  0.7136 -0.0147
  955TIP3    H127060   1.862   1.277  18.540 -0.2158  0.6308  0.1588
  955TIP3    H227061   1.977   1.183  18.565 -0.5565  0.2868  0.4305
  956TIP3   OH227062   4.100   4.613  16.832 -0.2132 -0.4457  0.3954
  956TIP3    H127063   4.155   4.678  16.788  0.4695 -1.7745 -0.7909
  956TIP3    H227064   4.011   4.649  16.827  0.1925  0.5361  0.0496
  957TIP3   OH227065   2.951   6.635  17.483 -0.1514  0.5357 -0.2887
  957TIP3    H127066   2.898   6.683  17.419  1.1551  0.4138 -1.4841
  957TIP3    H227067   3.007   6.578  17.432  0.1307 -0.4264  1.0256
  958TIP3   OH227068   0.719   3.789  17.170 -0.0292 -0.0693  0.8615
  958TIP3    H127069   0.687   3.876  17.195 -0.3937  0.3907 -1.0574
  958TIP3    H227070   0.806   3.805  17.134  0.4452 -0.6880  1.7073
  959TIP3   OH227071   4.654   4.446  20.519  0.2164 -0.5074 -0.9272
  959TIP3    H127072   4.633   4.530  20.558  0.3310 -0.2777 -1.3518
  959TIP3    H227073   4.574   4.394  20.528  0.4237 -0.6636  0.1256
  960TIP3   OH227074   1.176   4.694  17.109  0.9648 -0.0154 -0.1537
  960TIP3    H127075   1.102   4.729  17.159  1.9231 -0.0496  1.3519
  960TIP3    H227076   1.136   4.654  17.032 -0.3686  2.3258 -0.7948
  961TIP3   OH227077   6.610   0.839  17.795  0.8818  0.2891  0.2568
  961TIP3    H127078   6.624   0.777  17.724 -0.1853  0.1210  0.1811
  961TIP3    H227079   6.698   0.864  17.823  1.3587 -1.9378  0.9034
  962TIP3   OH227080   4.310   2.713  17.498  0.2540  0.4255 -0.1577
  962TIP3    H127081   4.276   2.802  17.492 -1.1380 -0.0505  0.4340
  962TIP3    H227082   4.293   2.675  17.412 -2.1057 -0.2541  0.5282
  963TIP3   OH227083   3.225   1.277  17.784 -0.3431  0.4194  0.2242
  963TIP3    H127084   3.235   1.241  17.872  2.4737  0.1731 -0.1026
  963TIP3    H227085   3.211   1.201  17.728 -0.8793  0.4561  0.3079
  964TIP3   OH227086   1.124   1.342  18.149  0.2038  0.2650 -0.4425
  964TIP3    H127087   1.166   1.412  18.098 -0.4589  0.9221 -0.1191
  964TIP3    H227088   1.176   1.264  18.131  2.6626  1.3659  1.2904
  965TIP3   OH227089   4.645   1.934  17.633 -0.4191  0.2867  0.4334
  965TIP3    H127090   4.695   1.994  17.577 -1.4985  0.9359  0.1505
  965TIP3    H227091   4.694   1.934  17.716  0.7234 -0.0439 -0.2101
  966TIP3   OH227092   2.473   4.661  19.195 -0.3595 -0.0558  0.0084
  966TIP3    H127093   2.513   4.744  19.169 -0.1257  0.5668  2.1567
  966TIP3    H227094   2.392   4.656  19.145  0.2814  0.7841 -1.1583
  967TIP3   OH227095   3.574   1.333  18.795 -0.0429 -0.1665  0.2343
  967TIP3    H127096   3.506   1.282  18.750 -0.0845 -0.9740  1.1915
  967TIP3    H227097   3.623   1.268  18.845  0.4181  0.6396  0.8353
  968TIP3   OH227098   1.061   6.645  17.508  0.1638  0.3024  0.6327
  968TIP3    H127099   1.016   6.726  17.532  0.2699  0.6442 -0.2585
  968TIP3    H227100   0.992   6.579  17.506  0.3661 -0.0693  3.1839
  969TIP3   OH227101   2.441   0.116  19.144  0.6198  0.4565 -0.5621
  969TIP3    H127102   2.371   0.178  19.129 -0.2372 -0.1866  0.5505
  969TIP3    H227103   2.489   0.151  19.220 -0.9799 -1.0584  1.2691
  970TIP3   OH227104   2.620   4.058  18.906  0.6244  0.0400  0.0698
  970TIP3    H127105   2.659   4.138  18.940  1.4419 -0.1524 -0.3985
  970TIP3    H227106   2.531   4.058  18.940  0.3578  1.5431 -0.5693
  971TIP3   OH227107   1.550   4.237  18.118  0.8256  0.1547 -0.0861
  971TIP3    H127108   1.540   4.164  18.179  0.1924  0.3077  0.0004
  971TIP3    H227109   1.630   4.281  18.146 -1.0058  2.1075  2.6982
  972TIP3   OH227110   4.573   0.559  19.783 -0.0472  0.3365  0.0355
  972TIP3    H127111   4.565   0.652  19.804  0.5089  0.3285  0.3176
  972TIP3    H227112   4.649   0.530  19.835  0.6391  0.0398 -1.1079
  973TIP3   OH227113   3.712   6.652  18.956  0.2482 -0.7276  0.0428
  973TIP3    H127114   3.738   6.593  19.027  1.3208  0.4723  0.6943
  973TIP3    H227115   3.664   6.596  18.895  0.5021 -2.0908  1.0328
  974TIP3   OH227116   5.464   1.930  18.959  0.0972 -0.5769 -0.0084
  974TIP3    H127117   5.428   1.882  18.884 -0.1338 -2.3507  1.1579
  974TIP3    H227118   5.550   1.890  18.973  1.3825  1.6553 -0.9882
  975TIP3   OH227119   3.798   6.185  18.803  0.3975  0.2148  0.3591
  975TIP3    H127120   3.892   6.170  18.815  0.6469 -0.4489 -1.8682
  975TIP3    H227121   3.793   6.265  18.749 -0.4521  1.5126  2.2562
  976TIP3   OH227122   4.774   3.964  18.096 -0.1056  0.3899 -0.3600
  976TIP3    H127123   4.686   3.998  18.110  0.2137  1.2631 -0.4341
  976TIP3    H227124   4.832   4.039  18.112  0.5881 -0.0053 -0.9470
  977TIP3   OH227125   1.465   3.851  18.056  0.2005 -0.2440  0.2126
  977TIP3    H127126   1.492   3.923  18.114 -0.6931  0.7717 -0.5894
  977TIP3    H227127   1.387   3.884  18.012  0.5409 -1.1935 -1.1639
  978TIP3   OH227128   4.509   3.929  19.007  0.0922  0.5826 -0.2079
  978TIP3    H127129   4.532   3.948  19.098 -0.9726  0.0559  0.1896
  978TIP3    H227130   4.453   4.003  18.981 -0.0287  0.4724 -0.2602
  979TIP3   OH227131   3.342   4.850  19.600 -0.3339  0.2333 -0.2752
  979TIP3    H127132   3.306   4.905  19.530 -0.6284  0.8422  0.3546
  979TIP3    H227133   3.287   4.772  19.599  0.2312 -0.1795 -1.3266
  980TIP3   OH227134   2.124   2.523  19.757  0.4868  0.2219  0.0313
  980TIP3    H127135   2.129   2.553  19.666 -0.3889 -0.7133 -0.3421
  980TIP3    H227136   2.041   2.475  19.762 -0.1982  1.4709  1.7025
  981TIP3   OH227137   0.295   0.576  18.215 -0.0675 -0.7396  0.0802
  981TIP3    H127138   0.302   0.485  18.188  0.3318 -1.0889  1.2932
  981TIP3    H227139   0.319   0.576  18.308 -1.2978  0.4055  0.4323
  982TIP3   OH227140   0.408   4.539  19.458 -0.4856 -0.0403  0.3245
  982TIP3    H127141   0.322   4.581  19.451 -0.2966  1.1971  3.7334
  982TIP3    H227142   0.469   4.612  19.466  0.8034 -0.9393 -0.7870
  983TIP3   OH227143   1.226   1.851  20.163  0.1391 -0.1809 -0.1644
  983TIP3    H127144   1.168   1.882  20.233 -1.9362 -0.1000 -1.8259
  983TIP3    H227145   1.313   1.850  20.203 -0.8168  0.7632  2.1194
  984TIP3   OH227146   6.566   3.846  18.417  0.6516  0.0798  0.4727
  984TIP3    H127147   6.512   3.916  18.454  1.6570 -0.2043  2.6085
  984TIP3    H227148   6.606   3.885  18.339 -1.1391  0.8757 -0.1068
  985TIP3   OH227149   1.439   1.679  18.738 -0.3511  0.1797  0.1693
  985TIP3    H127150   1.440   1.708  18.829  0.3483  1.0114 -0.0800
  985TIP3    H227151   1.455   1.585  18.742  1.0644  0.4225  0.8591
  986TIP3   OH227152   3.471   0.222  18.294 -0.2357 -0.1763 -0.7968
  986TIP3    H127153   3.470   0.163  18.369  1.4872 -0.8798 -1.2752
  986TIP3    H227154   3.467   0.164  18.218  0.8870  0.3341 -1.2629
  987TIP3   OH227155   6.091   5.518  18.654  0.1727 -0.1034  0.1685
  987TIP3    H127156   6.007   5.518  18.607  0.5796 -2.7893 -0.7403
  987TIP3    H227157   6.134   5.598  18.626 -1.0365  0.0679 -1.3733
  988TIP3   OH227158   4.165   5.506  17.032  0.1231 -0.0892  0.4277
  988TIP3    H127159   4.241   5.489  16.977  0.7747  0.2772  1.1832
  988TIP3    H227160   4.102   5.438  17.009  0.9318 -0.7907  0.2389
  989TIP3   OH227161   1.895   1.037  17.865 -0.0047  0.3153  0.3551
  989TIP3    H127162   1.827   1.024  17.798 -0.4378  1.0441  0.6357
  989TIP3    H227163   1.925   1.127  17.851  0.4882  0.1972  0.6186
  990TIP3   OH227164   1.246   3.525  19.571 -0.1490  0.3159  0.0983
  990TIP3    H127165   1.222   3.434  19.551 -1.1733  0.7308 -0.6708
  990TIP3    H227166   1.164   3.574  19.561 -0.4394  0.8781  3.8013
  991TIP3   OH227167   0.718   0.317  16.793  0.3397  0.7383 -0.1699
  991TIP3    H127168   0.708   0.280  16.881  1.0968  1.3531  0.1797
  991TIP3    H227169   0.673   0.254  16.736 -1.0856  0.8584  0.7675
  992TIP3   OH227170   2.257   0.513  19.448  0.0519 -0.5552  0.0137
  992TIP3    H127171   2.334   0.465  19.477 -0.8417 -1.0976  1.6166
  992TIP3    H227172   2.185   0.450  19.456 -0.8337  0.4533  0.2417
  993TIP3   OH227173   5.376   2.277  19.972  0.2979 -0.0768  0.2243
  993TIP3    H127174   5.408   2.266  19.882  1.0151 -0.6610  0.5452
  993TIP3    H227175   5.352   2.189  20.001 -1.5744  0.3172  0.0348
  994TIP3   OH227176   0.183   4.192  16.943  0.5603  0.0515 -0.3722
  994TIP3    H127177   0.159   4.280  16.915  0.6579 -0.0491 -0.7781
  994TIP3    H227178   0.200   4.145  16.862 -0.2891 -0.5675 -0.2097
  995TIP3   OH227179   5.565   4.642  17.854  0.0342 -0.0927 -0.1943
  995TIP3    H127180   5.479   4.664  17.891  0.6881 -1.1636  2.1799
  995TIP3    H227181   5.546   4.574  17.789 -1.1356  1.5943 -1.7197
  996TIP3   OH227182   3.232   5.907  17.161 -0.0805 -0.2603  0.0405
  996TIP3    H127183   3.260   5.952  17.082 -0.0254  0.0714  0.2481
  996TIP3    H227184   3.220   5.976  17.226 -2.8715 -0.1751 -0.4416
  997TIP3   OH227185   5.552   5.443  17.930  0.0949  0.9148  0.0942
  997TIP3    H127186   5.597   5.523  17.902  0.7791  0.9481  1.2175
  997TIP3    H227187   5.467   5.474  17.962  0.3580  1.1979  0.5250
  998TIP3   OH227188   2.685   6.339  20.103 -0.2863  1.1076  0.4032
  998TIP3    H127189   2.738   6.413  20.070  1.8443 -0.0919  0.9485
  998TIP3    H227190   2.686   6.350  20.198  0.6981 -0.0120  0.5374
  999TIP3   OH227191   2.162   1.853  20.150 -0.3202 -0.6126  0.1980
  999TIP3    H127192   2.129   1.921  20.209 -0.3687 -0.8108  0.4020
  999TIP3    H227193   2.254   1.876  20.136 -0.7130  0.3341 -0.9358
 1000TIP3   OH227194   5.568   0.202  17.935  0.3730  0.2057 -0.0530
 1000TIP3    H127195   5.633   0.174  18.000  1.2573 -0.0602 -1.0077
 1000TIP3    H227196   5.484   0.188  17.977  0.9170 -0.2348  0.9276
 1001TIP3   OH227197   4.055   4.379  16.966  1.0689  0.5072  1.1650
 1001TIP3    H127198   4.088   4.468  16.954  1.5773  0.1968  0.1054
 1001TIP3    H227199   3.978   4.374  16.909  0.3808  0.5900  2.0591
 1002TIP3   OH227200   6.195   5.609  19.593 -0.0505 -0.1658  0.1894
 1002TIP3    H127201   6.133   5.644  19.528  1.7425  2.5567 -0.2532
 1002TIP3    H227202   6.243   5.542  19.546 -0.1307  0.3749 -0.6963
 1003TIP3   OH227203   0.749   5.750  17.682  0.0400  0.2182  0.2587
 1003TIP3    H127204   0.776   5.842  17.679  0.8198  0.0590  1.5331
 1003TIP3    H227205   0.831   5.702  17.699 -0.6060 -0.5421  1.3718
 1004TIP3   OH227206   2.383   1.102  20.359 -0.1212 -0.5282  0.1364
 1004TIP3    H127207   2.290   1.079  20.350 -0.6202  1.4855 -0.2502
 1004TIP3    H227208   2.399   1.164  20.288  1.8156 -1.6150 -0.4333
 1005TIP3   OH227209   6.668   2.976  19.711 -0.3772 -0.2387  0.3737
 1005TIP3    H127210   6.667   2.890  19.670  0.0448 -0.4704  0.8358
 1005TIP3    H227211   6.746   2.975  19.767 -0.6947  0.2305  0.8361
 1006TIP3   OH227212   6.596   5.351  20.391  0.2548 -0.3513 -0.2805
 1006TIP3    H127213   6.636   5.339  20.477  1.2919 -1.9686 -0.9272
 1006TIP3    H227214   6.649   5.420  20.350 -0.4672  0.6805  0.4700
 1007TIP3   OH227215   2.009   0.032  18.923 -0.0469  0.1745 -0.5167
 1007TIP3    H127216   2.087  -0.003  18.965  0.7601  1.6569 -0.6769
 1007TIP3    H227217   1.938  -0.026  18.950  0.6496  0.3157  1.8195
 1008TIP3   OH227218   6.140   0.680  17.589  0.0859 -0.1465  0.3890
 1008TIP3    H127219   6.112   0.700  17.679  0.6212  1.5557  0.2070
 1008TIP3    H227220   6.059   0.672  17.539 -0.1864  2.1732  0.3826
 1009TIP3   OH227221   0.563   3.581  17.081  0.0542 -0.2915 -0.6066
 1009TIP3    H127222   0.620   3.651  17.112 -1.4720  0.9753 -0.5670
 1009TIP3    H227223   0.571   3.584  16.986  0.9602 -0.9362 -0.5668
 1010TIP3   OH227224   0.808   1.947  19.278  0.2632 -0.1470 -0.0106
 1010TIP3    H127225   0.754   1.967  19.202 -1.4109 -1.7119  0.7067
 1010TIP3    H227226   0.858   1.870  19.253  0.9533  0.3172 -0.0898
 1011TIP3   OH227227   3.127   1.629  20.054  0.2359 -0.0324 -0.0978
 1011TIP3    H127228   3.176   1.706  20.082  0.6419 -0.1092 -0.5836
 1011TIP3    H227229   3.151   1.617  19.962 -0.8608  0.0537 -0.4095
 1012TIP3   OH227230   0.445   6.444  18.440  0.5265  0.0456  0.2220
 1012TIP3    H127231   0.362   6.430  18.396  1.4909 -0.5452 -1.4988
 1012TIP3    H227232   0.423   6.498  18.516 -1.4614 -0.4172  0.0348
 1013TIP3   OH227233   2.138   1.232  19.512 -0.0594  0.2788 -0.1031
 1013TIP3    H127234   2.217   1.196  19.553  1.7288 -0.7212 -3.9254
 1013TIP3    H227235   2.158   1.325  19.500  0.9817 -0.0986 -1.6902
 1014TIP3   OH227236   5.483   1.596  19.060  0.3177  0.8556  0.7481
 1014TIP3    H127237   5.389   1.613  19.055  0.2344  0.8905  2.1378
 1014TIP3    H227238   5.495   1.547  19.142  1.2808 -0.7608 -0.2774
 1015TIP3   OH227239   1.513   1.761  19.966  0.3385 -0.0370  0.2163
 1015TIP3    H127240   1.574   1.716  20.025  1.1941  1.7531  0.7726
 1015TIP3    H227241   1.567   1.787  19.891 -0.4609 -1.1564 -0.7914
 1016TIP3   OH227242   3.354   1.377  19.982 -0.1360  0.5097 -0.3091
 1016TIP3    H127243   3.301   1.451  19.955 -0.2882  0.4041 -0.3001
 1016TIP3    H227244   3.441   1.396  19.947 -0.4467  0.1266 -1.3159
 1017TIP3   OH227245   1.752   5.663  18.709  0.7360  0.1336 -0.2315
 1017TIP3    H127246   1.808   5.605  18.760  1.5792 -0.2172 -1.4994
 1017TIP3    H227247   1.674   5.675  18.762  1.6117 -0.1366  1.1574
 1018TIP3   OH227248   1.472   6.499  17.335  0.2862 -0.1641 -0.3527
 1018TIP3    H127249   1.430   6.467  17.255 -0.1879 -1.3214  0.3151
 1018TIP3    H227250   1.398   6.517  17.394  0.6512 -1.7957  0.6858
 1019TIP3   OH227251   3.293   4.181  19.293  0.3429  0.2360  0.2328
 1019TIP3    H127252   3.385   4.174  19.319  1.2286  0.6741 -2.4540
 1019TIP3    H227253   3.277   4.103  19.240 -0.7090  0.4066  0.2849
 1020TIP3   OH227254   4.857   5.319  20.199 -0.1995 -0.3565 -0.4054
 1020TIP3    H127255   4.836   5.413  20.208 -0.0869 -0.3426 -0.2895
 1020TIP3    H227256   4.783   5.284  20.149 -2.1724 -0.9264  2.6216
 1021TIP3   OH227257   6.242   1.086  18.047 -0.6329  0.8747 -0.2173
 1021TIP3    H127258   6.300   1.028  18.097 -0.0625  1.6480  0.0353
 1021TIP3    H227259   6.250   1.054  17.957 -1.2427 -0.1737  0.0746
 1022TIP3   OH227260   2.432   0.148  18.392  0.1260 -0.1891  0.4777
 1022TIP3    H127261   2.379   0.190  18.460  1.6117  1.0997  0.9044
 1022TIP3    H227262   2.497   0.215  18.368  0.5500 -1.1409 -1.1720
 1023TIP3   OH227263   5.936   1.574  18.738  0.3298  0.4448  0.1070
 1023TIP3    H127264   5.847   1.592  18.769  0.4936 -0.3457  1.0821
 1023TIP3    H227265   5.935   1.601  18.646 -0.0822  3.1832  0.8270
 1024TIP3   OH227266   4.324   6.556  16.675 -0.3491  0.1445 -0.0915
 1024TIP3    H127267   4.353   6.622  16.611  0.1371  0.6064  0.5936
 1024TIP3    H227268   4.380   6.571  16.751 -0.7895 -0.5360  0.3709
 1025TIP3   OH227269   6.462   6.676  16.747  0.6514  0.7196  0.2686
 1025TIP3    H127270   6.450   6.623  16.827  1.8223  1.2757  0.8366
 1025TIP3    H227271   6.546   6.721  16.760  0.7140  1.0685 -1.1470
 1026TIP3   OH227272   1.029   2.676  18.621 -0.1453 -0.0416 -0.7467
 1026TIP3    H127273   1.064   2.629  18.697  2.5458  0.8898 -1.3105
 1026TIP3    H227274   1.055   2.622  18.546  1.4975  1.3675 -1.2764
 1027TIP3   OH227275   1.908   0.268  18.109 -0.0414 -0.4185  0.0694
 1027TIP3    H127276   1.943   0.239  18.025  0.0204 -1.0519  0.3122
 1027TIP3    H227277   1.959   0.221  18.174 -1.8378 -1.9752  0.4279
 1028TIP3   OH227278   2.467   5.134  18.651 -0.1912 -0.3648 -0.1368
 1028TIP3    H127279   2.508   5.175  18.575 -1.3438  2.0196  0.4436
 1028TIP3    H227280   2.399   5.078  18.615  0.7562 -1.0320 -0.9259
 1029TIP3   OH227281   6.264   4.100  17.434  0.4681 -0.0721 -0.2999
 1029TIP3    H127282   6.267   4.092  17.530  3.0086 -1.1372 -0.3730
 1029TIP3    H227283   6.218   4.182  17.418  0.0439  0.1710  1.8254
 1030TIP3   OH227284   5.589   5.593  20.603 -0.1409 -0.0951 -0.2113
 1030TIP3    H127285   5.679   5.582  20.572  0.4819  0.2916  1.3486
 1030TIP3    H227286   5.574   5.519  20.661 -0.9022 -0.2475 -0.5835
 1031TIP3   OH227287   1.614   2.593  17.695 -0.7756  0.3138 -0.3490
 1031TIP3    H127288   1.582   2.649  17.766 -0.8925  1.3326 -1.1743
 1031TIP3    H227289   1.707   2.615  17.686 -0.1052 -1.6595  1.1432
 1032TIP3   OH227290   5.772   2.148  20.411 -0.0617 -0.1761  0.4445
 1032TIP3    H127291   5.706   2.200  20.365 -0.2229 -0.5786  0.2183
 1032TIP3    H227292   5.837   2.212  20.441  0.3050  0.0385 -0.7703
 1033TIP3   OH227293   4.322   0.323  20.279 -0.0107 -0.4618  0.1121
 1033TIP3    H127294   4.236   0.363  20.284  0.4193  0.7791 -1.6362
 1033TIP3    H227295   4.383   0.395  20.297  0.6926 -1.1376  0.4977
 1034TIP3   OH227296   0.491   3.768  18.120  0.4815 -0.2726 -0.1169
 1034TIP3    H127297   0.453   3.713  18.052  0.3448  0.3381 -0.5385
 1034TIP3    H227298   0.435   3.753  18.197 -1.1880  1.2646 -0.9652
 1035TIP3   OH227299   3.473   5.736  19.436 -0.2654  0.0080  0.1353
 1035TIP3    H127300   3.514   5.776  19.360 -2.7714  1.1518 -0.7324
 1035TIP3    H227301   3.537   5.673  19.468  1.3350  0.3252 -2.2114
 1036TIP3   OH227302   6.034   0.805  16.854  0.4840  0.0812  0.7202
 1036TIP3    H127303   6.003   0.717  16.878  0.8249 -0.4488 -0.6500
 1036TIP3    H227304   6.128   0.802  16.869  0.6375 -0.1182 -0.1984
 1037TIP3   OH227305   3.491   3.369  18.280  0.3264 -0.0972 -0.0100
 1037TIP3    H127306   3.471   3.355  18.373 -0.2735  0.3793 -0.0651
 1037TIP3    H227307   3.418   3.422  18.247  0.5712 -0.2025 -0.7396
 1038TIP3   OH227308   1.781   4.962  19.464 -0.2483 -0.5455 -0.3825
 1038TIP3    H127309   1.732   4.959  19.382  0.0063  0.8417 -0.6063
 1038TIP3    H227310   1.856   5.018  19.446  0.6411 -1.4582  0.3772
 1039TIP3   OH227311   6.213   6.557  17.661  0.2480  0.5994  0.1815
 1039TIP3    H127312   6.176   6.509  17.586 -1.6800 -0.5275  1.7502
 1039TIP3    H227313   6.272   6.621  17.622  0.8301 -1.2301 -2.1921
 1040TIP3   OH227314   3.950   4.171  20.287  0.1393  0.3401  0.1075
 1040TIP3    H127315   4.028   4.120  20.266  0.9141  1.1552  0.9674
 1040TIP3    H227316   3.902   4.117  20.350 -0.0280 -0.1718 -0.4432
 1041TIP3   OH227317   1.367   3.967  19.313  0.1763 -0.1050 -0.5896
 1041TIP3    H127318   1.453   3.971  19.271  0.4974  1.2722  0.1400
 1041TIP3    H227319   1.352   4.056  19.345 -2.0051 -0.0452 -1.6195
 1042TIP3   OH227320   1.111   5.738  18.316 -0.7498 -0.5790  0.1688
 1042TIP3    H127321   1.068   5.808  18.266  0.6889  0.1638 -0.1004
 1042TIP3    H227322   1.116   5.773  18.405  0.5356 -0.0270 -0.0951
 1043TIP3   OH227323   1.612   3.714  17.811 -0.0841 -0.3173 -0.5510
 1043TIP3    H127324   1.531   3.698  17.859  0.7457  0.4043  1.1849
 1043TIP3    H227325   1.667   3.638  17.829 -0.1497 -0.5330 -1.2379
 1044TIP3   OH227326   3.081   2.733  18.834  0.1594 -0.3514 -0.4419
 1044TIP3    H127327   3.132   2.813  18.830 -0.2454 -0.0923 -0.5514
 1044TIP3    H227328   2.990   2.763  18.834 -0.0401 -0.8371 -2.0169
 1045TIP3   OH227329   4.288   0.834  20.523 -0.3608  0.7362 -0.2353
 1045TIP3    H127330   4.205   0.800  20.490 -0.4870  0.3862  0.4435
 1045TIP3    H227331   4.329   0.760  20.566  0.0570  1.0544 -0.0817
 1046TIP3   OH227332   3.448   2.941  19.617  0.2025  0.0863 -0.7001
 1046TIP3    H127333   3.390   3.016  19.602  0.1592 -0.0380 -1.1625
 1046TIP3    H227334   3.513   2.973  19.680 -0.8162 -0.0031  0.4358
 1047TIP3   OH227335   6.686   3.229  17.905 -0.6143 -0.0877  0.4265
 1047TIP3    H127336   6.652   3.189  17.825 -1.7100 -0.7943  1.2101
 1047TIP3    H227337   6.695   3.156  17.966  3.1640 -0.1105  0.0741
 1048TIP3   OH227338   5.252   0.162  19.120 -0.4503  0.3241  0.1673
 1048TIP3    H127339   5.191   0.230  19.150 -0.4130  1.0522 -1.3261
 1048TIP3    H227340   5.200   0.081  19.122 -0.9512  0.6451  0.5405
 1049TIP3   OH227341   5.487   5.339  19.555 -0.3925  0.1525 -0.4589
 1049TIP3    H127342   5.556   5.405  19.559  2.6874 -2.8359  0.2307
 1049TIP3    H227343   5.464   5.323  19.646  3.0645 -3.4162  0.0946
 1050TIP3   OH227344   3.138   4.595  19.164 -0.5841  0.6737  0.9251
 1050TIP3    H127345   3.153   4.689  19.151  0.9820  0.4667  1.0030
 1050TIP3    H227346   3.199   4.553  19.104 -1.0295 -0.3024  1.1424
 1051TIP3   OH227347   0.406   5.273  18.365  0.3710  0.3906  0.1403
 1051TIP3    H127348   0.371   5.193  18.326 -0.6712  0.3332  1.1373
 1051TIP3    H227349   0.411   5.335  18.292  0.2200 -0.2665 -0.4453
 1052TIP3   OH227350   5.604   1.658  17.640  0.6584 -0.7459 -0.4430
 1052TIP3    H127351   5.651   1.655  17.556  2.2756  0.6741  0.3310
 1052TIP3    H227352   5.593   1.752  17.656  0.3190 -1.0091  0.9068
 1053TIP3   OH227353   4.071   3.240  17.585  0.1461  0.3687 -0.1486
 1053TIP3    H127354   4.090   3.325  17.546  1.8623 -0.4977 -1.3368
 1053TIP3    H227355   4.028   3.190  17.516  0.2974 -0.1357  0.1139
 1054TIP3   OH227356   1.016   2.154  18.677 -0.0400 -0.3199 -0.2047
 1054TIP3    H127357   0.974   2.235  18.646  1.1865  0.3238 -0.2697
 1054TIP3    H227358   1.080   2.134  18.608  0.4478 -0.7065  0.3594
 1055TIP3   OH227359   0.536   3.985  17.260  0.0106 -0.4512  0.4412
 1055TIP3    H127360   0.504   4.064  17.217  3.9049  1.2291  0.1543
 1055TIP3    H227361   0.461   3.951  17.309 -2.6273  1.6592 -1.8565
 1056TIP3   OH227362   4.579   0.999  19.077  0.5710  0.4480  0.1094
 1056TIP3    H127363   4.497   1.036  19.110  0.8585 -0.4168  1.9300
 1056TIP3    H227364   4.554   0.951  18.999 -0.4113  1.3681 -0.1621
 1057TIP3   OH227365   0.487   5.127  17.159  0.1902 -0.4443 -0.5458
 1057TIP3    H127366   0.494   5.051  17.217  1.0117 -0.4137 -0.5988
 1057TIP3    H227367   0.555   5.115  17.093 -1.4622 -1.0528 -2.2228
 1058TIP3   OH227368   1.116   2.477  18.455 -0.2466 -0.4463  0.3782
 1058TIP3    H127369   1.168   2.401  18.430 -0.7184 -0.9752  0.9528
 1058TIP3    H227370   1.059   2.493  18.379 -0.1372 -0.6563  0.2509
 1059TIP3   OH227371   5.116   3.057  20.480  0.7174 -0.5188  0.1732
 1059TIP3    H127372   5.100   3.099  20.564 -2.1243 -0.4716 -0.2958
 1059TIP3    H227373   5.070   2.973  20.485 -1.9998  0.6665 -2.2105
 1060TIP3   OH227374   4.260   3.406  18.147  0.0256 -0.4466  0.1745
 1060TIP3    H127375   4.221   3.474  18.202  1.0167  0.2834 -0.0033
 1060TIP3    H227376   4.220   3.325  18.178  1.9867 -0.3653  3.3974
 1061TIP3   OH227377   0.701   0.514  17.139  0.0806 -0.1274  0.1695
 1061TIP3    H127378   0.609   0.537  17.153 -0.0518 -0.1730 -0.6052
 1061TIP3    H227379   0.723   0.552  17.054  1.5021  2.0573  1.4164
 1062TIP3   OH227380   0.357   3.907  20.090 -0.0202 -0.3509  0.5045
 1062TIP3    H127381   0.422   3.902  20.160 -1.3341 -0.6753  1.7471
 1062TIP3    H227382   0.373   3.992  20.049  1.5963 -0.7014  0.3426
 1063TIP3   OH227383   5.856   2.907  20.383  0.1898 -0.1238  0.0496
 1063TIP3    H127384   5.854   2.812  20.374 -1.4869 -0.3678  2.2186
 1063TIP3    H227385   5.766   2.934  20.366  0.9766  1.3168 -2.1810
 1064TIP3   OH227386   5.497   0.503  18.841 -0.0081  0.1008 -0.0142
 1064TIP3    H127387   5.432   0.436  18.864 -1.2245  1.6545  1.3359
 1064TIP3    H227388   5.462   0.544  18.762  1.3580 -1.5734 -1.5744
 1065TIP3   OH227389   5.906   4.591  19.301  0.1725 -0.1034  1.0376
 1065TIP3    H127390   5.936   4.680  19.321 -0.2682  0.7707 -1.7474
 1065TIP3    H227391   5.856   4.565  19.378  0.5809  1.9296  2.0645
 1066TIP3   OH227392   5.800   0.530  19.884 -0.5665 -0.1946  0.3886
 1066TIP3    H127393   5.714   0.505  19.920  0.3824 -1.6615  1.8032
 1066TIP3    H227394   5.844   0.446  19.868  0.2999  0.5165 -1.1370
 1067TIP3   OH227395   1.298   4.439  17.253 -0.3388 -0.7022  0.4415
 1067TIP3    H127396   1.366   4.399  17.199  0.4088  1.5296 -0.3657
 1067TIP3    H227397   1.216   4.419  17.208 -0.2804 -3.1026  1.2290
 1068TIP3   OH227398   3.515   5.043  19.442  0.3699  0.7309 -0.4183
 1068TIP3    H127399   3.491   5.136  19.442  0.6742  0.8184  0.2989
 1068TIP3    H227400   3.487   5.011  19.357 -2.0459  0.8744  0.2677
 1069TIP3   OH227401   2.671   5.464  19.637 -0.2224  0.1375  0.5757
 1069TIP3    H127402   2.736   5.418  19.691 -0.7246  1.0539  2.0233
 1069TIP3    H227403   2.593   5.469  19.693 -1.0821  0.3114 -0.6001
 1070TIP3   OH227404   0.658   1.521  19.312 -0.2928 -0.1338  0.1265
 1070TIP3    H127405   0.748   1.492  19.329 -0.2296  0.3614  0.6570
 1070TIP3    H227406   0.604   1.445  19.335  0.1252 -1.4358 -2.8101
 1071TIP3   OH227407   0.851   4.821  16.923  0.8842 -0.3220 -0.6270
 1071TIP3    H127408   0.921   4.853  16.866  0.5260 -0.7783 -1.3453
 1071TIP3    H227409   0.838   4.730  16.896 -0.6434  0.0295 -1.1841
 1072TIP3   OH227410   4.229   2.038  18.738 -0.6125 -0.9702 -0.1121
 1072TIP3    H127411   4.296   1.983  18.698 -0.1699 -1.3883  1.1436
 1072TIP3    H227412   4.167   2.057  18.667  0.2306 -1.5183 -1.0144
 1073TIP3   OH227413   0.976   1.916  19.025 -0.0510 -0.1483 -0.1887
 1073TIP3    H127414   0.902   1.874  19.068 -0.0159  0.0568  0.0762
 1073TIP3    H227415   0.956   1.910  18.932  0.3750 -1.5273 -0.2111
 1074TIP3   OH227416   6.067   5.338  17.260 -0.3964 -0.1484 -0.2621
 1074TIP3    H127417   6.094   5.362  17.172 -0.5298 -0.3203 -0.3524
 1074TIP3    H227418   6.008   5.409  17.288  1.7599  1.3316  0.7623
 1075TIP3   OH227419   2.831   1.117  20.220 -1.1367  0.0937  0.1359
 1075TIP3    H127420   2.760   1.084  20.275 -0.4517 -1.6650  0.0171
 1075TIP3    H227421   2.905   1.130  20.280 -0.4280 -1.7071 -0.2833
 1076TIP3   OH227422   5.405   6.505  18.178 -0.2046  0.2757 -0.4318
 1076TIP3    H127423   5.488   6.459  18.171  0.2556  0.9927  0.1785
 1076TIP3    H227424   5.342   6.448  18.134  0.5424 -0.4319 -0.5999
 1077TIP3   OH227425   6.252   0.374  18.860  0.1527 -0.2898 -0.5148
 1077TIP3    H127426   6.247   0.455  18.810  1.1179  0.3048  0.2989
 1077TIP3    H227427   6.166   0.364  18.900  0.0867  0.4589 -0.4540
 1078TIP3   OH227428   0.251   3.019  20.238  0.5014  0.1924 -0.2907
 1078TIP3    H127429   0.245   3.082  20.167  0.3415 -0.3290 -0.7416
 1078TIP3    H227430   0.164   2.979  20.243  0.4348  0.3934  0.3581
 1079TIP3   OH227431   5.805   4.381  16.792  0.3525  0.9879 -0.0510
 1079TIP3    H127432   5.805   4.470  16.827 -0.4193  0.7855  0.4905
 1079TIP3    H227433   5.806   4.392  16.697  1.4550  1.5569  0.0052
 1080TIP3   OH227434   0.795   1.362  17.714 -0.2820  0.2458  0.2825
 1080TIP3    H127435   0.719   1.414  17.691 -2.5947 -2.8597  0.3049
 1080TIP3    H227436   0.864   1.391  17.654 -2.0001  1.9247 -0.9752
 1081TIP3   OH227437   0.914   5.783  16.901 -0.6200  0.0402  0.0926
 1081TIP3    H127438   0.865   5.787  16.819  1.2356  0.3400 -1.0687
 1081TIP3    H227439   0.862   5.834  16.963 -1.5047  0.7770 -1.2179
 1082TIP3   OH227440   1.509   1.138  17.291  0.4899  0.4624 -0.4080
 1082TIP3    H127441   1.488   1.053  17.330 -0.2029  0.2619 -1.2024
 1082TIP3    H227442   1.462   1.139  17.208  0.3910  1.6719 -0.3558
 1083TIP3   OH227443   5.496   5.388  20.745  0.7484  0.0625 -0.2924
 1083TIP3    H127444   5.526   5.315  20.799  1.0718 -1.5565 -2.4849
 1083TIP3    H227445   5.406   5.365  20.723  0.6634  0.6203 -0.5276
 1084TIP3   OH227446   3.145   6.533  19.381  0.4411 -0.2700  0.1609
 1084TIP3    H127447   3.194   6.452  19.366  1.0694 -0.2337  1.7652
 1084TIP3    H227448   3.095   6.515  19.461  1.5019  1.2954  1.2286
 1085TIP3   OH227449   2.288   3.755  17.328  0.1769  0.2188  0.2921
 1085TIP3    H127450   2.380   3.783  17.332 -0.3183  1.8990  0.6709
 1085TIP3    H227451   2.290   3.664  17.358  1.8337 -0.1104 -0.6494
 1086TIP3   OH227452   0.130   4.857  17.882 -0.2958  0.3509  0.0837
 1086TIP3    H127453   0.052   4.846  17.828 -0.9334 -0.3156  1.1155
 1086TIP3    H227454   0.114   4.804  17.960  1.3694 -0.1414  0.1345
 1087TIP3   OH227455   3.472   4.238  17.957 -0.1354  0.4771  0.2844
 1087TIP3    H127456   3.426   4.204  18.033 -0.0692 -2.2028 -0.7762
 1087TIP3    H227457   3.454   4.332  17.958 -0.2775  0.5084  3.4442
 1088TIP3   OH227458   3.187   5.121  18.842 -0.2797  0.5157  0.4588
 1088TIP3    H127459   3.277   5.151  18.855 -0.1470  0.2012  0.2817
 1088TIP3    H227460   3.166   5.145  18.752  0.4738 -1.5190 -0.3255
 1089TIP3   OH227461   1.631   1.557  20.517  0.2122 -0.3417  0.1867
 1089TIP3    H127462   1.546   1.593  20.491 -0.6141 -1.1724  1.5776
 1089TIP3    H227463   1.622   1.541  20.611  1.4116 -1.7666  0.0937
 1090TIP3   OH227464   6.455   3.176  19.648 -0.5293 -0.0398  0.5794
 1090TIP3    H127465   6.457   3.244  19.714 -0.7545  0.5256  0.0117
 1090TIP3    H227466   6.507   3.104  19.685 -0.8798  0.1640  1.4674
 1091TIP3   OH227467   1.769   1.456  18.534  0.3619 -0.1215 -1.0016
 1091TIP3    H127468   1.778   1.491  18.445 -0.2007 -1.2426 -1.5210
 1091TIP3    H227469   1.675   1.440  18.544  0.3242  0.6834  0.0817
 1092TIP3   OH227470   6.175   1.565  18.392  0.5884  0.6012 -0.0603
 1092TIP3    H127471   6.085   1.563  18.426  0.2209 -0.7007 -1.0110
 1092TIP3    H227472   6.184   1.652  18.354 -1.4597 -0.2445 -2.8465
 1093TIP3   OH227473   5.573   3.355  19.871 -0.8667 -0.6828  0.0025
 1093TIP3    H127474   5.515   3.286  19.839 -0.5349 -0.4292 -1.1962
 1093TIP3    H227475   5.545   3.434  19.825 -0.1468 -0.3687  0.0869
 1094TIP3   OH227476   6.168   3.947  20.384  0.0188 -0.1129 -0.3205
 1094TIP3    H127477   6.160   3.855  20.361  2.6181 -0.8073  1.2121
 1094TIP3    H227478   6.169   3.992  20.299 -0.6387 -1.5227 -1.1146
 1095TIP3   OH227479   4.938   6.047  17.037  0.0598 -0.1715 -0.0315
 1095TIP3    H127480   4.869   5.997  17.082  0.4378 -0.8290 -0.1620
 1095TIP3    H227481   5.012   5.986  17.033 -0.2322 -0.4421 -2.3139
 1096TIP3   OH227482   1.429   3.397  18.395  0.1314 -0.3278  0.2014
 1096TIP3    H127483   1.477   3.453  18.333 -1.3503 -1.7331 -2.4233
 1096TIP3    H227484   1.448   3.434  18.481  0.8616  2.9081 -1.2017
 1097TIP3   OH227485   2.284   3.903  19.365 -0.3459 -0.2785 -0.4394
 1097TIP3    H127486   2.300   3.811  19.387 -0.4593 -0.3170 -0.5232
 1097TIP3    H227487   2.212   3.929  19.423  1.0278  0.3383  1.0946
 1098TIP3   OH227488   5.129   4.306  19.895  0.2762  0.7506  0.0858
 1098TIP3    H127489   5.144   4.346  19.981  0.4264 -0.4887  0.6627
 1098TIP3    H227490   5.081   4.372  19.846  0.5970  1.6654  0.9630
 1099TIP3   OH227491   0.079   2.633  19.064 -0.0341  0.2488  0.9775
 1099TIP3    H127492   0.077   2.618  19.158  2.8617  2.0883  1.4822
 1099TIP3    H227493  -0.010   2.663  19.042 -0.8917 -0.6673  2.9771
 1100TIP3   OH227494   1.765   0.964  20.210 -0.6422  0.2545  0.0828
 1100TIP3    H127495   1.764   0.933  20.300  0.5680  0.2150  0.0964
 1100TIP3    H227496   1.805   1.051  20.214 -0.5474  0.2395 -0.4188
 1101TIP3   OH227497   0.021   0.693  17.137  0.3136  0.0918  0.1732
 1101TIP3    H127498   0.065   0.746  17.203 -1.1948  2.0355 -0.3060
 1101TIP3    H227499   0.055   0.724  17.054 -2.0223  1.8641 -0.2327
 1102TIP3   OH227500   2.209   0.339  18.092 -0.3520 -0.1191  0.1446
 1102TIP3    H127501   2.119   0.364  18.072 -1.0321 -1.5292  1.2577
 1102TIP3    H227502   2.240   0.296  18.013 -0.6906  0.2897 -0.2150
 1103TIP3   OH227503   3.374   3.336  20.071 -0.7946 -0.2146  0.8214
 1103TIP3    H127504   3.427   3.416  20.074 -0.7551 -0.2322  0.6002
 1103TIP3    H227505   3.403   3.292  19.992 -3.2354  1.2181 -1.0231
 1104TIP3   OH227506   1.701   2.394  18.067 -0.1487 -0.6290  0.6366
 1104TIP3    H127507   1.652   2.345  18.001  2.4602 -0.5258 -1.5149
 1104TIP3    H227508   1.699   2.338  18.145 -0.2523 -2.4800 -0.6463
 1105TIP3   OH227509   5.199   6.008  18.020 -0.4574  0.0967 -0.0982
 1105TIP3    H127510   5.208   6.088  17.968  1.9285  0.4016  0.6420
 1105TIP3    H227511   5.224   5.938  17.960 -1.6007 -0.0129 -0.4660
 1106TIP3   OH227512   4.341   1.476  20.105 -0.2522  0.1041 -0.0922
 1106TIP3    H127513   4.351   1.530  20.183 -2.1867 -0.4853  0.6340
 1106TIP3    H227514   4.360   1.387  20.134  1.8845  0.1971 -1.0346
 1107TIP3   OH227515   2.524   5.056  20.274 -0.1396  0.4380 -0.1242
 1107TIP3    H127516   2.430   5.043  20.263 -0.0499 -0.1241 -0.2788
 1107TIP3    H227517   2.561   5.041  20.187  0.1566 -0.0072  0.0707
 1108TIP3   OH227518   4.070   6.599  17.214 -0.2021  0.1835  0.6289
 1108TIP3    H127519   4.024   6.518  17.238 -1.0067  0.0547 -1.1983
 1108TIP3    H227520   4.134   6.572  17.149  1.8440  0.5456  2.3852
 1109TIP3   OH227521   3.564   0.592  17.769  0.6563 -0.3392 -0.2448
 1109TIP3    H127522   3.515   0.581  17.850 -0.9651  0.3220 -1.0894
 1109TIP3    H227523   3.585   0.685  17.766 -1.6160  0.2269 -1.7624
 1110TIP3   OH227524   4.935   2.520  18.251 -0.1494  0.0217 -0.0881
 1110TIP3    H127525   5.007   2.527  18.189  0.8548  2.3305  1.2093
 1110TIP3    H227526   4.946   2.434  18.291  0.3875 -0.6507 -1.5998
 1111TIP3   OH227527   6.154   4.113  18.632 -0.3270 -0.4443 -0.1181
 1111TIP3    H127528   6.110   4.036  18.596  0.8267 -1.0734 -0.2264
 1111TIP3    H227529   6.130   4.113  18.725 -0.9495 -0.4841 -0.2727
 1112TIP3   OH227530   1.122   0.216  18.455 -0.5299 -0.4625 -0.3748
 1112TIP3    H127531   1.212   0.183  18.454 -1.0462 -2.0654  0.8834
 1112TIP3    H227532   1.095   0.214  18.363  0.7901  0.3323 -0.8094
 1113TIP3   OH227533   4.084   4.689  17.898  0.0190  0.3474 -0.8831
 1113TIP3    H127534   4.139   4.611  17.903 -2.4250 -1.4337  0.3842
 1113TIP3    H227535   4.046   4.686  17.810 -0.0829  0.0800 -0.8310
 1114TIP3   OH227536   3.140   0.954  19.533  0.0915  0.3161 -0.5993
 1114TIP3    H127537   3.145   0.861  19.511 -1.3494 -0.1757  0.9338
 1114TIP3    H227538   3.103   0.956  19.621 -2.3473  2.4043 -1.5509
 1115TIP3   OH227539   0.811   4.550  17.524  0.1880  0.1319  0.6172
 1115TIP3    H127540   0.875   4.532  17.593  1.2013 -2.1762 -0.8062
 1115TIP3    H227541   0.844   4.503  17.448 -2.8743 -0.6270 -0.3727
 1116TIP3   OH227542   1.533   1.070  18.910  0.2279 -0.5132  0.4980
 1116TIP3    H127543   1.512   1.027  18.827  1.8572  0.2167 -0.3159
 1116TIP3    H227544   1.458   1.050  18.966 -0.1299 -2.4470 -0.5850
 1117TIP3   OH227545   6.117   0.785  20.028  0.4508  0.1532 -0.1420
 1117TIP3    H127546   6.175   0.727  20.078  0.8139 -0.7231 -1.5196
 1117TIP3    H227547   6.031   0.744  20.032  0.4138  0.2479  0.0225
 1118TIP3   OH227548   6.207   4.239  19.767 -0.3598 -0.1845  0.0568
 1118TIP3    H127549   6.251   4.293  19.702  0.3205 -1.7863 -0.8806
 1118TIP3    H227550   6.115   4.237  19.738 -0.4748  0.7869  0.3391
 1119TIP3   OH227551   5.550   3.543  18.086  0.0798  0.3805  0.5488
 1119TIP3    H127552   5.475   3.492  18.055  0.8558  0.5035 -1.7225
 1119TIP3    H227553   5.512   3.620  18.127 -1.0517 -0.6153  1.4165
 1120TIP3   OH227554   0.740   6.033  17.677 -0.5364 -0.0464 -0.5939
 1120TIP3    H127555   0.798   6.108  17.690 -0.2992 -0.3974  0.5304
 1120TIP3    H227556   0.656   6.072  17.652 -0.7602  0.7027  1.1655
 1121TIP3   OH227557   4.729   6.512  20.293 -0.4214 -0.0429  0.7650
 1121TIP3    H127558   4.756   6.425  20.323 -0.2078 -0.9643 -1.8425
 1121TIP3    H227559   4.661   6.495  20.228 -1.3315  1.8420  1.1515
 1122TIP3   OH227560   6.442   4.059  18.523 -0.5015  0.1859  0.2144
 1122TIP3    H127561   6.499   4.136  18.522 -0.4447  0.1748  1.4485
 1122TIP3    H227562   6.384   4.073  18.597  1.1247 -2.0647  2.0697
 1123TIP3   OH227563   1.708   3.880  19.596  0.1093  0.0516  0.1375
 1123TIP3    H127564   1.731   3.972  19.584  2.3908 -0.2995  1.2259
 1123TIP3    H227565   1.613   3.877  19.584  0.0407  2.4516 -0.3805
 1124TIP3   OH227566   2.556   6.218  18.955 -0.0455  0.1651 -0.4010
 1124TIP3    H127567   2.637   6.251  18.915 -1.0526  0.6008 -2.1770
 1124TIP3    H227568   2.564   6.241  19.047  1.5730  0.7629 -0.6556
 1125TIP3   OH227569   3.775   6.691  18.232  0.0738  0.0972  0.2821
 1125TIP3    H127570   3.736   6.643  18.159  1.1393  0.5107 -0.5964
 1125TIP3    H227571   3.860   6.650  18.245  0.1270  0.3965  0.9168
 1126TIP3   OH227572   5.769   0.325  19.568 -0.0307  0.2679  0.1645
 1126TIP3    H127573   5.740   0.268  19.498 -0.7922 -1.3627  1.7374
 1126TIP3    H227574   5.763   0.413  19.531  0.6381 -0.5713 -2.1392
 1127TIP3   OH227575   6.571   5.329  19.709 -0.0315  0.0417  0.1442
 1127TIP3    H127576   6.560   5.258  19.646 -1.2265  0.9838 -0.7473
 1127TIP3    H227577   6.564   5.409  19.657 -1.0763  0.8477  1.4540
 1128TIP3   OH227578   6.675   2.965  20.329  0.2208 -0.1218  0.4124
 1128TIP3    H127579   6.605   3.024  20.359  1.3720  0.4770  2.0895
 1128TIP3    H227580   6.720   2.938  20.409  0.6062 -2.2144 -0.4401
 1129TIP3   OH227581   2.156   2.415  18.084  0.3618  0.0029 -0.1899
 1129TIP3    H127582   2.129   2.471  18.156  0.0696  1.0513 -1.0776
 1129TIP3    H227583   2.242   2.381  18.110  0.2321  0.3163  0.6663
 1130TIP3   OH227584   4.348   0.865  18.525  0.2562 -0.9028  0.4398
 1130TIP3    H127585   4.405   0.789  18.513 -0.4186 -1.3330 -0.0514
 1130TIP3    H227586   4.275   0.851  18.465 -0.7526 -0.7281  1.5850
 1131TIP3   OH227587   0.165   5.544  18.060  0.6064  0.6325 -0.1311
 1131TIP3    H127588   0.088   5.598  18.045 -0.0851  0.2360  1.7158
 1131TIP3    H227589   0.143   5.459  18.020 -0.5375  0.0780  1.5864
 1132TIP3   OH227590   5.989   2.485  19.509  0.4031 -0.3830  0.0081
 1132TIP3    H127591   5.929   2.435  19.454 -0.4417  0.0663  0.5037
 1132TIP3    H227592   5.950   2.572  19.513  0.2012 -0.5170  1.6598
 1133TIP3   OH227593   2.649   6.518  17.641  0.0197  0.1377 -0.8967
 1133TIP3    H127594   2.568   6.505  17.690  1.0881  0.7691  1.1631
 1133TIP3    H227595   2.652   6.612  17.623  0.4585  0.1696 -0.6667
 1134TIP3   OH227596   1.447   6.623  19.279  0.6191 -0.4410  0.0751
 1134TIP3    H127597   1.477   6.712  19.261  0.9640 -0.9088 -1.8884
 1134TIP3    H227598   1.374   6.609  19.219  1.1442 -1.7781 -0.2983
 1135TIP3   OH227599   6.607   1.421  17.313  0.0739 -0.3802  0.2023
 1135TIP3    H127600   6.527   1.465  17.286  0.6825  0.8073  0.2727
 1135TIP3    H227601   6.623   1.356  17.244 -0.3909  0.0760 -0.3434
 1136TIP3   OH227602   0.663   2.197  19.693 -0.6898 -0.3193 -0.1084
 1136TIP3    H127603   0.723   2.130  19.658 -0.9937  0.2908 -1.8885
 1136TIP3    H227604   0.692   2.210  19.784  0.0099 -2.1237 -0.0377
 1137TIP3   OH227605   3.345   4.207  20.195 -0.3203  0.0376 -0.7596
 1137TIP3    H127606   3.341   4.254  20.278  0.0035 -0.5042 -0.4319
 1137TIP3    H227607   3.299   4.125  20.213  2.2419 -1.3695 -0.2448
 1138TIP3   OH227608   5.967   4.191  19.664 -0.0745  0.4991  0.7204
 1138TIP3    H127609   5.961   4.111  19.716  0.8328 -0.4564 -0.5535
 1138TIP3    H227610   5.882   4.199  19.622 -0.0540 -0.0518  0.5537
 1139TIP3   OH227611   4.318   4.356  17.767 -0.3649  0.5233 -0.4536
 1139TIP3    H127612   4.349   4.293  17.702  0.3768 -0.3276  0.6835
 1139TIP3    H227613   4.281   4.428  17.716  1.5463  0.5722 -1.8390
 1140TIP3   OH227614   4.268   3.118  18.946  0.0613 -0.4676  0.3211
 1140TIP3    H127615   4.260   3.049  18.880 -0.4520  0.5647 -0.7384
 1140TIP3    H227616   4.292   3.196  18.896 -1.1383  0.5299  1.2443
 1141TIP3   OH227617   1.919   3.263  19.459 -0.4310 -0.0895 -0.2355
 1141TIP3    H127618   1.846   3.274  19.520 -1.2635 -0.4777 -1.1337
 1141TIP3    H227619   1.996   3.254  19.515 -1.3165 -1.5809  0.8099
 1142TIP3   OH227620   1.584   4.583  19.582 -0.2926 -0.2414  0.5803
 1142TIP3    H127621   1.539   4.593  19.665 -0.7395 -1.7545  0.5377
 1142TIP3    H227622   1.521   4.541  19.524  0.3932 -0.2554 -0.1858
 1143TIP3   OH227623   3.828   5.225  19.803 -0.8303  0.4232 -0.1387
 1143TIP3    H127624   3.801   5.299  19.749  0.9296  1.8657  0.8358
 1143TIP3    H227625   3.830   5.259  19.892  0.2837 -0.6970  0.3054
 1144TIP3   OH227626   1.009   0.382  17.757 -0.5181 -0.3019  0.7770
 1144TIP3    H127627   0.955   0.434  17.816 -1.8074  0.0922 -0.7093
 1144TIP3    H227628   1.092   0.430  17.751 -1.5604  1.4408 -0.2895
 1145TIP3   OH227629   6.286   2.512  17.660  0.1204  0.0734  0.2662
 1145TIP3    H127630   6.297   2.488  17.752  0.9067  0.6243  0.3297
 1145TIP3    H227631   6.318   2.602  17.655 -3.2493  1.4248  0.1530
 1146TIP3   OH227632   4.207   6.068  19.588 -0.2711  0.1591 -0.9401
 1146TIP3    H127633   4.269   6.099  19.654  0.2200 -2.0021 -0.3001
 1146TIP3    H227634   4.125   6.114  19.608 -0.0372 -0.1926  0.9771
 1147TIP3   OH227635   3.628   2.998  18.747 -0.3003 -0.1275 -0.3172
 1147TIP3    H127636   3.717   2.994  18.712  0.1100  1.1289  0.4988
 1147TIP3    H227637   3.576   3.035  18.676  0.3967  1.7803  0.1019
 1148TIP3   OH227638   2.034   4.574  17.672 -0.5155  0.0174 -1.1572
 1148TIP3    H127639   2.036   4.497  17.729 -1.7977  0.8192  0.0223
 1148TIP3    H227640   2.118   4.571  17.626  0.9502 -0.2569  1.3370
 1149TIP3   OH227641   3.864   0.655  19.714 -0.6392  0.5945 -0.5906
 1149TIP3    H127642   3.810   0.724  19.752 -1.2511  0.6530 -1.5458
 1149TIP3    H227643   3.907   0.614  19.790 -1.6339  0.8644  0.1433
 1150TIP3   OH227644   5.321   3.532  19.117 -0.1450 -0.3388  0.1181
 1150TIP3    H127645   5.391   3.544  19.181 -1.4907  0.9662  1.4435
 1150TIP3    H227646   5.302   3.438  19.119 -0.2427 -0.3062  1.7482
 1151TIP3   OH227647   4.012   6.215  16.607 -0.0993  0.2252  0.0303
 1151TIP3    H127648   3.939   6.157  16.628  0.7231 -1.5269 -1.5801
 1151TIP3    H227649   4.018   6.275  16.681 -1.0859 -1.6765  1.7531
 1152TIP3   OH227650   1.326   4.346  19.859  0.0126 -0.2559  0.4524
 1152TIP3    H127651   1.345   4.255  19.836  1.8282  0.1821  0.0614
 1152TIP3    H227652   1.411   4.383  19.884 -0.8661  1.0509  1.6556
 1153TIP3   OH227653   2.353   4.846  19.742  0.3065 -0.7708  0.0239
 1153TIP3    H127654   2.423   4.801  19.788  0.2843  1.5307  2.5869
 1153TIP3    H227655   2.389   4.933  19.722 -1.1587 -0.2138 -0.3467
 1154TIP3   OH227656   2.310   5.663  19.276  0.0916 -0.1984  0.4544
 1154TIP3    H127657   2.250   5.596  19.310 -1.8743  0.4935 -1.4387
 1154TIP3    H227658   2.275   5.746  19.309  1.6658  0.0551  1.5905
 1155TIP3   OH227659   4.352   5.710  19.336 -0.8917 -0.1940  0.0921
 1155TIP3    H127660   4.424   5.772  19.343 -1.8713  0.9329  0.3738
 1155TIP3    H227661   4.274   5.760  19.360 -1.6150 -1.7263  1.0962
 1156TIP3   OH227662   1.880   5.611  19.201  0.4215 -0.4668 -0.3331
 1156TIP3    H127663   1.843   5.670  19.136  1.2770  1.1611  0.5949
 1156TIP3    H227664   1.810   5.597  19.264  0.6962  0.9532  0.3311
 1157TIP3   OH227665   4.782   4.737  17.902 -0.2991 -0.0591  0.2675
 1157TIP3    H127666   4.759   4.665  17.961 -0.8309 -0.8190 -0.8289
 1157TIP3    H227667   4.863   4.708  17.860 -0.4970 -0.0083 -0.1524
 1158TIP3   OH227668   2.288   3.553  19.775  0.2267  0.7770 -0.1441
 1158TIP3    H127669   2.334   3.471  19.791 -1.0394  0.5461  2.9294
 1158TIP3    H227670   2.348   3.621  19.806  0.2181  0.8225 -0.2259
 1159TIP3   OH227671   4.446   4.235  18.063 -0.0300  0.2247  0.1743
 1159TIP3    H127672   4.522   4.219  18.007 -0.3297  1.0095 -0.4789
 1159TIP3    H227673   4.481   4.239  18.152  0.7264  0.8029 -0.1446
 1160TIP3   OH227674   2.096   0.897  18.601 -0.0339 -0.4327 -0.0152
 1160TIP3    H127675   2.130   0.898  18.690 -0.3542  1.7585  0.1307
 1160TIP3    H227676   2.172   0.915  18.546 -0.1810  0.1749 -0.0233
 1161TIP3   OH227677   4.591   3.777  17.303  0.2954  0.0497 -0.3436
 1161TIP3    H127678   4.586   3.796  17.397 -0.2606 -0.2162 -0.3103
 1161TIP3    H227679   4.684   3.775  17.283  0.4274  2.5171 -0.2959
 1162TIP3   OH227680   4.436   3.723  18.047  1.0295  0.1086  0.2371
 1162TIP3    H127681   4.366   3.659  18.063 -0.4796  1.1772 -1.6078
 1162TIP3    H227682   4.495   3.713  18.122 -0.2128 -1.9921  1.0472
 1163TIP3   OH227683   0.142   3.312  17.104 -0.3353 -0.5865 -0.4365
 1163TIP3    H127684   0.083   3.326  17.030 -0.6714 -0.1579 -0.0950
 1163TIP3    H227685   0.110   3.233  17.146 -0.7683 -0.2654 -0.1588
 1164TIP3   OH227686   6.297   4.639  20.640  0.4030 -0.5050 -0.0578
 1164TIP3    H127687   6.243   4.656  20.563  1.4244  1.2784 -0.4217
 1164TIP3    H227688   6.256   4.562  20.681 -1.9538  0.2987 -0.7271
 1165TIP3   OH227689   4.800   0.054  17.140  0.2329  0.1293 -0.1943
 1165TIP3    H127690   4.747   0.021  17.212 -0.7438  1.5678 -0.1926
 1165TIP3    H227691   4.754   0.026  17.061  1.0053 -0.9798 -0.2700
 1166TIP3   OH227692   6.373   2.902  19.181  0.5169 -0.3452  0.1613
 1166TIP3    H127693   6.361   2.902  19.276  1.0193 -0.0690  0.2278
 1166TIP3    H227694   6.287   2.924  19.146  0.9485  2.4616  0.6494
 1167TIP3   OH227695   2.579   4.833  20.021  0.1354 -0.6453 -0.4813
 1167TIP3    H127696   2.590   4.752  19.970 -2.5232 -0.6811 -1.1256
 1167TIP3    H227697   2.500   4.818  20.073 -1.7380  2.2343 -2.1875
 1168TIP3   OH227698   6.278   5.895  17.765 -0.1484 -0.0492 -0.1922
 1168TIP3    H127699   6.275   5.923  17.857 -1.5827 -1.6793  0.3167
 1168TIP3    H227700   6.371   5.889  17.745  0.1958  0.1671  1.2130
 1169TIP3   OH227701   6.475   1.997  19.670  0.0293  0.2535 -0.0160
 1169TIP3    H127702   6.510   2.086  19.676  0.5508  0.0688 -0.2244
 1169TIP3    H227703   6.540   1.949  19.617 -0.2121 -0.2628  0.1443
 1170TIP3   OH227704   6.500   6.035  19.017 -0.0354  0.0408 -0.3389
 1170TIP3    H127705   6.431   5.986  19.061 -0.1836 -0.0013 -0.6152
 1170TIP3    H227706   6.531   5.975  18.948 -0.3077  0.3848 -0.7629
 1171TIP3   OH227707   3.770   3.200  19.066  0.2380 -0.0778 -0.4816
 1171TIP3    H127708   3.793   3.190  18.974  1.3996  0.4720 -0.2711
 1171TIP3    H227709   3.784   3.113  19.104 -0.3967 -0.3444 -0.8485
 1172TIP3   OH227710   3.722   1.169  18.946 -0.0897  0.1184 -0.2588
 1172TIP3    H127711   3.755   1.218  19.021 -0.3907  0.1079 -0.1170
 1172TIP3    H227712   3.800   1.143  18.897  0.0567  1.0050 -0.5077
 1173TIP3   OH227713   3.820   3.546  19.393  0.0858  0.1513 -0.1651
 1173TIP3    H127714   3.795   3.548  19.301 -2.9028  1.1947  0.5528
 1173TIP3    H227715   3.794   3.459  19.424 -1.2225  0.6642  0.2187
 1174TIP3   OH227716   1.032   4.715  18.111  0.0317 -0.3021 -0.2197
 1174TIP3    H127717   1.115   4.728  18.065 -1.2121  0.0446 -2.5554
 1174TIP3    H227718   1.021   4.794  18.165  1.5122 -0.6769  0.6594
 1175TIP3   OH227719   0.162   4.743  19.695  0.0746 -0.2895 -0.2785
 1175TIP3    H127720   0.126   4.786  19.772  1.2961 -2.0564  1.3579
 1175TIP3    H227721   0.115   4.660  19.690  1.0800 -0.8571 -0.5183
 1176TIP3   OH227722   1.720   3.547  18.330 -0.3181  0.8430  0.2142
 1176TIP3    H127723   1.653   3.594  18.280 -0.5446 -0.2253 -0.5315
 1176TIP3    H227724   1.717   3.458  18.295 -1.7590 -0.4947  3.3965
 1177TIP3   OH227725   1.429   1.338  19.182 -0.0316  0.4015 -0.2769
 1177TIP3    H127726   1.496   1.271  19.196 -0.0883  0.0716 -1.4742
 1177TIP3    H227727   1.390   1.315  19.098 -1.2137  0.9691  0.0951
 1178TIP3   OH227728   3.942   0.312  19.386 -0.0527  0.4427 -0.4605
 1178TIP3    H127729   3.909   0.349  19.304  1.8198  1.5207 -0.7994
 1178TIP3    H227730   3.986   0.231  19.359 -1.4694 -0.4534 -0.1553
 1179TIP3   OH227731   3.075   2.121  19.522 -0.2037  0.1703  0.0604
 1179TIP3    H127732   3.151   2.165  19.558 -0.8765  0.0943  1.6603
 1179TIP3    H227733   3.004   2.184  19.532 -0.1694  0.7365 -2.5526
 1180TIP3   OH227734   2.884   0.502  19.478  0.3209 -0.7101 -0.6382
 1180TIP3    H127735   2.922   0.415  19.464 -0.3779 -1.3106  0.9286
 1180TIP3    H227736   2.826   0.491  19.554 -0.6693  0.8599 -1.1073
 1181TIP3   OH227737   0.028   4.953  17.330 -0.0081  0.5112 -0.3553
 1181TIP3    H127738  -0.016   4.871  17.304 -1.2872  1.4679 -1.3661
 1181TIP3    H227739   0.107   4.924  17.375 -1.9654 -1.3357  2.2423
 1182TIP3   OH227740   1.941   4.953  18.159 -0.3742  0.1794  0.2664
 1182TIP3    H127741   1.871   4.921  18.216  1.6042 -1.1458  2.1202
 1182TIP3    H227742   2.008   4.984  18.220  1.0932  0.4436 -1.4022
 1183TIP3   OH227743   5.857   4.295  17.915  1.0423 -0.3622 -0.1008
 1183TIP3    H127744   5.927   4.231  17.903  2.7170  1.3421 -0.0199
 1183TIP3    H227745   5.853   4.310  18.009  1.2278  0.2107 -0.1762
 1184TIP3   OH227746   3.607   3.853  20.267 -0.0204 -0.3974 -0.4134
 1184TIP3    H127747   3.610   3.926  20.205  0.4454 -0.6648 -0.7043
 1184TIP3    H227748   3.544   3.882  20.334  0.9721  0.7522  0.0740
 1185TIP3   OH227749   4.100   3.389  18.870  0.2873  0.6835 -0.6082
 1185TIP3    H127750   4.092   3.471  18.820 -0.8249  0.8206 -0.2271
 1185TIP3    H227751   4.126   3.417  18.957 -1.5936  0.7959 -0.0411
 1186TIP3   OH227752   6.505   0.043  18.990  0.0272  0.1037 -0.1294
 1186TIP3    H127753   6.469   0.019  18.905  1.8650 -0.1748 -0.8855
 1186TIP3    H227754   6.504   0.138  18.991  1.4588  0.1777 -1.2030
 1187TIP3   OH227755   3.720   3.699  19.730  0.1052  0.3681 -0.6250
 1187TIP3    H127756   3.679   3.782  19.756 -1.2103 -0.7692  1.2513
 1187TIP3    H227757   3.778   3.677  19.803 -0.0062 -0.6129 -0.8110
 1188TIP3   OH227758   4.011   2.417  18.981  0.4722  0.2397 -0.1041
 1188TIP3    H127759   3.922   2.441  19.007  0.6442  1.4331 -0.5311
 1188TIP3    H227760   4.051   2.384  19.061 -0.1111  0.4640  0.2913
 1189TIP3   OH227761   5.828   4.505  17.497 -0.3939 -0.2453  0.4033
 1189TIP3    H127762   5.840   4.480  17.406 -0.7666 -1.7797  0.7535
 1189TIP3    H227763   5.786   4.430  17.538 -0.2251  0.4063  1.8512
 1190TIP3   OH227764   3.745   5.728  17.754 -0.6854 -0.1849  0.2269
 1190TIP3    H127765   3.746   5.638  17.722 -1.8483  0.2712 -1.1952
 1190TIP3    H227766   3.658   5.740  17.791 -1.0260  0.7210 -0.7941
 1191TIP3   OH227767   3.585   0.332  17.899  0.0733 -0.0587 -0.0690
 1191TIP3    H127768   3.556   0.417  17.931  3.2205  1.4497 -0.8526
 1191TIP3    H227769   3.594   0.344  17.804  1.9791 -0.7126 -0.0226
 1192TIP3   OH227770   0.578   6.365  19.365  0.3040  0.3541  0.3429
 1192TIP3    H127771   0.600   6.451  19.400  1.8112  0.7250 -1.3516
 1192TIP3    H227772   0.641   6.351  19.294 -0.8458 -1.5112 -0.3965
 1193TIP3   OH227773   6.554   5.879  19.939  0.0858 -0.2588 -0.4510
 1193TIP3    H127774   6.506   5.875  20.022 -0.3598 -1.2850 -0.7379
 1193TIP3    H227775   6.485   5.880  19.872  0.4463  0.2541 -0.8257
 1194TIP3   OH227776   5.900   6.677  19.895 -0.1121 -0.3970  0.1858
 1194TIP3    H127777   5.895   6.709  19.985  0.6044 -1.4830  0.6320
 1194TIP3    H227778   5.861   6.589  19.898 -0.6412 -0.2090 -0.6929
 1195TIP3   OH227779   6.629   3.528  19.007 -0.5516 -0.0471 -0.0530
 1195TIP3    H127780   6.534   3.534  18.998 -0.8207 -1.4616  1.4379
 1195TIP3    H227781   6.649   3.435  19.004  0.7936  0.2174 -0.2498
 1196TIP3   OH227782   1.920   4.720  19.542  0.0063 -0.0403  0.1075
 1196TIP3    H127783   1.852   4.787  19.551 -0.3987 -0.3198 -0.7667
 1196TIP3    H227784   1.989   4.763  19.492 -1.5585 -1.1143 -3.2855
 1197TIP3   OH227785   1.995   3.655  19.221 -0.4571  0.0813  0.1548
 1197TIP3    H127786   2.024   3.597  19.292 -0.2393  0.5900  0.4826
 1197TIP3    H227787   1.939   3.720  19.265 -0.4735  0.2850 -0.1714
 1198TIP3   OH227788   6.199   5.071  19.292 -0.4954  0.6260 -0.0806
 1198TIP3    H127789   6.132   5.074  19.224  0.1641 -0.6901 -0.8297
 1198TIP3    H227790   6.164   5.012  19.359  0.0984 -0.4513 -0.7036
 1199TIP3   OH227791   0.761   5.676  19.319  0.0041 -0.0498 -0.2987
 1199TIP3    H127792   0.826   5.716  19.376 -0.1444 -0.0994 -0.0943
 1199TIP3    H227793   0.681   5.676  19.371  0.0294 -0.7118 -0.2622
 1200TIP3   OH227794   6.281   5.386  17.423 -0.6143 -0.0420 -0.2843
 1200TIP3    H127795   6.252   5.360  17.510 -0.9336 -0.6922 -0.5782
 1200TIP3    H227796   6.204   5.373  17.367  0.5004 -2.9422 -1.3060
 1201TIP3   OH227797   3.011   0.227  19.059  0.0668 -0.0764  0.2651
 1201TIP3    H127798   3.003   0.135  19.083  0.3307 -0.5186 -1.2128
 1201TIP3    H227799   2.936   0.269  19.100  0.0083 -0.9223  1.0594
 1202TIP3   OH227800   0.681   0.888  17.513 -0.4779  0.6991 -0.0496
 1202TIP3    H127801   0.687   0.896  17.418  0.2125 -1.4161 -0.2462
 1202TIP3    H227802   0.655   0.975  17.543 -0.6318  1.4386 -2.1528
 1203TIP3   OH227803   3.148   1.397  19.322  0.0120 -0.6482  0.1059
 1203TIP3    H127804   3.180   1.479  19.359 -0.5655 -0.6220  0.5579
 1203TIP3    H227805   3.053   1.402  19.330 -0.0924 -0.9431 -0.7584
 1204TIP3   OH227806   5.347   4.756  19.239  0.8480 -0.4280  0.4384
 1204TIP3    H127807   5.337   4.799  19.324  0.5049 -0.0816  0.2289
 1204TIP3    H227808   5.303   4.816  19.177 -1.1509 -1.8574  0.3722
 1205TIP3   OH227809   4.820   1.640  18.777  0.4523  0.3607 -0.2806
 1205TIP3    H127810   4.807   1.671  18.688 -2.5023  0.0562 -0.0554
 1205TIP3    H227811   4.762   1.564  18.785  1.4842 -0.3178  1.5960
 1206TIP3   OH227812   2.835   4.978  18.249 -0.5769 -0.2383  0.2870
 1206TIP3    H127813   2.883   4.921  18.309 -1.9390 -0.3444  1.3096
 1206TIP3    H227814   2.753   4.998  18.294 -0.3551  2.1658 -0.2405
 1207TIP3   OH227815   1.338   2.767  19.586 -0.4719  0.0125 -0.4424
 1207TIP3    H127816   1.410   2.740  19.644 -1.5115 -0.8500  0.4884
 1207TIP3    H227817   1.304   2.686  19.550  0.3772  0.5575 -2.6056
 1208TIP3   OH227818   2.149   0.856  17.800  0.4769  0.0071 -0.0062
 1208TIP3    H127819   2.148   0.946  17.833 -0.0481  0.5642 -1.4685
 1208TIP3    H227820   2.089   0.809  17.858 -1.6425  1.3156 -1.0181
 1209TIP3   OH227821   3.274   3.566  17.877 -0.5169  0.2635 -0.2176
 1209TIP3    H127822   3.279   3.649  17.926  1.0073 -0.0833  0.2802
 1209TIP3    H227823   3.188   3.568  17.836 -1.7415  0.7729  2.1675
 1210TIP3   OH227824   6.547   5.004  19.755 -0.4482  0.7011  0.5202
 1210TIP3    H127825   6.633   4.969  19.778 -1.5541 -0.9861  2.4879
 1210TIP3    H227826   6.560   5.047  19.671  1.8270 -1.5237 -0.4071
 1211TIP3   OH227827   6.115   1.672  17.682 -0.2890  0.2777 -0.2184
 1211TIP3    H127828   6.155   1.604  17.627 -0.2569  1.3313 -1.5439
 1211TIP3    H227829   6.023   1.648  17.685 -0.0655 -0.5485  0.4242
 1212TIP3   OH227830   4.279   5.561  18.185  0.6210 -0.0734 -0.1333
 1212TIP3    H127831   4.342   5.491  18.203  1.7057  0.7096 -0.7635
 1212TIP3    H227832   4.321   5.640  18.219 -1.4376  0.0448  2.3720
 1213TIP3   OH227833   1.475   5.807  18.364 -0.4683  0.7908 -0.4725
 1213TIP3    H127834   1.497   5.894  18.332 -0.4812  0.2207 -2.1407
 1213TIP3    H227835   1.557   5.757  18.358 -1.1748 -0.2395 -2.9192
 1214TIP3   OH227836   3.318   3.286  19.466  0.1165  0.6687  1.0237
 1214TIP3    H127837   3.282   3.203  19.435  0.0651  0.6517  1.1275
 1214TIP3    H227838   3.299   3.287  19.560  0.2889  0.7116  1.0570
 1215TIP3   OH227839   5.301   6.036  17.265 -0.0190 -0.3739  0.6386
 1215TIP3    H127840   5.281   5.992  17.182  0.1183 -1.8256  1.3476
 1215TIP3    H227841   5.219   6.078  17.290 -0.1469 -0.1807 -0.0820
 1216TIP3   OH227842   4.572   3.837  18.460  0.1968  0.0370 -0.4459
 1216TIP3    H127843   4.540   3.764  18.406 -0.6309 -0.3141  0.5026
 1216TIP3    H227844   4.494   3.871  18.504  0.2523  2.6073 -2.1053
 1217TIP3   OH227845   5.633   3.431  18.955 -0.0405 -0.6476 -0.0435
 1217TIP3    H127846   5.643   3.352  19.009 -1.6375 -0.0524  1.1938
 1217TIP3    H227847   5.547   3.420  18.914 -0.8404  1.0122  1.1268
 1218TIP3   OH227848   0.088   5.818  17.408 -0.3956 -0.3900  0.3001
 1218TIP3    H127849   0.113   5.753  17.342 -0.0780  1.3860 -1.4285
 1218TIP3    H227850   0.030   5.878  17.361  0.7601  1.5945  1.3120
 1219TIP3   OH227851   3.445   0.490  17.553 -0.0312 -0.1950 -0.2896
 1219TIP3    H127852   3.459   0.512  17.645 -0.4624 -1.1300  0.0202
 1219TIP3    H227853   3.505   0.547  17.505  1.5077 -0.9152  0.6854
 1220TIP3   OH227854   6.277   0.484  17.771  0.0615 -0.4843  0.4532
 1220TIP3    H127855   6.324   0.551  17.720  0.6198 -1.4457 -0.3219
 1220TIP3    H227856   6.187   0.517  17.777  0.3394  0.3568  0.1229
 1221TIP3   OH227857   4.105   3.947  20.024  0.0882  0.5308 -0.8292
 1221TIP3    H127858   4.031   3.983  19.976  0.0729  0.2595 -1.0097
 1221TIP3    H227859   4.178   3.950  19.962 -0.1545 -0.6905 -1.1896
 1222TIP3   OH227860   0.394   6.637  18.629 -0.1700 -0.5200  0.2598
 1222TIP3    H127861   0.421   6.729  18.629  1.0373 -0.8474  1.2451
 1222TIP3    H227862   0.311   6.637  18.676 -0.4536  0.1261 -0.2168
 1223TIP3   OH227863   2.046   3.682  19.763  0.5018  0.2000  0.1509
 1223TIP3    H127864   2.131   3.638  19.769  0.9264  1.0075  0.2211
 1223TIP3    H227865   2.065   3.773  19.781 -0.6653  0.1306  1.9693
 1224TIP3   OH227866   0.002   4.880  18.911  0.2619  0.3824 -0.3469
 1224TIP3    H127867  -0.020   4.943  18.843  0.0045  2.0314  1.2028
 1224TIP3    H227868   0.009   4.796  18.864 -4.5417  0.4740 -1.7747
 1225TIP3   OH227869   0.215   0.404  19.242  0.6255 -0.4631 -0.0088
 1225TIP3    H127870   0.189   0.410  19.150  0.2635  0.0936  0.1254
 1225TIP3    H227871   0.155   0.464  19.288  0.0362 -1.5743  0.7404
 1226TIP3   OH227872   1.110   3.841  19.568 -0.7951  0.3332  0.1695
 1226TIP3    H127873   1.076   3.816  19.482  0.5355 -0.6379 -0.1109
 1226TIP3    H227874   1.051   3.798  19.630 -1.1036  0.0996 -0.2791
 1227TIP3   OH227875   1.411   2.235  17.364 -0.0850 -0.4101 -0.1134
 1227TIP3    H127876   1.423   2.140  17.363 -0.2329 -0.4293 -0.1576
 1227TIP3    H227877   1.318   2.248  17.344 -0.3336 -0.3037  1.0327
 1228TIP3   OH227878   5.409   3.995  17.617 -0.0801  0.2623  0.5217
 1228TIP3    H127879   5.463   4.040  17.552  0.0502 -0.5062  0.0821
 1228TIP3    H227880   5.355   3.934  17.565 -1.7931  1.4009  0.8788
 1229TIP3   OH227881   0.302   6.370  19.179  0.7646 -0.1349 -0.0334
 1229TIP3    H127882   0.320   6.418  19.259  1.5178  0.5482 -0.5937
 1229TIP3    H227883   0.383   6.322  19.160  0.1477 -1.3605  0.3201
 1230TIP3   OH227884   2.019   3.771  20.468 -0.2104  0.0525 -0.4282
 1230TIP3    H127885   2.102   3.769  20.420  0.0654 -0.3314  0.0495
 1230TIP3    H227886   2.039   3.727  20.551 -0.9684 -0.2984 -0.4289
 1231TIP3   OH227887   5.407   6.099  18.458  0.3766  0.3242  0.0908
 1231TIP3    H127888   5.482   6.157  18.473 -0.0307  0.6363  0.9679
 1231TIP3    H227889   5.401   6.091  18.363 -0.3492  2.7776 -0.1336
 1232TIP3   OH227890   4.757   6.167  19.615 -0.1103 -0.0056 -0.3537
 1232TIP3    H127891   4.728   6.115  19.540 -0.2461 -1.2325  0.5155
 1232TIP3    H227892   4.676   6.203  19.652 -0.3755 -1.6017  0.7498
 1233TIP3   OH227893   1.966   3.176  18.679  0.3722  0.1025  0.4191
 1233TIP3    H127894   1.887   3.215  18.641 -1.0633  0.1183  3.1150
 1233TIP3    H227895   2.030   3.176  18.609 -2.1963 -0.4601 -2.1070
 1234TIP3   OH227896   2.443   1.845  20.191  0.0679  0.1527  0.3869
 1234TIP3    H127897   2.449   1.883  20.103  0.4980  0.9867  0.7546
 1234TIP3    H227898   2.534   1.845  20.222  0.2800 -2.3093 -0.0267
 1235TIP3   OH227899   0.729   3.003  19.476  0.7173 -0.3359  0.0720
 1235TIP3    H127900   0.761   3.007  19.566  0.4819  0.5296  0.1239
 1235TIP3    H227901   0.645   3.050  19.478  0.3929 -0.8649 -0.4700
 1236TIP3   OH227902   0.863   5.005  19.696 -0.1214  0.1097 -0.0600
 1236TIP3    H127903   0.891   5.091  19.665  0.2915 -0.7639 -2.3373
 1236TIP3    H227904   0.924   4.984  19.767 -1.2116  2.2837  1.6523
 1237TIP3   OH227905   3.287   4.453  17.497  0.1467  0.2902  0.1151
 1237TIP3    H127906   3.325   4.405  17.423  0.6578  1.3938 -0.3669
 1237TIP3    H227907   3.283   4.389  17.568  0.3726 -0.5836 -0.6422
 1238TIP3   OH227908   1.682   3.327  19.075  0.0843 -0.1045  0.1327
 1238TIP3    H127909   1.683   3.328  19.170  0.0354  1.0003  0.1354
 1238TIP3    H227910   1.723   3.410  19.049  1.6650 -1.1205 -0.8399
 1239TIP3   OH227911   1.204   4.456  17.929  0.8353 -0.5175  0.0545
 1239TIP3    H127912   1.289   4.429  17.893  1.7471 -0.2462  1.9126
 1239TIP3    H227913   1.209   4.434  18.022  0.1884  2.4964  0.9135
 1240TIP3   OH227914   1.742   3.448  19.325 -0.3611  0.2151  0.4147
 1240TIP3    H127915   1.791   3.393  19.386 -0.9583 -3.6472 -2.2496
 1240TIP3    H227916   1.808   3.494  19.274  0.4318 -1.5641 -0.2408
 1241TIP3   OH227917   2.964   6.705  19.178 -0.0888 -0.0604  0.2349
 1241TIP3    H127918   3.014   6.671  19.253 -0.4754  2.1038  1.5479
 1241TIP3    H227919   2.883   6.654  19.178  0.5776 -1.1690  0.2662
 1242TIP3   OH227920   0.235   4.494  18.376 -0.4575 -0.0720 -0.5351
 1242TIP3    H127921   0.149   4.509  18.415 -0.4223 -0.5559 -0.2726
 1242TIP3    H227922   0.287   4.569  18.404 -1.4273  1.4962 -2.5947
 1243TIP3   OH227923   6.298   4.629  19.516  0.0044 -0.0958  0.3509
 1243TIP3    H127924   6.214   4.609  19.556  0.4377 -1.4083  0.6863
 1243TIP3    H227925   6.307   4.724  19.522 -1.7446  0.1444 -0.3147
 1244TIP3   OH227926   1.940   4.906  17.713 -0.4789 -0.3146  0.4717
 1244TIP3    H127927   1.924   4.959  17.791  0.7270 -0.8070  1.0694
 1244TIP3    H227928   1.960   4.819  17.746  2.8088  0.0815 -0.1602
 1245TIP3   OH227929   4.365   1.815  17.391 -0.0916  0.3859  0.1938
 1245TIP3    H127930   4.331   1.901  17.414 -0.6815 -0.0181  0.8813
 1245TIP3    H227931   4.423   1.830  17.316 -2.0710  1.0467 -1.2612
 1246TIP3   OH227932   5.492   5.215  20.489 -0.1735  0.1235 -0.1441
 1246TIP3    H127933   5.578   5.239  20.524 -0.1739  1.2945 -0.9024
 1246TIP3    H227934   5.430   5.269  20.539 -0.4783 -0.6544  0.3416
 1247TIP3   OH227935   2.777   5.553  20.501 -0.2798 -0.1266  0.3969
 1247TIP3    H127936   2.787   5.566  20.596 -1.4980 -1.0827  0.6757
 1247TIP3    H227937   2.739   5.466  20.492 -0.8800  0.2448 -0.9374
 1248TIP3   OH227938   1.289   3.546  19.852 -0.0342  0.0657 -0.0191
 1248TIP3    H127939   1.293   3.544  19.756 -0.2972  0.2354 -0.0350
 1248TIP3    H227940   1.290   3.454  19.878 -0.1624  0.0159 -0.1921
 1249TIP3   OH227941   3.556   3.395  17.188  0.4960  0.1706  0.6710
 1249TIP3    H127942   3.508   3.470  17.222 -0.2567  0.8119 -1.5906
 1249TIP3    H227943   3.489   3.340  17.146  1.3156 -0.6428  0.3721
 1250TIP3   OH227944   1.565   5.881  19.950  0.2661 -0.1042 -0.3508
 1250TIP3    H127945   1.528   5.968  19.968  0.0385 -0.3499  0.4068
 1250TIP3    H227946   1.520   5.823  20.011  1.1067 -0.5960 -0.1782
 1251TIP3   OH227947   5.275   6.312  19.948 -0.1742  0.6296  0.0008
 1251TIP3    H127948   5.238   6.233  19.907 -3.5497  0.7176  2.4352
 1251TIP3    H227949   5.315   6.281  20.029 -0.1279  1.2537  0.2197
 1252TIP3   OH227950   2.741   2.830  19.920  0.7621  0.5722 -0.3834
 1252TIP3    H127951   2.728   2.873  19.836 -1.5195 -2.2592 -1.6686
 1252TIP3    H227952   2.813   2.768  19.905 -0.2442 -0.5839 -0.6078
 1253TIP3   OH227953   6.590   5.816  16.956  0.7004 -0.2743  0.2041
 1253TIP3    H127954   6.565   5.810  16.864  0.0768  2.0687  0.1754
 1253TIP3    H227955   6.617   5.727  16.979  0.1951 -1.0636 -2.0303
 1254TIP3   OH227956   1.284   2.980  17.979  0.2404 -0.9461  0.3692
 1254TIP3    H127957   1.334   3.032  18.041  0.4569 -0.8572  0.1198
 1254TIP3    H227958   1.221   3.042  17.941  0.3250 -0.9258  0.2616
 1255TIP3   OH227959   2.783   0.812  18.432 -0.0891 -0.0951  0.0491
 1255TIP3    H127960   2.760   0.735  18.381 -1.1802  0.2734 -0.0382
 1255TIP3    H227961   2.816   0.777  18.515  1.1437 -0.6777 -0.6658
 1256TIP3   OH227962   4.093   3.829  18.950 -0.4458 -0.0149  0.0423
 1256TIP3    H127963   4.034   3.756  18.928 -0.8972  0.2026  0.5175
 1256TIP3    H227964   4.167   3.819  18.890 -0.1526 -1.2996  0.5700
 1257TIP3   OH227965   6.050   4.790  19.668  0.0948 -0.2441 -0.6375
 1257TIP3    H127966   5.965   4.760  19.699 -0.5588  1.7046 -0.4420
 1257TIP3    H227967   6.113   4.749  19.727 -0.7905 -0.6009  0.0772
 1258TIP3   OH227968   2.371   2.576  18.276  0.0423 -0.7135  0.6495
 1258TIP3    H127969   2.278   2.594  18.269 -0.3176 -2.7428 -0.7240
 1258TIP3    H227970   2.388   2.512  18.206  2.8214  0.9545 -0.3676
 1259TIP3   OH227971   5.854   3.573  17.473  0.0641  0.4180 -0.3738
 1259TIP3    H127972   5.772   3.599  17.516 -2.0664 -0.5199 -3.5213
 1259TIP3    H227973   5.877   3.489  17.512  0.5695  1.4459  1.7096
 1260TIP3   OH227974   4.522   0.736  17.003 -0.0174  0.0244  0.5634
 1260TIP3    H127975   4.566   0.660  16.965 -0.8484 -0.3400  0.2940
 1260TIP3    H227976   4.482   0.704  17.083 -1.4966 -0.1995 -0.2106
 1261TIP3   OH227977   3.793   0.191  18.015  0.1021 -0.1788 -0.4684
 1261TIP3    H127978   3.716   0.238  17.982 -1.5924 -2.5232 -0.1793
 1261TIP3    H227979   3.772   0.172  18.106  1.3567 -0.2394 -0.1845
 1262TIP3   OH227980   4.152   5.144  19.990 -0.7130  0.0765 -0.0557
 1262TIP3    H127981   4.127   5.127  19.899 -0.4342  0.5233 -0.2132
 1262TIP3    H227982   4.091   5.211  20.020 -1.3567 -0.6785  0.3558
 1263TIP3   OH227983   4.908   5.324  19.508  0.4571  0.4420  0.5425
 1263TIP3    H127984   4.817   5.298  19.520  0.7857 -0.8954  0.2520
 1263TIP3    H227985   4.949   5.251  19.463  1.7335  0.9363  0.8364
 1264TIP3   OH227986   1.559   4.926  19.924 -0.1671  0.0051 -0.2546
 1264TIP3    H127987   1.550   4.941  19.830  0.0562  0.3357 -0.2254
 1264TIP3    H227988   1.474   4.951  19.961 -0.5195 -0.8554 -0.4506
 1265TIP3   OH227989   5.188   5.801  20.389 -0.5504 -0.6252  0.5691
 1265TIP3    H127990   5.165   5.829  20.301  0.7923 -0.2907  0.2942
 1265TIP3    H227991   5.205   5.883  20.436  0.3660 -0.8555  0.6517
 1266TIP3   OH227992   2.098   4.726  18.101  0.0365 -0.0035  0.0361
 1266TIP3    H127993   2.061   4.814  18.109 -0.4716 -0.3344  1.5447
 1266TIP3    H227994   2.127   4.704  18.190  2.0266 -0.5712 -0.6910
 1267TIP3   OH227995   1.096   0.203  18.182  0.4079 -0.2557 -0.1481
 1267TIP3    H127996   1.116   0.111  18.199 -0.3772 -0.5299 -0.6514
 1267TIP3    H227997   1.032   0.201  18.111 -0.6879  0.6072  0.7668
 1268TIP3   OH227998   5.311   2.817  18.754 -0.4241  0.0650 -0.5538
 1268TIP3    H127999   5.218   2.817  18.775 -0.6648  2.8979 -1.2230
 1268TIP3    H228000   5.353   2.857  18.830 -0.2448  2.0281 -1.6101
 1269TIP3   OH228001   6.550   4.427  17.582 -0.4376 -0.4462 -0.0796
 1269TIP3    H128002   6.591   4.505  17.545 -0.7171 -0.7107 -0.9898
 1269TIP3    H228003   6.462   4.455  17.606  0.5278  0.3727  2.7837
 1270TIP3   OH228004   5.149   1.538  20.175  0.5650 -0.0140 -0.0122
 1270TIP3    H128005   5.232   1.492  20.164  0.4481  0.3058 -3.2225
 1270TIP3    H228006   5.159   1.619  20.125 -1.3497  0.5055  0.3447
 1271TIP3   OH228007   1.674   6.057  20.224  0.5034  0.0901 -0.5787
 1271TIP3    H128008   1.601   6.114  20.249  0.3695 -0.3402  0.0361
 1271TIP3    H228009   1.671   5.985  20.288  0.7596 -0.5249 -1.2512
 1272TIP3   OH228010   5.013   1.818  20.175 -0.6397 -0.5727  0.1352
 1272TIP3    H128011   4.943   1.838  20.113  0.1291  1.2448 -0.2261
 1272TIP3    H228012   4.971   1.820  20.261 -0.9936  0.8191 -0.0504
 1273TIP3   OH228013   1.259   4.774  17.976 -0.1089 -0.3781 -0.4862
 1273TIP3    H128014   1.259   4.869  17.964  0.1222 -0.0896  1.4602
 1273TIP3    H228015   1.288   4.739  17.892  2.4135  1.4126 -0.4602
 1274TIP3   OH228016   3.462   0.123  19.059 -0.2160  0.4523 -0.1082
 1274TIP3    H128017   3.527   0.110  19.128 -0.4657 -0.5518 -0.0372
 1274TIP3    H228018   3.389   0.067  19.086 -0.5212  0.4583 -0.9242
 1275TIP3   OH228019   2.358   6.375  19.426  0.1876 -0.3734  0.4697
 1275TIP3    H128020   2.284   6.314  19.430 -0.8130  0.6682 -1.0937
 1275TIP3    H228021   2.325   6.455  19.468  0.3672  0.1348 -0.3375
 1276TIP3   OH228022   1.887   4.547  17.307 -0.7196 -0.2195 -0.3826
 1276TIP3    H128023   1.860   4.457  17.288 -2.6879  0.5200 -1.4048
 1276TIP3    H228024   1.875   4.555  17.402 -0.5580 -1.0279 -0.2874
 1277TIP3   OH228025   4.460   4.083  20.539 -0.5185  0.1400  0.1215
 1277TIP3    H128026   4.379   4.127  20.565 -0.5077 -0.5646  1.4586
 1277TIP3    H228027   4.431   3.997  20.507 -0.2265 -0.8630  2.3702
 1278TIP3   OH228028   6.616   4.063  16.638  0.1092  0.0307  0.1411
 1278TIP3    H128029   6.635   4.154  16.664 -0.1546 -0.4030  2.0104
 1278TIP3    H228030   6.521   4.062  16.623  0.2820  0.3142 -1.0510
 1279TIP3   OH228031   6.238   4.695  18.495 -0.6468  0.3735 -0.0677
 1279TIP3    H128032   6.215   4.697  18.402  1.6473 -0.1123 -0.7151
 1279TIP3    H228033   6.164   4.653  18.537 -1.0560 -0.9016 -1.9347
 1280TIP3   OH228034   3.299   1.535  17.048 -0.1105 -0.5541  0.1999
 1280TIP3    H128035   3.259   1.598  16.988  0.5334  0.5349  0.8790
 1280TIP3    H228036   3.272   1.450  17.014  0.1735  0.0136 -1.6035
 1281TIP3   OH228037   2.618   2.560  17.155 -0.4608  0.0824 -0.4307
 1281TIP3    H128038   2.709   2.587  17.140 -1.1107  1.9586 -1.3053
 1281TIP3    H228039   2.623   2.465  17.169  1.7576  0.3166  0.8544
 1282TIP3   OH228040   3.870   1.198  19.477  0.2325  0.1345 -0.1294
 1282TIP3    H128041   3.778   1.190  19.452 -0.0796 -2.2359  1.4520
 1282TIP3    H228042   3.916   1.141  19.415  0.7317  1.5686 -1.1276
 1283TIP3   OH228043   2.089   6.461  18.745 -0.2940 -0.1031 -0.0613
 1283TIP3    H128044   2.043   6.399  18.801  0.8359  0.5601  1.6958
 1283TIP3    H228045   2.163   6.411  18.709  0.2736  0.0433  0.8756
 1284TIP3   OH228046   5.036   4.882  19.879  0.4131  0.0345  0.1593
 1284TIP3    H128047   5.081   4.928  19.808  1.8134 -1.2411  0.1706
 1284TIP3    H228048   4.955   4.849  19.840  1.9608 -2.1783 -1.4356
 1285TIP3   OH228049   3.881   2.487  16.807 -0.5085  0.0384  0.1602
 1285TIP3    H128050   3.864   2.481  16.901  1.4071  2.1937  0.7305
 1285TIP3    H228051   3.919   2.574  16.794  2.2550 -1.3198 -2.0805
 1286TIP3   OH228052   4.422   2.626  19.225 -0.3502 -0.0496  0.1118
 1286TIP3    H128053   4.480   2.622  19.149  0.7669 -1.2636  0.9984
 1286TIP3    H228054   4.436   2.714  19.261 -0.2321  0.2160 -0.5611
 1287TIP3   OH228055   5.206   3.488  18.247  0.2270  0.2352 -0.2613
 1287TIP3    H128056   5.119   3.507  18.212  0.2425  2.2252  0.6338
 1287TIP3    H228057   5.252   3.572  18.242  1.6901 -0.4930  0.4148
 1288TIP3   OH228058   5.295   5.289  17.506  0.1781  0.0011  0.1524
 1288TIP3    H128059   5.238   5.228  17.458  1.2297 -1.2289  0.4149
 1288TIP3    H228060   5.234   5.347  17.552 -0.8490  0.1660 -1.3486
 1289TIP3   OH228061   0.993   2.107  19.942  0.8157 -0.1009  0.3581
 1289TIP3    H128062   0.975   2.090  20.035 -1.5560 -0.1327 -0.0311
 1289TIP3    H228063   0.915   2.154  19.911  0.5827 -1.8743 -2.0570
 1290TIP3   OH228064   3.147   6.102  17.825 -0.9324 -0.0128 -0.1065
 1290TIP3    H128065   3.199   6.084  17.903 -1.2155 -2.1278 -0.3440
 1290TIP3    H228066   3.060   6.126  17.860 -0.9720 -0.6429  0.2414
 1291TIP3   OH228067   2.960   4.801  17.676 -0.1944 -0.3722 -0.5648
 1291TIP3    H128068   2.930   4.789  17.586  1.8786  0.3886 -1.4225
 1291TIP3    H228069   3.045   4.758  17.679  0.8768  1.6809  0.3086
 1292TIP3   OH228070   3.096   1.290  19.932  0.1481  0.5009 -0.0283
 1292TIP3    H128071   3.072   1.327  19.847 -0.4349  1.4048  0.5107
 1292TIP3    H228072   3.184   1.324  19.948 -0.1999  1.3133  0.2493
 1293TIP3   OH228073   0.699   1.418  17.174  0.1097 -0.1544  0.2185
 1293TIP3    H128074   0.658   1.493  17.133  0.3241  1.8795  3.3694
 1293TIP3    H228075   0.785   1.411  17.133 -1.3386 -1.3180 -2.9002
 1294TIP3   OH228076   4.383   2.253  20.108 -0.3292 -0.1072 -0.3071
 1294TIP3    H128077   4.447   2.228  20.175 -0.7559 -2.6099 -0.7141
 1294TIP3    H228078   4.432   2.253  20.026 -0.0727  1.7282 -0.1777
 1295TIP3   OH228079   5.604   4.924  19.952 -0.2274  0.3074  0.1602
 1295TIP3    H128080   5.673   4.982  19.919  0.0213  0.2750  0.6152
 1295TIP3    H228081   5.535   4.983  19.982 -0.4519  0.3371 -0.4035
 1296TIP3   OH228082   2.669   0.657  20.368  0.3023 -0.1156  0.2489
 1296TIP3    H128083   2.603   0.632  20.304 -0.1636 -1.1206  1.1080
 1296TIP3    H228084   2.619   0.684  20.445  0.8843 -0.8870  0.9089
 1297TIP3   OH228085   4.655   1.716  19.303  0.0472 -0.5023 -0.5351
 1297TIP3    H128086   4.681   1.667  19.224 -1.3468 -1.4781 -0.4320
 1297TIP3    H228087   4.628   1.648  19.364  1.1742  0.2457  0.8479
 1298TIP3   OH228088   3.901   6.350  17.196  0.1113  0.2204 -0.3482
 1298TIP3    H128089   3.870   6.341  17.106  0.9221  1.3579 -0.7691
 1298TIP3    H228090   3.822   6.338  17.249 -0.0518 -2.5218 -1.0420
 1299TIP3   OH228091   2.380   1.421  17.262 -0.1478 -0.4584 -0.1423
 1299TIP3    H128092   2.292   1.396  17.292  0.4835 -1.8599  0.6748
 1299TIP3    H228093   2.376   1.516  17.251 -2.2842 -0.6752 -1.9041
 1300TIP3   OH228094   3.563   5.328  18.750 -0.0467 -0.1423 -0.2883
 1300TIP3    H128095   3.635   5.391  18.746 -0.4556  0.3305 -0.4083
 1300TIP3    H228096   3.593   5.253  18.699 -0.0865  0.5121 -1.3122
 1301TIP3   OH228097   5.870   0.489  18.234 -0.3009 -0.0144  0.0572
 1301TIP3    H128098   5.929   0.430  18.283 -0.9175 -0.7295 -0.0417
 1301TIP3    H228099   5.787   0.483  18.281 -0.4258  0.6414 -0.0751
 1302TIP3   OH228100   2.151   1.259  18.319  0.0771  0.3882 -0.0458
 1302TIP3    H128101   2.133   1.260  18.413  2.2662 -0.3902  0.4368
 1302TIP3    H228102   2.080   1.207  18.282 -1.4429  1.6111  0.9795
 1303TIP3   OH228103   1.804   1.129  19.824  0.2752  0.0939 -0.1609
 1303TIP3    H128104   1.822   1.056  19.884 -0.9830  0.3739  0.5960
 1303TIP3    H228105   1.783   1.087  19.741 -2.0608 -0.5610  0.6742
 1304TIP3   OH228106   4.776   1.698  17.416  0.4374 -0.4882  0.2937
 1304TIP3    H128107   4.763   1.793  17.416  3.3757  0.0326  1.8224
 1304TIP3    H228108   4.689   1.662  17.435 -0.5496  1.9318  0.7734
 1305TIP3   OH228109   4.030   3.342  19.708 -0.4886  0.0364  0.3882
 1305TIP3    H128110   4.061   3.421  19.663  3.3417 -1.4432  0.0393
 1305TIP3    H228111   4.037   3.273  19.642  0.5554 -1.3155  1.8486
 1306TIP3   OH228112   0.351   3.912  19.476  0.0926  0.0361  0.3895
 1306TIP3    H128113   0.331   3.850  19.405  2.5937  0.9064 -1.2219
 1306TIP3    H228114   0.269   3.921  19.524 -1.9937 -0.1188 -2.8120
 1307TIP3   OH228115   6.367   0.897  19.899  0.1738  0.1670  0.2534
 1307TIP3    H128116   6.373   0.856  19.812  2.8051 -0.7952  0.7872
 1307TIP3    H228117   6.318   0.834  19.951  1.6975 -1.0310  0.3198
 1308TIP3   OH228118   0.699   4.229  18.564  0.1079  0.1187 -0.6635
 1308TIP3    H128119   0.655   4.314  18.564 -0.5449 -0.1929 -2.3329
 1308TIP3    H228120   0.774   4.241  18.505 -0.1044 -0.5189 -1.0661
 1309TIP3   OH228121   2.239   0.578  20.157 -0.0570 -0.0047  0.7310
 1309TIP3    H128122   2.156   0.533  20.144 -0.5893  1.0745  0.2170
 1309TIP3    H228123   2.217   0.653  20.212  1.1097 -1.2152  2.9784
 1310TIP3   OH228124   2.780   6.476  19.194 -0.0639 -0.5974  0.1689
 1310TIP3    H128125   2.765   6.424  19.115 -1.1969 -0.4877  0.2871
 1310TIP3    H228126   2.692   6.500  19.224  0.3803  0.1485  0.9429
 1311TIP3   OH228127   5.870   4.199  19.995  0.4382  0.1103 -0.2621
 1311TIP3    H128128   5.795   4.151  20.030  0.0231  1.0085  0.0953
 1311TIP3    H228129   5.896   4.149  19.917  0.7082 -1.3110  0.6902
 1312TIP3   OH228130   3.374   0.802  19.406 -0.0492  0.3094  0.1305
 1312TIP3    H128131   3.457   0.849  19.395  0.0108  0.2647  0.3852
 1312TIP3    H228132   3.394   0.733  19.468 -0.2568  0.2425  0.1220
 1313TIP3   OH228133   5.168   3.043  17.808 -0.1899  0.0893 -0.0346
 1313TIP3    H128134   5.152   2.955  17.843  0.0060  0.3920  0.8380
 1313TIP3    H228135   5.224   3.029  17.732 -0.9378 -0.6166 -0.4776
 1314TIP3   OH228136   5.196   5.365  19.254  0.5482 -0.3243  0.2305
 1314TIP3    H128137   5.276   5.340  19.302  1.5348  2.0277 -0.0812
 1314TIP3    H228138   5.170   5.448  19.292 -0.5951 -0.0554 -1.0740
 1315TIP3   OH228139   0.560   5.498  20.211  0.2991 -0.0842 -0.1183
 1315TIP3    H128140   0.494   5.503  20.280 -2.3643 -2.0711 -2.2673
 1315TIP3    H228141   0.549   5.579  20.161 -1.8976 -1.1086 -1.4563
 1316TIP3   OH228142   6.477   6.234  18.174  0.1664  0.2207  0.2670
 1316TIP3    H128143   6.389   6.227  18.137 -0.1819 -0.1226  1.1077
 1316TIP3    H228144   6.523   6.157  18.140  0.1196  0.3643 -0.1229
 1317TIP3   OH228145   0.662   0.348  19.081 -0.0850 -0.3215 -0.7054
 1317TIP3    H128146   0.596   0.279  19.074  0.6395 -1.3729  1.6419
 1317TIP3    H228147   0.618   0.419  19.128 -0.1200 -0.1735 -0.9591
 1318TIP3   OH228148   1.131   4.396  18.626 -0.0182  0.0799 -0.1745
 1318TIP3    H128149   1.193   4.362  18.689  0.7119  0.5203 -0.6391
 1318TIP3    H228150   1.164   4.367  18.541 -0.8930 -0.3637 -0.3860
 1319TIP3   OH228151   1.729   1.455  16.838 -0.1817  0.3448  0.3107
 1319TIP3    H128152   1.746   1.455  16.744  1.0465 -2.4278  0.4145
 1319TIP3    H228153   1.774   1.533  16.871 -0.0581  0.9922 -1.2899
 1320TIP3   OH228154   4.169   6.585  18.489 -0.6004 -0.0252 -0.0227
 1320TIP3    H128155   4.094   6.607  18.544 -1.2126  0.5177 -1.0391
 1320TIP3    H228156   4.182   6.663  18.434 -0.3457 -0.7344 -1.0018
 1321TIP3   OH228157   6.690   5.319  18.886 -0.2038 -0.2158 -0.1624
 1321TIP3    H128158   6.782   5.299  18.867 -0.2994 -0.8611  0.0483
 1321TIP3    H228159   6.678   5.291  18.977 -0.9887 -1.4648 -0.6271
 1322TIP3   OH228160   2.461   2.186  19.872  0.0754  0.0274 -0.2783
 1322TIP3    H128161   2.546   2.165  19.832  0.3376  0.1198  0.2248
 1322TIP3    H228162   2.423   2.100  19.892  0.2100 -0.0059 -0.1659
 1323TIP3   OH228163   1.989   1.004  19.408  0.0908  0.1290 -0.1975
 1323TIP3    H128164   2.029   1.075  19.457 -0.1565  0.0296  0.1534
 1323TIP3    H228165   2.060   0.968  19.355  0.4091  0.1177  0.2321
 1324TIP3   OH228166   4.773   3.138  20.339  0.2108  0.6178  0.1081
 1324TIP3    H128167   4.862   3.171  20.332  0.2035  1.2745  2.2188
 1324TIP3    H228168   4.736   3.185  20.414 -1.7808  0.0618 -0.4571
 1325TIP3   OH228169   3.071   0.741  17.175  0.5514 -0.3319  0.2817
 1325TIP3    H128170   2.981   0.715  17.197  0.7791 -1.4965 -0.1256
 1325TIP3    H228171   3.097   0.799  17.247 -1.7020  2.8808 -1.2549
 1326TIP3   OH228172   3.760   6.401  18.590 -0.3306 -0.3298  0.2110
 1326TIP3    H128173   3.753   6.492  18.618  1.1676 -1.0195  3.3664
 1326TIP3    H228174   3.829   6.402  18.523  0.2824  0.7961  0.8150
 1327TIP3   OH228175   2.758   1.756  19.309 -0.3915  0.3050  0.3191
 1327TIP3    H128176   2.844   1.729  19.341  0.2301  0.4759 -1.1267
 1327TIP3    H228177   2.751   1.848  19.333 -0.8628 -0.0803  1.8057
 1328TIP3   OH228178   3.688   2.121  19.173  0.1741  0.0119 -0.0504
 1328TIP3    H128179   3.617   2.057  19.174 -0.4794  0.7404  0.4317
 1328TIP3    H228180   3.729   2.110  19.087 -0.4895 -0.4429 -0.3155
 1329TIP3   OH228181   2.580   6.010  17.223  0.0726 -0.4729 -0.2045
 1329TIP3    H128182   2.534   5.970  17.149  0.2990 -0.0434 -0.5796
 1329TIP3    H228183   2.512   6.019  17.290 -0.7798  1.3843 -1.2097
 1330TIP3   OH228184   4.667   5.139  19.761 -0.3335  0.4858  0.3471
 1330TIP3    H128185   4.654   5.176  19.674 -2.0496  1.5716  1.0251
 1330TIP3    H228186   4.758   5.108  19.760 -0.1980  0.7989 -1.6843
 1331TIP3   OH228187   1.075   5.712  18.870  0.3755  0.5076 -0.0864
 1331TIP3    H128188   1.018   5.707  18.947 -0.7667  1.6966 -0.8008
 1331TIP3    H228189   1.118   5.627  18.866 -1.0156 -0.2831  0.7695
 1332TIP3   OH228190   0.417   1.208  20.037  0.4296 -0.0743  0.2835
 1332TIP3    H128191   0.371   1.142  19.985  0.2947  0.5417 -0.4106
 1332TIP3    H228192   0.350   1.273  20.057  0.3874 -0.4878  1.5890
 1333TIP3   OH228193   5.863   6.717  20.191 -0.4554 -0.0943 -0.5750
 1333TIP3    H128194   5.769   6.736  20.192 -0.1008  1.8942  0.6134
 1333TIP3    H228195   5.905   6.801  20.174  1.1418 -0.9364 -1.0917
 1334TIP3   OH228196   2.260   3.375  20.299  0.1182  0.2712  0.3560
 1334TIP3    H128197   2.347   3.408  20.278  0.8239 -1.8293 -0.2979
 1334TIP3    H228198   2.270   3.334  20.385 -0.4611  0.7981  0.6800
 1335TIP3   OH228199   4.790   0.214  18.526 -0.3884 -0.2413 -0.1649
 1335TIP3    H128200   4.807   0.180  18.438 -2.2553 -0.4416 -0.4947
 1335TIP3    H228201   4.795   0.136  18.582 -1.2786 -0.5035 -0.4265
 1336TIP3   OH228202   3.293   2.735  17.740  0.5364 -0.4328 -0.1040
 1336TIP3    H128203   3.261   2.781  17.663  0.5296 -0.2051  0.0341
 1336TIP3    H228204   3.326   2.652  17.706 -2.0040 -1.5850 -0.0602
 1337TIP3   OH228205   5.243   3.858  17.013  0.4242  0.1499 -0.5173
 1337TIP3    H128206   5.177   3.841  16.945  0.8180 -0.0723 -0.8437
 1337TIP3    H228207   5.325   3.825  16.976  0.4498 -0.9781  0.5010
 1338TIP3   OH228208   2.972   0.474  17.430  0.6804 -0.2228 -0.5232
 1338TIP3    H128209   2.918   0.486  17.508  2.2492  0.3121  0.5338
 1338TIP3    H228210   2.935   0.534  17.365 -0.8247 -0.8810 -0.3217
 1339TIP3   OH228211   0.256   1.315  19.105 -0.7944 -0.2875 -0.6722
 1339TIP3    H128212   0.216   1.347  19.025 -1.0562 -0.2533 -0.5272
 1339TIP3    H228213   0.317   1.248  19.076  1.4081  1.7963 -1.2319
 1340TIP3   OH228214   2.108   2.129  20.280 -0.2152  0.0777 -0.1063
 1340TIP3    H128215   2.187   2.170  20.246 -0.1550  0.9726  1.0611
 1340TIP3    H228216   2.057   2.202  20.316 -1.2599 -0.5726 -0.2232
 1341TIP3   OH228217   4.581   1.433  19.962 -0.7223  0.1572 -0.2178
 1341TIP3    H128218   4.500   1.441  20.012 -0.4382 -1.1246  0.4879
 1341TIP3    H228219   4.559   1.375  19.889 -0.3191 -0.6513  0.2905
 1342TIP3   OH228220   1.007   5.991  17.493 -0.3960  0.5411  0.5399
 1342TIP3    H128221   0.926   6.039  17.479  0.8987  2.6821 -0.0674
 1342TIP3    H228222   0.981   5.899  17.492 -2.5574  1.0819 -1.4559
 1343TIP3   OH228223   5.815   2.665  18.500  0.3125  0.0829 -0.5492
 1343TIP3    H128224   5.743   2.658  18.437  0.1220 -0.0120 -0.3215
 1343TIP3    H228225   5.818   2.579  18.542 -0.9649  0.7914  1.1117
 1344TIP3   OH228226   5.687   5.925  17.870 -0.2330  0.6571  0.3798
 1344TIP3    H128227   5.705   6.012  17.833 -1.6727  1.2460  0.9679
 1344TIP3    H228228   5.620   5.888  17.812 -0.8081  0.6279  1.0484
 1345TIP3   OH228229   4.911   0.942  17.586  0.2981  0.3974 -0.0942
 1345TIP3    H128230   4.952   0.975  17.506  0.7203  0.3401  0.0951
 1345TIP3    H228231   4.930   1.009  17.652  0.2557  0.2755  0.0404
 1346TIP3   OH228232   5.926   1.566  19.612  0.5613  0.1559 -0.0902
 1346TIP3    H128233   5.928   1.560  19.708  3.0254  2.4687  0.1291
 1346TIP3    H228234   6.010   1.530  19.585  0.5377  0.9479 -1.2609
 1347TIP3   OH228235   4.196   5.227  20.483  0.5317  0.1559 -0.5310
 1347TIP3    H128236   4.248   5.148  20.495  0.9226  0.2605 -1.4101
 1347TIP3    H228237   4.254   5.287  20.436  0.4066  1.1506  0.5435
 1348TIP3   OH228238   4.237   0.225  17.975 -0.5693 -0.3979  0.4139
 1348TIP3    H128239   4.296   0.288  18.017  0.2841 -0.4340 -0.6738
 1348TIP3    H228240   4.164   0.278  17.944  0.6463  0.3035 -1.4427
 1349TIP3   OH228241   0.802   4.922  19.162 -0.3636  0.0455 -0.1592
 1349TIP3    H128242   0.754   4.840  19.152  2.4561 -2.0321  1.5076
 1349TIP3    H228243   0.831   4.922  19.254  1.3137  1.9404 -0.5983
 1350TIP3   OH228244   6.083   0.662  17.871  0.2489  0.0146  0.1672
 1350TIP3    H128245   6.004   0.697  17.913  0.4450  0.0322  0.5234
 1350TIP3    H228246   6.138   0.633  17.944  0.3554 -0.4639 -0.0990
 1351TIP3   OH228247   3.076   6.013  19.332 -0.1006  0.1020 -0.7183
 1351TIP3    H128248   2.992   6.031  19.289  0.3180 -1.1558 -2.1727
 1351TIP3    H228249   3.097   5.923  19.306  0.2466 -0.7290  2.1407
 1352TIP3   OH228250   5.348   2.108  17.939  0.1075  0.1983 -0.0380
 1352TIP3    H128251   5.333   2.191  17.894 -0.5815 -0.1359 -0.4501
 1352TIP3    H228252   5.358   2.132  18.031  0.5787  0.8001 -0.2390
 1353TIP3   OH228253   0.744   3.891  19.758 -0.4213 -0.5967  0.4170
 1353TIP3    H128254   0.806   3.964  19.756  1.1052 -1.7650  2.2320
 1353TIP3    H228255   0.679   3.916  19.824  0.4266 -1.0875  1.4632
 1354TIP3   OH228256   1.638   5.300  17.689  0.4687  0.5171 -0.7942
 1354TIP3    H128257   1.577   5.356  17.642 -0.3167 -1.2252 -1.9733
 1354TIP3    H228258   1.624   5.320  17.782  0.2829  2.2617 -1.1686
 1355TIP3   OH228259   2.668   6.393  18.565  0.7526 -0.0940  0.2272
 1355TIP3    H128260   2.608   6.324  18.594  0.6806 -0.1828 -0.1245
 1355TIP3    H228261   2.623   6.475  18.584  0.9165 -0.1365  0.8216
 1356TIP3   OH228262   2.484   0.291  17.428 -0.2721  0.5224 -0.2518
 1356TIP3    H128263   2.513   0.382  17.436 -1.4444  0.8008  1.7056
 1356TIP3    H228264   2.544   0.251  17.366  2.4504  1.7540  1.4211
 1357TIP3   OH228265   3.493   5.004  18.709  0.1580  0.9592  0.3099
 1357TIP3    H128266   3.523   4.995  18.800  0.9751  0.4053  0.0013
 1357TIP3    H228267   3.554   5.068  18.671  1.1923 -0.4053 -0.4101
 1358TIP3   OH228268   4.337   4.141  18.992  0.0738  0.8171 -0.3481
 1358TIP3    H128269   4.385   4.224  18.985  0.3933  0.6758  0.1965
 1358TIP3    H228270   4.251   4.161  18.955  0.7782  0.8705 -2.0527
 1359TIP3   OH228271   4.812   1.880  19.884 -0.2136  0.3286  0.2698
 1359TIP3    H128272   4.842   1.793  19.908  0.7267 -0.2995 -2.7273
 1359TIP3    H228273   4.717   1.875  19.885 -0.1971 -0.0750  2.1139
 1360TIP3   OH228274   3.495   3.275  19.823 -0.2009 -0.5806 -0.1538
 1360TIP3    H128275   3.536   3.349  19.779  0.1593 -0.8353 -0.2476
 1360TIP3    H228276   3.553   3.201  19.805 -0.5712 -0.8899 -0.0778
 1361TIP3   OH228277   6.577   6.248  20.262  0.0840  0.7462 -0.2059
 1361TIP3    H128278   6.521   6.287  20.329 -0.7728 -1.1670  0.2391
 1361TIP3    H228279   6.651   6.308  20.256  0.0152  1.1863  2.2053
 1362TIP3   OH228280   3.935   5.909  20.001 -0.0231  0.5910  0.1423
 1362TIP3    H128281   3.887   5.981  19.960  1.3276  0.7594 -1.2375
 1362TIP3    H228282   3.918   5.834  19.944  0.5642  0.4234  0.1805
 1363TIP3   OH228283   2.580   0.638  17.926 -0.5148  0.2236  0.6741
 1363TIP3    H128284   2.673   0.645  17.903 -0.6601  1.1791  0.3022
 1363TIP3    H228285   2.578   0.650  18.021 -0.3168  1.0970  0.5829
 1364TIP3   OH228286   5.715   3.015  17.651  0.0861 -0.3882 -0.5663
 1364TIP3    H128287   5.788   3.049  17.599 -0.8525  0.8237 -1.1422
 1364TIP3    H228288   5.682   2.941  17.601  0.7731 -0.8151 -0.4031
 1365TIP3   OH228289   6.218   0.409  17.340  0.5103 -0.2297  0.0836
 1365TIP3    H128290   6.304   0.413  17.299  1.2409  0.4083  1.5838
 1365TIP3    H228291   6.212   0.319  17.375  0.0755 -0.6295 -0.9897
 1366TIP3   OH228292   2.159   5.765  20.045  0.0022 -0.1623 -0.6721
 1366TIP3    H128293   2.183   5.709  20.119 -0.0113 -0.6681 -1.0512
 1366TIP3    H228294   2.121   5.843  20.086 -0.7312 -0.7766 -0.1639
 1367TIP3   OH228295   4.593   1.751  20.207  0.3796  0.2179  0.1755
 1367TIP3    H128296   4.510   1.730  20.251  0.5089  1.3281  0.9858
 1367TIP3    H228297   4.655   1.686  20.241 -0.0489 -0.3628 -0.1262
 1368TIP3   OH228298   3.584   0.720  17.490 -0.5842  0.3614  0.1218
 1368TIP3    H128299   3.673   0.722  17.455 -1.0772  0.7694 -1.1589
 1368TIP3    H228300   3.543   0.801  17.459 -1.2807  0.3849  1.0410
 1369TIP3   OH228301   5.162   2.764  18.230  0.6067 -0.0634 -0.1473
 1369TIP3    H128302   5.210   2.845  18.214 -2.0169  1.5833 -0.2719
 1369TIP3    H228303   5.161   2.755  18.326 -1.2671  1.5629  0.0465
 1370TIP3   OH228304   3.654   1.637  19.741 -0.3390 -0.0873  0.3186
 1370TIP3    H128305   3.599   1.593  19.805  0.6214  1.1930  2.1124
 1370TIP3    H228306   3.618   1.726  19.735  1.8584  1.0174  2.1067
 1371TIP3   OH228307   0.122   3.756  20.354  0.1516  0.1950  0.2560
 1371TIP3    H128308   0.163   3.841  20.369 -2.0571  1.4899 -0.5108
 1371TIP3    H228309   0.145   3.734  20.264 -0.3193  0.6587  0.0095
 1372TIP3   OH228310   1.926   4.191  19.335 -0.1684 -0.0328  0.2955
 1372TIP3    H128311   1.966   4.277  19.343 -0.5258  0.2570 -0.8537
 1372TIP3    H228312   1.878   4.179  19.417 -1.3117  1.4946 -0.1012
 1373TIP3   OH228313   1.582   6.323  18.171 -0.4611 -0.4711  0.4855
 1373TIP3    H128314   1.643   6.317  18.097 -1.0095  3.0043 -0.4588
 1373TIP3    H228315   1.496   6.332  18.129 -1.0334 -0.5721  1.6190
 1374TIP3   OH228316   5.073   5.627  19.314 -0.2373  0.2844 -0.0640
 1374TIP3    H128317   5.015   5.628  19.238 -0.6369  1.0929  0.2449
 1374TIP3    H228318   5.019   5.662  19.385  0.7077  1.3203  0.1616
 1375TIP3   OH228319   6.117   2.702  17.897 -0.2540  0.0588  0.2889
 1375TIP3    H128320   6.209   2.727  17.886 -0.1982  1.0188  2.3960
 1375TIP3    H228321   6.107   2.688  17.991 -2.2653 -0.0265  0.1172
 1376TIP3   OH228322   0.037   0.639  19.056  0.1459  0.3128 -0.4782
 1376TIP3    H128323  -0.058   0.643  19.063  0.1721  0.2869 -0.0898
 1376TIP3    H228324   0.056   0.552  19.021  0.1513 -0.6863  1.8301
 1377TIP3   OH228325   2.562   5.524  17.611 -0.8125 -0.4704 -0.1413
 1377TIP3    H128326   2.477   5.487  17.633 -1.1454  1.1510  1.5970
 1377TIP3    H228327   2.604   5.539  17.696  0.8171 -0.3721 -0.9325
 1378TIP3   OH228328   6.258   0.364  20.251  0.0765 -0.1046  0.0658
 1378TIP3    H128329   6.302   0.412  20.321 -0.2638 -1.6856  1.4408
 1378TIP3    H228330   6.295   0.399  20.170  1.3446  0.9730  1.0726
 1379TIP3   OH228331   0.990   1.697  18.063  0.2416  0.7177 -0.2869
 1379TIP3    H128332   1.048   1.689  17.987 -0.2354 -0.5790 -0.5333
 1379TIP3    H228333   1.003   1.787  18.093  2.0856  0.5812 -0.5653
 1380TIP3   OH228334   2.620   6.662  18.377  0.2358 -0.1118 -0.8479
 1380TIP3    H128335   2.563   6.737  18.392 -0.8558 -0.4687 -2.7815
 1380TIP3    H228336   2.699   6.681  18.427 -0.7349  1.4288  0.1883
 1381TIP3   OH228337   0.849   4.759  17.899  0.0163 -0.0799 -0.2795
 1381TIP3    H128338   0.771   4.784  17.948 -0.4757  1.3830 -1.7014
 1381TIP3    H228339   0.912   4.732  17.967 -1.0008  0.7416  1.0548
 1382TIP3   OH228340   2.186   1.488  19.540 -0.3511 -0.2134  0.1363
 1382TIP3    H128341   2.278   1.501  19.519 -0.1853 -0.1149  0.9019
 1382TIP3    H228342   2.178   1.514  19.632 -1.5082  1.5457 -0.4152
 1383TIP3   OH228343   0.750   5.300  20.158  0.4844 -0.3390 -0.1405
 1383TIP3    H128344   0.692   5.223  20.153  0.8234 -0.7389  1.5380
 1383TIP3    H228345   0.693   5.370  20.189  0.9051 -0.8171  1.8609
 1384TIP3   OH228346   4.815   1.741  18.491 -0.3388  0.3046 -0.2385
 1384TIP3    H128347   4.907   1.716  18.496  0.7058  3.6982  0.3498
 1384TIP3    H228348   4.792   1.731  18.398  1.0555  0.6562 -0.6374
 1385TIP3   OH228349   1.266   6.061  17.431 -0.2051  0.3756  0.3649
 1385TIP3    H128350   1.250   6.081  17.339  0.7772  0.0560  0.1059
 1385TIP3    H228351   1.180   6.039  17.467 -0.3168 -1.6283 -1.0050
 1386TIP3   OH228352   1.141   1.085  16.820 -0.2906  0.4202  0.2808
 1386TIP3    H128353   1.217   1.143  16.824  0.3439 -0.3168 -0.6377
 1386TIP3    H228354   1.172   1.008  16.772 -1.1228 -0.6828  1.4364
 1387TIP3   OH228355   1.134   4.208  20.085 -0.1589  0.7186  0.0298
 1387TIP3    H128356   1.135   4.120  20.047  1.6325  1.1592 -1.0353
 1387TIP3    H228357   1.121   4.194  20.178  1.1315 -0.7488  0.0127
 1388TIP3   OH228358   0.792   2.287  19.943  0.0603  0.1981 -0.8683
 1388TIP3    H128359   0.790   2.370  19.896  0.3822  1.1028  0.6320
 1388TIP3    H228360   0.756   2.308  20.029 -0.7629 -1.4504 -0.7731
 1389TIP3   OH228361   2.239   5.583  17.158  0.2491  0.1219  0.1185
 1389TIP3    H128362   2.278   5.646  17.219  2.8873 -0.2146 -1.0881
 1389TIP3    H228363   2.242   5.499  17.204 -0.6220  0.3610  0.6393
 1390TIP3   OH228364   1.676   0.586  18.668 -0.4660 -0.5699  0.1484
 1390TIP3    H128365   1.612   0.606  18.599 -0.4983 -0.5240  0.1925
 1390TIP3    H228366   1.628   0.602  18.750  0.4815  2.3845  0.2250
 1391TIP3   OH228367   4.917   5.634  19.086 -0.0063 -0.0845 -0.1536
 1391TIP3    H128368   4.884   5.559  19.038  0.9006  0.2761 -1.3934
 1391TIP3    H228369   4.994   5.663  19.037  0.3243  0.9708  0.9149
 1392TIP3   OH228370   5.023   2.173  18.815  0.1209 -0.2438  0.1389
 1392TIP3    H128371   5.082   2.118  18.867  0.3074 -0.9511 -0.8023
 1392TIP3    H228372   4.978   2.227  18.880 -0.3086 -1.7253  1.1264
 1393TIP3   OH228373   2.770   0.018  16.511  0.7306 -0.5292 -0.2494
 1393TIP3    H128374   2.677   0.009  16.532  0.7002 -0.6033 -0.4146
 1393TIP3    H228375   2.776   0.101  16.464  0.9625  0.1832  0.9953
 1394TIP3   OH228376   0.551   3.488  20.483  0.4674 -0.7954 -0.5400
 1394TIP3    H128377   0.479   3.426  20.482 -0.6053  0.2898  1.6189
 1394TIP3    H228378   0.550   3.529  20.397 -2.0112 -0.3057 -0.3367
 1395TIP3   OH228379   0.937   4.768  18.794  0.1699  0.0708  0.0943
 1395TIP3    H128380   1.032   4.767  18.780  0.3744 -1.4002  1.2678
 1395TIP3    H228381   0.922   4.848  18.844  0.9882 -0.2558  0.9089
 1396TIP3   OH228382   0.689   1.613  18.374  1.0852 -0.5324 -0.0846
 1396TIP3    H128383   0.667   1.630  18.283 -1.5319 -1.6488  0.2479
 1396TIP3    H228384   0.772   1.566  18.370  1.8253  0.7786 -1.7374
 1397TIP3   OH228385   2.342   4.393  19.275  0.4855  0.3816 -0.1464
 1397TIP3    H128386   2.302   4.316  19.235 -0.1034 -0.1906  1.4476
 1397TIP3    H228387   2.398   4.430  19.207  0.3788 -1.1578 -1.1067
 1398TIP3   OH228388   0.662   3.286  19.625 -0.4458 -0.3146 -0.6797
 1398TIP3    H128389   0.624   3.249  19.705  1.0761  1.0774  0.7589
 1398TIP3    H228390   0.602   3.357  19.601 -0.1066  0.2530  0.1232
 1399TIP3   OH228391   3.897   2.046  17.300 -0.4450 -0.1435 -0.0849
 1399TIP3    H128392   3.809   2.079  17.320 -0.5599 -0.9916  0.8831
 1399TIP3    H228393   3.882   1.969  17.244 -0.1709  1.4548 -2.5263
 1400TIP3   OH228394   1.538   4.201  19.712  0.0394  0.1073 -0.2573
 1400TIP3    H128395   1.549   4.134  19.781  0.4218  1.2869  0.8707
 1400TIP3    H228396   1.589   4.276  19.743 -1.1325  1.2700 -1.0321
 1401TIP3   OH228397   3.318   0.643  18.308 -0.2812  0.1050  0.6575
 1401TIP3    H128398   3.282   0.574  18.365  0.5301 -0.4086  0.5627
 1401TIP3    H228399   3.307   0.724  18.357  1.0384 -0.4095  1.8657
 1402TIP3   OH228400   6.144   5.269  18.591 -0.4292  0.1746  0.2995
 1402TIP3    H128401   6.139   5.361  18.615 -1.8247  0.4018 -0.7701
 1402TIP3    H228402   6.107   5.222  18.665  1.8306  0.2826  1.6039
 1403TIP3   OH228403   4.964   2.442  17.096 -0.2457 -0.0567 -0.0107
 1403TIP3    H128404   5.037   2.451  17.035  0.4696  0.9840  0.9776
 1403TIP3    H228405   4.970   2.352  17.128 -1.2215 -0.9558 -2.1741
 1404TIP3   OH228406   5.063   5.071  20.311  0.0796  0.7300 -0.5205
 1404TIP3    H128407   5.133   5.136  20.314  0.2092  0.5359  1.2223
 1404TIP3    H228408   4.985   5.122  20.288  0.0291  1.7045  1.5755
 1405TIP3   OH228409   4.656   0.236  19.956  0.4884  0.1131  0.3999
 1405TIP3    H128410   4.688   0.320  19.991 -0.8217  0.6518  0.3502
 1405TIP3    H228411   4.678   0.173  20.025  1.8879  0.3935  0.2500
 1406TIP3   OH228412   5.702   1.584  17.121  0.0991 -0.0755 -0.3299
 1406TIP3    H128413   5.656   1.663  17.093 -0.2802 -0.0129  0.4637
 1406TIP3    H228414   5.652   1.512  17.084  0.1826  0.0377 -0.6655
 1407TIP3   OH228415   2.602   4.779  17.933 -0.4696  0.1704 -0.1485
 1407TIP3    H128416   2.574   4.692  17.962 -0.2632  0.9190  2.5307
 1407TIP3    H228417   2.685   4.794  17.977 -0.7836  1.9456 -0.0838
 1408TIP3   OH228418   3.198   4.861  19.172  0.5527  0.2202  0.6626
 1408TIP3    H128419   3.187   4.943  19.125  2.2165  1.3774  2.1247
 1408TIP3    H228420   3.289   4.835  19.156 -0.2312 -2.0004 -0.6834
 1409TIP3   OH228421   0.558   5.486  19.846  0.0648  0.9355 -0.3808
 1409TIP3    H128422   0.552   5.423  19.774 -1.0026  1.1304 -0.4823
 1409TIP3    H228423   0.489   5.459  19.907  1.9225 -0.1612  1.3559
 1410TIP3   OH228424   0.660   2.857  19.979  0.0773 -0.2690 -0.9908
 1410TIP3    H128425   0.623   2.859  20.067 -0.5536  1.4964 -1.2485
 1410TIP3    H228426   0.634   2.772  19.944  1.3590 -1.5159  0.8938
 1411TIP3   OH228427   1.961   5.414  18.273  0.0708  0.2408 -0.2868
 1411TIP3    H128428   1.925   5.463  18.347 -0.7797 -1.3832  0.4258
 1411TIP3    H228429   1.987   5.330  18.311  0.1007 -0.4342 -1.7421
 1412TIP3   OH228430   2.450   5.160  17.704 -0.3097  0.3361 -0.4430
 1412TIP3    H128431   2.365   5.176  17.663 -0.7842 -0.4892  0.1814
 1412TIP3    H228432   2.434   5.088  17.766  0.4127  1.4096  1.0525
 1413TIP3   OH228433   5.548   3.208  19.126 -0.2130 -0.1743  0.0631
 1413TIP3    H128434   5.575   3.116  19.123 -1.3469 -0.5284 -0.0124
 1413TIP3    H228435   5.452   3.204  19.132 -0.2203  1.0005  0.9827
 1414TIP3   OH228436   3.909   3.016  18.599  0.2481 -0.4941  0.0371
 1414TIP3    H128437   3.968   2.948  18.565  0.9173  0.5575 -0.9708
 1414TIP3    H228438   3.887   3.069  18.523 -1.6852 -0.5867  0.4779
 1415TIP3   OH228439   1.463   0.974  18.357 -0.2677 -0.3577  0.0787
 1415TIP3    H128440   1.514   0.902  18.319 -0.8615 -1.2114  0.8501
 1415TIP3    H228441   1.528   1.043  18.373  0.4809 -1.0588  0.1630
 1416TIP3   OH228442   5.046   4.921  20.546 -0.1410  0.3697 -0.3848
 1416TIP3    H128443   5.128   4.874  20.531 -0.0368  0.8610 -1.4584
 1416TIP3    H228444   5.042   4.985  20.475 -1.8542 -0.1736 -0.8224
 1417TIP3   OH228445   3.494   1.345  17.929  0.9435 -0.3863 -0.0478
 1417TIP3    H128446   3.409   1.314  17.958  1.4653 -0.9360  0.9443
 1417TIP3    H228447   3.539   1.266  17.899  1.0205 -0.0641 -0.7996
 1418TIP3   OH228448   6.252   1.984  19.922 -0.3349 -0.4753 -0.2187
 1418TIP3    H128449   6.227   2.069  19.959  0.4582 -0.1850 -0.3179
 1418TIP3    H228450   6.178   1.959  19.867 -0.1709  0.6419 -0.9882
 1419TIP3   OH228451   1.995   0.670  17.646 -0.0634  0.0399  0.2155
 1419TIP3    H128452   2.062   0.731  17.679  0.6261 -1.2077  1.2125
 1419TIP3    H228453   1.959   0.631  17.725 -1.7765  0.4487 -0.3315
 1420TIP3   OH228454   1.072   3.734  18.412 -0.4162 -0.2469  0.2753
 1420TIP3    H128455   1.036   3.651  18.379  2.2450 -0.9608 -1.2182
 1420TIP3    H228456   1.133   3.707  18.481  0.9655  0.3439 -0.6718
 1421TIP3   OH228457   0.805   4.571  19.244  0.5065 -0.1646 -0.1261
 1421TIP3    H128458   0.814   4.481  19.276  1.6639  0.4387  1.3666
 1421TIP3    H228459   0.809   4.563  19.149 -0.1875 -1.7552 -0.0569
 1422TIP3   OH228460   5.758   5.263  18.306  0.3186  0.2731  0.1697
 1422TIP3    H128461   5.810   5.183  18.305  2.4877  1.6044 -0.4467
 1422TIP3    H228462   5.810   5.326  18.255 -1.0670  2.2093  1.0361
 1423TIP3   OH228463   6.066   0.066  18.353 -0.7740 -0.1051  0.0355
 1423TIP3    H128464   6.032   0.126  18.419 -1.6121  0.8978 -1.2455
 1423TIP3    H228465   6.061   0.116  18.271  0.2575 -1.2906 -0.7885
 1424TIP3   OH228466   1.258   1.854  18.628  0.4675  0.0010 -0.2363
 1424TIP3    H128467   1.326   1.798  18.666 -0.0677 -1.2941 -1.1337
 1424TIP3    H228468   1.306   1.915  18.572  1.0250  0.2868  0.5253
 1425TIP3   OH228469   6.162   4.458  17.967  0.0983 -0.0214  0.6379
 1425TIP3    H128470   6.118   4.511  18.033  0.7592  0.0359  1.0386
 1425TIP3    H228471   6.135   4.496  17.884 -0.2115  0.3219  0.8914
 1426TIP3   OH228472   5.418   1.482  17.388 -0.0979  0.2277  0.6774
 1426TIP3    H128473   5.366   1.404  17.367  0.7802 -0.1878 -0.0146
 1426TIP3    H228474   5.475   1.455  17.459  2.1055 -0.6447 -1.2891
 1427TIP3   OH228475   3.435   5.364  18.239  0.2433 -0.1624  0.5149
 1427TIP3    H128476   3.496   5.371  18.166 -0.5056 -0.2953 -0.1307
 1427TIP3    H228477   3.447   5.445  18.288  0.4167  0.1374 -0.0190
 1428TIP3   OH228478   6.378   6.035  18.710  0.2438  0.3940  0.1657
 1428TIP3    H128479   6.293   6.004  18.740  0.4880  0.1806  0.6388
 1428TIP3    H228480   6.435   5.958  18.716  0.9069  0.9710  1.5375
 1429TIP3   OH228481   1.562   1.738  16.664 -0.2643  0.0552  0.5617
 1429TIP3    H128482   1.634   1.735  16.602 -1.0062 -0.5569 -0.2940
 1429TIP3    H228483   1.598   1.701  16.745  0.3654 -0.2817  0.1316
 1430TIP3   OH228484   4.043   2.338  19.419 -0.5405  0.2243  0.2775
 1430TIP3    H128485   4.073   2.275  19.354  0.8180 -0.2732  1.3220
 1430TIP3    H228486   4.107   2.410  19.413 -2.4051  1.8572 -1.3188
 1431TIP3   OH228487   0.877   1.429  16.826  0.2198  0.0663  0.3131
 1431TIP3    H128488   0.949   1.452  16.768  1.4208  1.2406  2.1581
 1431TIP3    H228489   0.801   1.475  16.790  1.0782  1.2936  0.0140
 1432TIP3   OH228490   1.795   6.009  18.963  0.1465  0.0003  0.1471
 1432TIP3    H128491   1.760   6.092  18.932  1.7982  0.4749 -0.5586
 1432TIP3    H228492   1.734   5.943  18.928 -0.4171  0.8145 -0.4551
 1433TIP3   OH228493   0.971   4.736  17.293  0.5332 -0.3223  0.9189
 1433TIP3    H128494   0.986   4.642  17.296 -0.1321 -0.4097  1.7092
 1433TIP3    H228495   0.985   4.766  17.382  3.2992  0.7629  0.2093
 1434TIP3   OH228496   4.773   5.112  19.288  0.2801 -0.0702  0.6902
 1434TIP3    H128497   4.737   5.200  19.275  0.8864  0.0500 -0.2347
 1434TIP3    H228498   4.867   5.125  19.293  0.4179 -0.7202 -0.0125
 1435TIP3   OH228499   5.721   5.734  19.392 -0.3165  0.5784  0.3806
 1435TIP3    H128500   5.727   5.778  19.307 -1.7455 -0.7817 -0.4698
 1435TIP3    H228501   5.696   5.644  19.371 -0.8028  0.2342  2.2468
 1436TIP3   OH228502   3.443   2.009  18.950 -0.3079 -0.5267  0.2435
 1436TIP3    H128503   3.440   1.918  18.978 -0.8907 -0.9150 -0.9963
 1436TIP3    H228504   3.356   2.027  18.915  0.8137 -0.7311 -3.0633
 1437TIP3   OH228505   1.322   2.292  17.855  0.1170 -0.1016  0.4117
 1437TIP3    H128506   1.233   2.258  17.845  0.3350 -0.2540 -1.1788
 1437TIP3    H228507   1.344   2.272  17.946 -1.7208  0.5796  1.0626
 1438TIP3   OH228508   0.863   0.287  19.689 -0.0973  0.6440  0.1532
 1438TIP3    H128509   0.809   0.236  19.749  0.2200  1.1046  0.8443
 1438TIP3    H228510   0.822   0.274  19.603 -0.3085 -0.3560  0.3978
 1439TIP3   OH228511   4.072   5.223  19.332 -0.2720  0.4786 -0.0650
 1439TIP3    H128512   4.150   5.248  19.381  0.2915 -1.3024  0.0185
 1439TIP3    H228513   4.057   5.131  19.355 -1.9039  0.5321 -0.7408
 1440TIP3   OH228514   1.668   1.181  18.327  0.0899  0.5474 -0.4583
 1440TIP3    H128515   1.692   1.123  18.255 -0.5583 -0.6002  0.2304
 1440TIP3    H228516   1.730   1.159  18.397 -0.4679  0.3130 -0.0242
 1441TIP3   OH228517   6.161   2.733  19.317 -0.2858 -0.3070  0.4451
 1441TIP3    H128518   6.154   2.732  19.412 -1.5524 -2.0177  0.3865
 1441TIP3    H228519   6.153   2.825  19.292 -1.3344  0.0196  1.9014
 1442TIP3   OH228520   6.507   2.114  19.204  0.4422 -0.4899 -0.1272
 1442TIP3    H128521   6.422   2.130  19.246  1.0493  1.1353  0.5324
 1442TIP3    H228522   6.561   2.188  19.230  1.8463 -1.1174 -1.1626
 1443TIP3   OH228523   2.361   5.723  17.344 -0.0519  0.1041  0.1298
 1443TIP3    H128524   2.306   5.699  17.419  1.4051  0.1098  1.2283
 1443TIP3    H228525   2.409   5.800  17.373  0.7432 -0.0593 -0.7103
 1444TIP3   OH228526   6.106   2.167  19.524 -0.1243 -0.4742 -0.0150
 1444TIP3    H128527   6.183   2.110  19.522 -0.3724 -0.8064 -0.4184
 1444TIP3    H228528   6.135   2.248  19.482  0.2726 -0.2478  0.6897
 1445TIP3   OH228529   4.257   5.793  19.820 -0.2771  0.2905 -0.1498
 1445TIP3    H128530   4.294   5.706  19.839 -0.7817  0.1651  0.3034
 1445TIP3    H228531   4.329   5.842  19.781 -0.0685 -0.4236 -0.6733
 1446TIP3   OH228532   6.259   6.579  19.073 -0.1644  0.1374  0.0592
 1446TIP3    H128533   6.222   6.611  18.992 -0.5214  0.8984  0.5149
 1446TIP3    H228534   6.186   6.534  19.117 -0.8799  2.4202  1.3803
 1447TIP3   OH228535   1.769   3.394  17.547 -0.8635 -0.3125  0.6628
 1447TIP3    H128536   1.863   3.381  17.559 -0.3918  2.4845  0.6772
 1447TIP3    H228537   1.753   3.371  17.456 -0.3623 -1.6125  0.8783
 1448TIP3   OH228538   4.715   5.732  18.137 -0.3707  0.5856  0.4485
 1448TIP3    H128539   4.767   5.655  18.112 -0.8147  0.5055 -0.2510
 1448TIP3    H228540   4.636   5.726  18.083 -0.5317  1.3860  0.5842
 1449TIP3   OH228541   3.767   4.212  19.543 -0.5260  0.2480 -0.4018
 1449TIP3    H128542   3.860   4.237  19.540 -0.2979 -0.6176 -1.0492
 1449TIP3    H228543   3.747   4.206  19.636  0.2252 -0.0854 -0.2482
 1450TIP3   OH228544   5.297   2.293  17.465 -0.2447 -0.4748 -0.0687
 1450TIP3    H128545   5.278   2.230  17.395 -1.7359  0.5706 -0.6780
 1450TIP3    H228546   5.214   2.340  17.477  0.8067  1.4056  0.3011
 1451TIP3   OH228547   6.515   3.867  19.708  0.3059  0.1073 -0.2264
 1451TIP3    H128548   6.420   3.880  19.703  0.1617 -1.1819 -1.8156
 1451TIP3    H228549   6.525   3.772  19.716  1.4678  0.2591  0.2663
 1452TIP3   OH228550   3.152   6.366  20.096 -0.7098  0.5416  0.2503
 1452TIP3    H128551   3.089   6.374  20.025 -0.0073  1.0504 -0.3276
 1452TIP3    H228552   3.238   6.361  20.053 -0.0987  2.6616  1.0643
 1453TIP3   OH228553   5.560   2.421  17.971  0.3085 -0.0762 -0.3066
 1453TIP3    H128554   5.613   2.497  17.995  0.6611 -0.5550  0.4679
 1453TIP3    H228555   5.474   2.458  17.951  0.9282  0.7170 -1.6492
 1454TIP3   OH228556   6.679   5.994  20.288  0.5542  0.1204  0.0513
 1454TIP3    H128557   6.767   6.025  20.308 -0.4828  2.0636  1.9401
 1454TIP3    H228558   6.632   6.072  20.258 -0.6974 -0.7699 -0.4073
 1455TIP3   OH228559   4.931   6.654  17.471  0.2144 -0.1236 -0.1799
 1455TIP3    H128560   4.944   6.740  17.431  1.1594 -0.6910 -1.1390
 1455TIP3    H228561   4.843   6.658  17.508  0.2684  1.2758 -0.1365
 1456TIP3   OH228562   5.534   0.027  18.352 -0.3002  0.5770 -0.3977
 1456TIP3    H128563   5.486  -0.039  18.303  0.9549  0.0664 -0.9661
 1456TIP3    H228564   5.484   0.108  18.339 -2.6532 -0.4456  1.4316
 1457TIP3   OH228565   4.263   2.743  18.882  0.0666  0.1131 -0.0967
 1457TIP3    H128566   4.317   2.785  18.948  0.0427 -1.5424  1.0538
 1457TIP3    H228567   4.175   2.741  18.921  0.0089 -0.6714 -0.2365
 1458TIP3   OH228568   3.145   6.258  19.133 -0.0235  0.1768  0.1653
 1458TIP3    H128569   3.205   6.211  19.191  1.0808 -1.3695 -2.0792
 1458TIP3    H228570   3.201   6.320  19.085 -0.2818 -0.7867 -1.4548
 1459TIP3   OH228571   3.289   4.814  17.353  0.0246 -0.2157  0.0498
 1459TIP3    H128572   3.234   4.745  17.316  2.2959 -2.3148  0.2774
 1459TIP3    H228573   3.299   4.878  17.282 -0.9465 -0.8667 -0.7026
 1460TIP3   OH228574   4.521   3.198  18.617 -0.1512  0.2535  0.0291
 1460TIP3    H128575   4.611   3.179  18.644  0.5646  2.2663 -0.7790
 1460TIP3    H228576   4.477   3.227  18.697 -0.0309 -0.5136  0.3804
 1461TIP3   OH228577   2.527   0.917  19.172  0.7947 -0.1846  0.5729
 1461TIP3    H128578   2.589   0.850  19.203 -0.3576 -1.2393  0.6531
 1461TIP3    H228579   2.441   0.878  19.185  0.1751  0.1522 -2.0679
 1462TIP3   OH228580   6.203   4.404  17.351 -1.0841  0.0291  0.2794
 1462TIP3    H128581   6.152   4.486  17.358 -1.0061  0.0810  0.2379
 1462TIP3    H228582   6.142   4.342  17.311 -1.6697 -0.3880  1.7493
 1463TIP3   OH228583   5.438   5.037  17.386 -0.3123  0.3002 -0.4388
 1463TIP3    H128584   5.351   5.075  17.374 -1.3219 -2.0882 -1.2835
 1463TIP3    H228585   5.439   5.007  17.477 -0.4424  0.1687 -0.4803
 1464TIP3   OH228586   6.134   2.525  18.622  0.1055  0.4746 -0.0403
 1464TIP3    H128587   6.128   2.467  18.698  1.4983  1.0434  0.5448
 1464TIP3    H228588   6.217   2.501  18.580 -0.5150  0.3484 -1.2574
 1465TIP3   OH228589   6.156   3.018  17.766 -0.0756  0.0313  0.6752
 1465TIP3    H128590   6.235   3.005  17.818  0.0067  0.4173  0.6459
 1465TIP3    H228591   6.085   3.021  17.830 -0.1325 -0.7926  0.6734
 1466TIP3   OH228592   2.041   3.871  20.076 -0.2759 -0.2342  0.2128
 1466TIP3    H128593   2.112   3.885  20.137 -0.8689  1.2215  0.6107
 1466TIP3    H228594   1.966   3.847  20.130 -0.6021  0.2730 -0.0008
 1467TIP3   OH228595   1.061   5.154  16.737 -0.0596 -0.0763  0.2982
 1467TIP3    H128596   0.984   5.173  16.683  0.3737  0.3054 -0.2077
 1467TIP3    H228597   1.053   5.061  16.758 -1.0881  0.1429  0.9599
 1468TIP3   OH228598   5.970   1.342  18.300 -0.1700  0.6377 -0.1908
 1468TIP3    H128599   5.911   1.408  18.262 -0.4357  0.5441  0.0549
 1468TIP3    H228600   5.966   1.358  18.394  2.9493  2.9895 -0.2740
 1469TIP3   OH228601   3.294   3.735  18.545  0.6247 -0.0197  0.0006
 1469TIP3    H128602   3.201   3.716  18.534  1.0645 -1.5469 -1.5540
 1469TIP3    H228603   3.316   3.789  18.468  1.2057 -0.4502 -0.1407
 1470TIP3   OH228604   1.445   3.771  19.525  0.4642  0.0107  0.7193
 1470TIP3    H128605   1.437   3.824  19.445  1.9430 -2.2503 -1.0603
 1470TIP3    H228606   1.363   3.721  19.529 -0.2940  1.2564  1.5777
 1471TIP3   OH228607   5.148   0.555  16.793  0.2983 -0.3098  0.2103
 1471TIP3    H128608   5.073   0.524  16.843 -0.5621  0.3558 -0.6421
 1471TIP3    H228609   5.116   0.567  16.704  1.0461  1.2728  0.1112
 1472TIP3   OH228610   3.939   2.435  20.089  0.2725 -0.0058  0.0807
 1472TIP3    H128611   4.017   2.379  20.091  0.7421  0.6269 -0.3618
 1472TIP3    H228612   3.972   2.523  20.074 -0.5227  0.2881 -0.0285
 1473TIP3   OH228613   2.264   5.350  19.010  0.5249  0.6328 -0.0647
 1473TIP3    H128614   2.299   5.350  19.099  0.8940 -0.0898 -0.1984
 1473TIP3    H228615   2.337   5.378  18.955  0.8573 -0.6733 -0.3223
 1474TIP3   OH228616   5.519   4.734  20.341 -0.3686  0.5261 -0.3433
 1474TIP3    H128617   5.614   4.733  20.351 -0.3515  2.1105  0.0400
 1474TIP3    H228618   5.503   4.699  20.253  0.6648  1.2813 -0.8555
 1475TIP3   OH228619   3.201   5.767  19.313  0.1417  0.1913  0.2223
 1475TIP3    H128620   3.268   5.758  19.380  0.2373 -0.8753  0.0085
 1475TIP3    H228621   3.241   5.730  19.234  0.4598  2.4609 -0.7574
 1476TIP3   OH228622   0.096   3.824  19.617  0.0624  0.4944  0.4742
 1476TIP3    H128623   0.186   3.810  19.647 -0.2506  0.1919  1.3074
 1476TIP3    H228624   0.048   3.747  19.649 -1.2080  2.2055  3.0681
 1477TIP3   OH228625   2.825   1.830  18.305 -0.3883 -0.2479 -0.2462
 1477TIP3    H128626   2.775   1.751  18.327 -2.5058  1.1522  0.1682
 1477TIP3    H228627   2.870   1.853  18.387 -1.0566 -0.1199  0.0876
 1478TIP3   OH228628   6.409   2.561  19.226 -0.0209 -0.0623  0.2456
 1478TIP3    H128629   6.361   2.643  19.218  0.5727  0.4947  1.9128
 1478TIP3    H228630   6.490   2.585  19.273 -0.1774 -1.6983  1.4471
 1479TIP3   OH228631   0.488   5.838  18.101  0.8651 -0.7303  0.1513
 1479TIP3    H128632   0.521   5.778  18.034  1.6358  1.3347 -1.4276
 1479TIP3    H228633   0.399   5.860  18.071  0.4854 -1.2593  0.8627
 1480TIP3   OH228634   6.222   4.730  19.205 -0.6042  0.3155 -0.2770
 1480TIP3    H128635   6.175   4.760  19.282  1.1619 -1.8138  1.7868
 1480TIP3    H228636   6.234   4.636  19.219  1.5963  0.2329 -2.1179
 1481TIP3   OH228637   5.979   1.751  18.166 -0.1436 -0.2799  0.1141
 1481TIP3    H128638   6.064   1.733  18.126  0.7470  3.1709  0.1202
 1481TIP3    H228639   6.000   1.803  18.244 -2.2180 -0.6009  0.9547
 1482TIP3   OH228640   5.327   4.123  19.337  0.1332 -0.5335  0.1409
 1482TIP3    H128641   5.403   4.177  19.360  0.1136  0.6454 -2.2366
 1482TIP3    H228642   5.318   4.135  19.242 -2.6517 -1.1388  0.2636
 1483TIP3   OH228643   1.953   2.135  19.091  0.2254  0.1319  0.5165
 1483TIP3    H128644   1.886   2.068  19.107  1.7583 -1.3391  1.0621
 1483TIP3    H228645   1.932   2.169  19.004  0.3422 -2.2649 -0.5198
 1484TIP3   OH228646   3.698   5.680  20.017  0.3155  0.4447  0.2418
 1484TIP3    H128647   3.736   5.675  20.105 -1.4409  0.7156  1.0564
 1484TIP3    H228648   3.623   5.738  20.026 -0.0412  0.2956 -1.4019
 1485TIP3   OH228649   6.125   4.011  17.049  0.3440 -0.2520  0.2649
 1485TIP3    H128650   6.205   4.062  17.037  0.0603 -0.2144 -1.9086
 1485TIP3    H228651   6.055   4.070  17.025 -0.1475 -1.0304 -0.2704
 1486TIP3   OH228652   0.357   6.229  17.859  0.3924  0.0141 -0.3369
 1486TIP3    H128653   0.447   6.243  17.891  0.9278 -0.3330 -1.6370
 1486TIP3    H228654   0.302   6.257  17.932  1.5543 -0.7783  0.9166
 1487TIP3   OH228655   4.678   1.495  19.102 -0.4881 -0.0405  0.3932
 1487TIP3    H128656   4.653   1.403  19.109 -1.3156  0.1413 -0.0955
 1487TIP3    H228657   4.596   1.543  19.093 -0.1707  0.8949  1.9772
 1488TIP3   OH228658   5.444   5.163  18.970 -0.4089  0.3635  0.1771
 1488TIP3    H128659   5.530   5.200  18.950  1.1741 -2.6555  0.6998
 1488TIP3    H228660   5.395   5.170  18.889  1.6822 -1.0359 -1.3339
 1489TIP3   OH228661   3.153   5.385  18.138  0.5273 -0.5885 -0.4072
 1489TIP3    H128662   3.236   5.354  18.175  1.6819 -1.4392 -3.3977
 1489TIP3    H228663   3.086   5.332  18.182  1.5092 -0.0485  1.9035
 1490TIP3   OH228664   1.988   3.393  18.121 -0.2453 -0.2260 -0.4401
 1490TIP3    H128665   2.037   3.472  18.100 -0.0774 -0.2387 -0.0966
 1490TIP3    H228666   2.053   3.323  18.118 -0.2441 -0.2461 -0.0113
 1491TIP3   OH228667   1.587   0.607  17.280 -0.3516  0.6807  0.2753
 1491TIP3    H128668   1.548   0.555  17.209  2.1615 -0.5862 -0.2976
 1491TIP3    H228669   1.655   0.658  17.238  0.1762  1.0741  1.5517
 1492TIP3   OH228670   4.213   2.493  18.271  0.4722 -0.1790  0.2459
 1492TIP3    H128671   4.293   2.544  18.284  0.4513 -0.8728  4.0825
 1492TIP3    H228672   4.241   2.402  18.280 -0.3860 -0.6082 -1.0758
 1493TIP3   OH228673   0.404   4.763  18.170  0.0993  0.5937 -0.4927
 1493TIP3    H128674   0.399   4.859  18.166  0.6053  0.6214 -0.5168
 1493TIP3    H228675   0.476   4.745  18.229  0.2260  0.2258 -0.7527
 1494TIP3   OH228676   6.276   4.113  17.701 -0.1716 -0.4218 -0.0830
 1494TIP3    H128677   6.367   4.088  17.717  0.4101  2.0280  0.9714
 1494TIP3    H228678   6.240   4.130  17.788 -1.1734  0.0869 -0.5782
 1495TIP3   OH228679   4.770   5.871  18.844  0.1242  0.1546  0.4062
 1495TIP3    H128680   4.729   5.943  18.797 -0.9008 -1.0184 -0.5829
 1495TIP3    H228681   4.855   5.905  18.872 -0.3199  1.7163 -0.0323
 1496TIP3   OH228682   1.958   5.003  19.837 -0.1088 -0.1902  0.7857
 1496TIP3    H128683   2.008   4.923  19.852 -0.8763 -0.5908  1.2503
 1496TIP3    H228684   1.889   5.002  19.903 -0.6513  0.4230  0.2494
 1497TIP3   OH228685   5.127   6.015  18.438 -0.3210  0.0271  1.0313
 1497TIP3    H128686   5.096   5.925  18.424  0.6709 -0.1031 -0.6383
 1497TIP3    H228687   5.207   6.005  18.489 -0.2428 -0.0394  0.8974
 1498TIP3   OH228688   0.147   0.456  18.492  0.2958 -0.1045 -0.7238
 1498TIP3    H128689   0.094   0.528  18.458  0.2923 -0.1930 -0.9071
 1498TIP3    H228690   0.236   0.490  18.493  0.3548 -0.2397 -1.2106
 1499TIP3   OH228691   5.123   2.789  17.921  0.7807  0.4082  0.0863
 1499TIP3    H128692   5.112   2.750  18.008 -2.2828 -0.2845 -0.5072
 1499TIP3    H228693   5.199   2.744  17.884 -0.0582 -1.9660  1.0514
 1500TIP3   OH228694   4.940   3.827  18.425  0.0061  0.5722  0.2001
 1500TIP3    H128695   4.906   3.811  18.514 -0.6973  0.5720 -0.0619
 1500TIP3    H228696   5.034   3.815  18.433  0.0900  1.7233  1.2165
 1501TIP3   OH228697   2.133   1.201  18.656  0.0711 -0.0485  1.1190
 1501TIP3    H128698   2.226   1.187  18.636 -0.2692 -2.5058  0.8854
 1501TIP3    H228699   2.114   1.137  18.724 -1.3884  0.6625  1.4163
 1502TIP3   OH228700   5.669   1.274  18.468 -0.1453 -0.0727  0.2322
 1502TIP3    H128701   5.643   1.214  18.538  0.3382 -0.5904 -0.0194
 1502TIP3    H228702   5.756   1.305  18.494 -0.3970  0.5351  0.3637
 1503TIP3   OH228703   3.444   4.277  19.017 -0.0638  0.3174 -0.0718
 1503TIP3    H128704   3.493   4.346  19.062 -0.9941  0.7497  0.3063
 1503TIP3    H228705   3.477   4.195  19.054 -1.5254  0.6708  2.2176
 1504TIP3   OH228706   5.777   1.906  16.777  0.0309 -0.1056  0.3712
 1504TIP3    H128707   5.825   1.988  16.770  0.4229 -0.3564  0.1403
 1504TIP3    H228708   5.841   1.838  16.756 -0.4016 -0.4444  0.1294
 1505TIP3   OH228709   1.836   2.482  18.436  0.0996  0.1136  0.2082
 1505TIP3    H128710   1.884   2.524  18.508  0.2370  1.2820 -0.5361
 1505TIP3    H228711   1.793   2.555  18.391 -0.5690 -0.6835 -0.4652
 1506TIP3   OH228712   5.950   6.539  18.313 -0.5143  0.2262 -0.4044
 1506TIP3    H128713   6.020   6.476  18.300 -1.2048 -0.5649 -0.3740
 1506TIP3    H228714   5.994   6.624  18.314  0.4399 -0.2542 -0.3531
 1507TIP3   OH228715   2.848   2.109  19.195  0.1947  0.5557 -0.4803
 1507TIP3    H128716   2.936   2.074  19.204  0.4811  1.6985  3.0131
 1507TIP3    H228717   2.807   2.091  19.280 -2.0881  2.1608 -1.1366
 1508TIP3   OH228718   6.683   3.159  18.670 -0.0363 -0.5716  0.7121
 1508TIP3    H128719   6.764   3.112  18.688  0.5290  0.8435  2.0544
 1508TIP3    H228720   6.710   3.242  18.631 -0.9953 -1.0471 -1.1190
 1509TIP3   OH228721   3.085   2.702  18.084 -0.2656 -0.2026 -0.6090
 1509TIP3    H128722   3.057   2.742  18.167  0.6729 -1.2278  0.2320
 1509TIP3    H228723   3.077   2.773  18.020  1.0626  1.2769  0.7597
 1510TIP3   OH228724   2.351   4.340  20.065 -0.3512 -0.1502 -0.2155
 1510TIP3    H128725   2.367   4.395  20.142  0.0805 -2.0151  1.0922
 1510TIP3    H228726   2.438   4.330  20.025 -0.0877 -1.3111  0.5937
 1511TIP3   OH228727   6.665   2.139  18.711  0.1177 -0.1745 -0.1206
 1511TIP3    H128728   6.651   2.152  18.617  0.4809  1.6423  0.0455
 1511TIP3    H228729   6.719   2.213  18.738 -1.2461  0.1700  1.8247
 1512TIP3   OH228730   3.896   3.947  17.897 -0.1940  0.0125 -0.1811
 1512TIP3    H128731   3.853   3.904  17.971 -0.6610 -1.5571 -1.3085
 1512TIP3    H228732   3.827   3.956  17.831  0.4129  0.5887 -0.7505
 1513TIP3   OH228733   3.756   1.322  18.568  0.5237  0.8846 -0.0177
 1513TIP3    H128734   3.837   1.304  18.616  0.2027 -1.1972 -0.1402
 1513TIP3    H228735   3.686   1.310  18.633  0.1302 -1.2445 -0.7547
 1514TIP3   OH228736   2.673   3.265  18.118  0.0895  0.0881  0.2323
 1514TIP3    H128737   2.750   3.252  18.173  0.8442 -2.5644 -1.3031
 1514TIP3    H228738   2.610   3.309  18.176  1.4024 -1.0858  2.7329
 1515TIP3   OH228739   1.266   1.865  19.697 -0.1351 -0.1687 -0.0243
 1515TIP3    H128740   1.267   1.891  19.789 -0.9042  0.6362 -0.2282
 1515TIP3    H228741   1.243   1.772  19.699 -0.0106 -0.1950  0.5972
 1516TIP3   OH228742   2.082   5.424  19.257 -0.6014  0.0527 -0.2213
 1516TIP3    H128743   2.029   5.477  19.197  0.3124  1.1382 -0.0978
 1516TIP3    H228744   2.122   5.358  19.200  0.8952  1.5576 -1.0160
 1517TIP3   OH228745   6.715   0.130  19.175  0.1690 -0.5992 -0.0530
 1517TIP3    H128746   6.694   0.222  19.194 -1.4162 -1.1944  1.3223
 1517TIP3    H228747   6.663   0.109  19.097 -0.3484 -0.6343  0.2991
 1518TIP3   OH228748   6.241   5.517  18.046  0.2793  0.0671  0.3433
 1518TIP3    H128749   6.294   5.491  17.971  2.6636 -0.1003  1.9848
 1518TIP3    H228750   6.163   5.556  18.007  0.6170 -1.5507 -2.1952
 1519TIP3   OH228751   5.417   0.648  17.922 -0.4628  0.4947 -0.1470
 1519TIP3    H128752   5.333   0.676  17.886 -0.6704  2.0647  1.3824
 1519TIP3    H228753   5.396   0.619  18.011  0.4369 -0.3875 -0.2073
 1520TIP3   OH228754   2.311   6.155  19.152 -0.1045 -0.0470  0.1769
 1520TIP3    H128755   2.273   6.228  19.102 -0.5125  0.6429  1.4603
 1520TIP3    H228756   2.398   6.186  19.175  0.8402 -1.1360 -1.6998
 1521TIP3   OH228757   6.659   6.525  17.385 -0.2568  0.6153  0.0033
 1521TIP3    H128758   6.708   6.485  17.313  0.0160 -0.4978  0.7780
 1521TIP3    H228759   6.687   6.477  17.463  0.5869  2.7523  1.1054
 1522TIP3   OH228760   1.306   6.380  17.153  0.4586  0.1439 -0.1557
 1522TIP3    H128761   1.248   6.400  17.080  1.4815 -0.1520 -1.0813
 1522TIP3    H228762   1.271   6.300  17.191  0.8451 -0.6260 -1.3689
 1523TIP3   OH228763   4.438   2.660  19.984 -0.6274  0.1899 -0.1985
 1523TIP3    H128764   4.517   2.696  19.943 -0.4743  0.5647  0.4182
 1523TIP3    H228765   4.405   2.731  20.039 -1.2792 -0.0375 -0.2878
 1524TIP3   OH228766   6.011   0.352  19.001  0.8197 -0.1926  0.7213
 1524TIP3    H128767   5.923   0.386  18.985  0.5290 -1.0807  0.3754
 1524TIP3    H228768   6.046   0.407  19.070  0.0347  0.2536  0.7683
 1525TIP3   OH228769   1.633   1.879  19.728  0.5501 -0.1298  0.0689
 1525TIP3    H128770   1.704   1.816  19.742 -0.7957 -2.0986 -1.3360
 1525TIP3    H228771   1.586   1.845  19.651  0.3874  3.2404 -1.5212
 1526TIP3   OH228772   1.344   3.027  19.447  0.2995 -0.4779  0.0073
 1526TIP3    H128773   1.295   2.945  19.446  0.7164 -0.7333  0.0255
 1526TIP3    H228774   1.410   3.015  19.515 -0.6110  0.4643  1.0839
 1527TIP3   OH228775   1.972   4.545  18.930  0.7626  0.1622  0.2265
 1527TIP3    H128776   1.991   4.622  18.877  1.0846 -0.4825 -0.6174
 1527TIP3    H228777   1.945   4.580  19.015 -1.3752  1.2822 -0.8427
 1528TIP3   OH228778   5.351   4.256  18.454  0.0029 -0.2726 -0.8175
 1528TIP3    H128779   5.405   4.204  18.395 -0.1260  0.5928 -1.7233
 1528TIP3    H228780   5.405   4.333  18.474 -0.6762  0.3404 -1.3083
 1529TIP3   OH228781   1.272   0.752  19.329  0.0880 -0.2989  0.2232
 1529TIP3    H128782   1.351   0.747  19.381  0.6013  2.2313 -0.1872
 1529TIP3    H228783   1.211   0.691  19.371  0.4319  1.6083  3.8707
 1530TIP3   OH228784   2.841   2.599  18.447  0.2079  0.1970  0.0486
 1530TIP3    H128785   2.931   2.588  18.416  0.6503  1.4602  0.8242
 1530TIP3    H228786   2.845   2.574  18.540  0.4649  3.0225  0.8998
 1531TIP3   OH228787   0.564   0.596  17.741  0.2151 -0.2682 -0.7510
 1531TIP3    H128788   0.574   0.520  17.684 -3.2024 -1.7797  0.3784
 1531TIP3    H228789   0.501   0.652  17.696 -0.9386 -0.4830  0.5188
 1532TIP3   OH228790   4.402   2.036  17.560  0.2647  0.3164 -0.3132
 1532TIP3    H128791   4.474   1.975  17.575 -0.7283 -0.1804  3.2853
 1532TIP3    H228792   4.435   2.097  17.494  2.3653 -2.3047 -1.8853
 1533TIP3   OH228793   3.031   4.334  18.401 -0.0063 -0.0036  0.3313
 1533TIP3    H128794   3.096   4.397  18.432  0.2423 -0.0524 -0.0852
 1533TIP3    H228795   3.052   4.253  18.447  0.3918 -0.0905 -0.0024
 1534TIP3   OH228796   1.155   5.354  17.506  0.3662 -0.0486  0.3338
 1534TIP3    H128797   1.089   5.324  17.569  0.3738 -2.6036 -0.7466
 1534TIP3    H228798   1.192   5.432  17.545 -1.4747 -0.0360  2.2197
 1535TIP3   OH228799   6.480   0.783  17.086 -0.2316  0.0745  0.8370
 1535TIP3    H128800   6.523   0.859  17.124 -0.4537 -0.0448  1.3301
 1535TIP3    H228801   6.530   0.708  17.118 -1.1704 -0.1110  1.9327
 1536TIP3   OH228802   0.855   1.606  20.572  0.2818  0.1953 -0.1592
 1536TIP3    H128803   0.800   1.659  20.631  1.3206 -0.1314  1.1533
 1536TIP3    H228804   0.815   1.519  20.574  0.1951  0.2366 -0.1015
 1537TIP3   OH228805   5.726   0.237  18.442 -0.5240  0.3852 -0.2619
 1537TIP3    H128806   5.659   0.304  18.441 -1.8629 -0.8982  0.0440
 1537TIP3    H228807   5.690   0.165  18.389  0.7483 -0.2042 -0.3847
 1538TIP3   OH228808   4.485   2.031  18.258  0.8184  0.7353 -0.4703
 1538TIP3    H128809   4.577   2.043  18.280  0.8321 -0.3295  0.1214
 1538TIP3    H228810   4.480   1.943  18.222  0.1551  1.0782 -1.2540
 1539TIP3   OH228811   2.410   3.266  19.689 -0.9269 -0.0286  0.2331
 1539TIP3    H128812   2.427   3.214  19.768  0.0095 -0.1582 -0.0477
 1539TIP3    H228813   2.466   3.343  19.698 -2.2419  0.9333  0.6041
 1540TIP3   OH228814   5.046   3.092  18.782  0.1731  0.1532  0.1337
 1540TIP3    H128815   5.078   3.062  18.867 -0.9770 -0.1790  0.4688
 1540TIP3    H228816   5.097   3.042  18.719 -0.0949 -0.8248  0.6637
 1541TIP3   OH228817   3.449   5.736  18.119 -0.3485 -0.3320 -0.1046
 1541TIP3    H128818   3.454   5.729  18.024  1.3996  0.8539 -0.1602
 1541TIP3    H228819   3.362   5.703  18.142 -1.2193  0.3805 -2.1967
 1542TIP3   OH228820   5.153   6.583  19.889  0.1263  0.9318 -0.1112
 1542TIP3    H128821   5.172   6.500  19.934 -0.2064  0.9916  0.1463
 1542TIP3    H228822   5.162   6.563  19.796 -0.5930  0.4370 -0.0792
 1543TIP3   OH228823   5.609   2.940  19.083 -0.2715  0.3567 -0.0212
 1543TIP3    H128824   5.593   2.849  19.106 -0.3224  0.3258 -0.1732
 1543TIP3    H228825   5.704   2.948  19.077 -0.1728  0.7008  1.5353
 1544TIP3   OH228826   2.260   0.767  18.421  0.6218 -0.1598 -0.3836
 1544TIP3    H128827   2.187   0.789  18.364  0.1146  0.6384  0.5589
 1544TIP3    H228828   2.234   0.686  18.465  1.8899 -2.0160 -2.7740
 1545TIP3   OH228829   0.628   5.131  18.131 -0.3129  0.8729 -0.3493
 1545TIP3    H128830   0.690   5.068  18.094  0.8800  0.5792  1.9835
 1545TIP3    H228831   0.682   5.192  18.181 -1.8098  1.2721  0.8592
 1546TIP3   OH228832   4.775   5.995  16.779 -0.3628  1.2076 -0.3647
 1546TIP3    H128833   4.848   5.938  16.754 -1.0296  0.6149 -0.9969
 1546TIP3    H228834   4.697   5.942  16.764 -0.9339  1.8512  0.2574
 1547TIP3   OH228835   2.866   5.265  17.205  0.3567 -0.3320  0.1212
 1547TIP3    H128836   2.918   5.238  17.130  0.4230 -1.2275  0.4680
 1547TIP3    H228837   2.776   5.244  17.181  0.2438  0.4509 -0.1552
 1548TIP3   OH228838   6.051   5.681  17.729 -0.6097  0.2082 -0.0130
 1548TIP3    H128839   6.140   5.691  17.695 -0.7707  1.9065 -0.0489
 1548TIP3    H228840   5.994   5.708  17.656 -1.0755  0.7319  0.5260
 1549TIP3   OH228841   4.348   4.938  19.571  0.2955 -0.0420  0.1563
 1549TIP3    H128842   4.442   4.930  19.554 -0.1151 -0.8974 -1.9705
 1549TIP3    H228843   4.331   5.032  19.572  1.1818  0.1251  0.7554
 1550TIP3   OH228844   0.618   6.603  17.379 -0.5614 -0.3259  0.7586
 1550TIP3    H128845   0.561   6.659  17.326 -0.5960 -1.2826 -0.2538
 1550TIP3    H228846   0.687   6.662  17.410 -0.0230  0.1047 -1.1261
 1551TIP3   OH228847   5.893   1.033  19.199  0.1323  0.0870 -0.2495
 1551TIP3    H128848   5.911   1.126  19.189 -0.6391  0.5414  2.0599
 1551TIP3    H228849   5.957   1.003  19.263 -1.9659 -0.0574  1.9143
 1552TIP3   OH228850   4.381   6.307  19.465 -0.1397  0.0969 -0.1817
 1552TIP3    H128851   4.286   6.299  19.466 -0.0865 -2.3781 -2.7121
 1552TIP3    H228852   4.398   6.388  19.418 -1.0124  0.0566 -0.5825
 1553TIP3   OH228853   3.473   4.509  18.042  0.4037  0.2543 -0.4654
 1553TIP3    H128854   3.412   4.487  18.112  1.9659 -1.4790  0.4428
 1553TIP3    H228855   3.466   4.604  18.033 -1.5646  0.2301  0.3809
 1554TIP3   OH228856   6.474   5.260  18.532  0.3671 -0.0096  0.0792
 1554TIP3    H128857   6.491   5.353  18.516  0.3372 -0.0681 -0.3087
 1554TIP3    H228858   6.391   5.242  18.488 -0.3801  0.1145  1.4066
 1555TIP3   OH228859   0.195   0.846  18.828 -0.0757 -0.3487 -0.0942
 1555TIP3    H128860   0.229   0.795  18.755  0.8742 -0.3730  0.3572
 1555TIP3    H228861   0.106   0.813  18.842 -1.3964  1.5313 -3.0321
 1556TIP3   OH228862   4.753   4.471  17.624  0.3391  0.5800  0.3395
 1556TIP3    H128863   4.693   4.516  17.565 -0.2638 -0.4989  0.0885
 1556TIP3    H228864   4.829   4.450  17.569  0.4026  0.8536  0.3246
 1557TIP3   OH228865   1.535   1.642  18.474 -0.0509 -0.0682  0.0071
 1557TIP3    H128866   1.480   1.671  18.546 -0.6052  1.2271 -0.8968
 1557TIP3    H228867   1.508   1.552  18.456  0.2068 -0.4613  1.4918
 1558TIP3   OH228868   1.475   6.530  16.988 -0.0603  0.4931 -0.2053
 1558TIP3    H128869   1.430   6.449  17.010  2.0624 -1.1244 -1.4074
 1558TIP3    H228870   1.440   6.555  16.903 -0.6855  0.8509  0.1473
 1559TIP3   OH228871   4.885   6.603  19.955 -0.3772 -0.7373  0.5574
 1559TIP3    H128872   4.969   6.628  19.917 -0.5893 -0.9911 -0.0981
 1559TIP3    H228873   4.870   6.514  19.923 -1.2189 -0.4392  0.0968
 1560TIP3   OH228874   5.676   6.084  17.068 -0.1551  0.0283  0.3383
 1560TIP3    H128875   5.706   6.143  17.137  0.5100 -0.1788  0.2311
 1560TIP3    H228876   5.653   6.142  16.996  1.4535  0.1279 -0.1333
 1561TIP3   OH228877   3.947   0.130  17.471  0.5315 -0.3477  0.3368
 1561TIP3    H128878   3.935   0.198  17.404 -1.2190 -0.1863  0.7641
 1561TIP3    H228879   4.041   0.127  17.486  0.7060  1.5171 -0.1881
 1562TIP3   OH228880   5.345   1.125  18.386  0.4684 -0.2213  0.6122
 1562TIP3    H128881   5.271   1.114  18.326  0.5188 -1.9339  0.8316
 1562TIP3    H228882   5.422   1.116  18.331  0.5106 -0.8094  0.7600
 1563TIP3   OH228883   1.012   5.133  18.430 -0.4981  0.3001  0.1576
 1563TIP3    H128884   1.067   5.108  18.504 -0.9781 -1.0097  0.1006
 1563TIP3    H228885   1.073   5.153  18.360 -0.0606  0.5975  0.6168
 1564TIP3   OH228886   2.933   1.370  18.796  0.0084 -0.1034  0.2160
 1564TIP3    H128887   2.882   1.371  18.715 -0.5117  0.1205  0.5436
 1564TIP3    H228888   3.003   1.307  18.779  1.7287  2.1299 -1.5150
 1565TIP3   OH228889   0.383   0.847  18.240 -0.0007 -0.1908 -0.4331
 1565TIP3    H128890   0.347   0.763  18.213 -0.2065  0.0268 -0.8613
 1565TIP3    H228891   0.448   0.868  18.173  0.2708 -0.1577 -0.1579
 1566TIP3   OH228892   3.671   5.559  19.535  0.6463  0.5453 -0.0663
 1566TIP3    H128893   3.740   5.510  19.491  1.2042  1.6554 -0.4635
 1566TIP3    H228894   3.672   5.526  19.625  1.6681  0.5054 -0.0792
 1567TIP3   OH228895   3.353   0.251  17.643  0.0400  0.2257  0.7464
 1567TIP3    H128896   3.305   0.202  17.576  0.4719 -0.9392  1.2721
 1567TIP3    H228897   3.341   0.343  17.618 -0.6051 -0.1450 -0.3817
 1568TIP3   OH228898   1.394   3.854  18.424 -0.4037  0.1488  0.4726
 1568TIP3    H128899   1.470   3.806  18.392 -0.7181 -0.0943  0.0655
 1568TIP3    H228900   1.319   3.810  18.382 -0.7194  0.8049  0.3289
 1569TIP3   OH228901   2.258   0.800  19.452  0.7203  0.1386 -0.2201
 1569TIP3    H128902   2.251   0.705  19.442 -0.8560  0.1595  0.4531
 1569TIP3    H228903   2.243   0.835  19.364 -4.0776 -0.0614  0.2915
 1570TIP3   OH228904   0.761   0.632  17.498  0.0153  0.1001 -0.6089
 1570TIP3    H128905   0.751   0.721  17.534 -0.4253 -0.0890 -0.2473
 1570TIP3    H228906   0.677   0.615  17.455  0.0590 -0.1764 -0.5840
 1571TIP3   OH228907   4.999   0.198  17.357 -0.1040  0.0334 -0.6014
 1571TIP3    H128908   4.967   0.173  17.271  1.9701 -0.4834 -1.2799
 1571TIP3    H228909   4.970   0.289  17.368 -0.5094  0.0638 -1.7801
 1572TIP3   OH228910   4.749   2.636  18.396 -0.2224 -0.1663 -0.1040
 1572TIP3    H128911   4.821   2.608  18.339 -0.3091 -1.3056  0.3018
 1572TIP3    H228912   4.671   2.626  18.342 -0.1490  0.3080 -0.2967
 1573TIP3   OH228913   6.351   3.962  20.581 -0.1904 -0.5412 -0.0726
 1573TIP3    H128914   6.402   3.962  20.500 -2.2171  0.9320 -1.4464
 1573TIP3    H228915   6.260   3.953  20.552 -0.9240 -0.6029  2.0981
 1574TIP3   OH228916   4.100   3.026  18.105  0.1360  0.6852  0.2458
 1574TIP3    H128917   4.081   2.962  18.173 -2.0363 -1.2028 -1.9712
 1574TIP3    H228918   4.038   3.097  18.121 -1.7440 -0.6377 -0.7739
 1575TIP3   OH228919   6.094   1.753  19.811 -0.2021 -0.1195  0.2915
 1575TIP3    H128920   6.002   1.740  19.836  0.3187 -1.5308  1.6501
 1575TIP3    H228921   6.090   1.806  19.731 -2.1476  0.6830  0.8591
 1576TIP3   OH228922   3.139   4.946  19.427 -0.1238 -0.0460  0.1373
 1576TIP3    H128923   3.052   4.906  19.431  0.1416 -0.6215  0.4080
 1576TIP3    H228924   3.166   4.936  19.336 -1.1237  1.8928 -0.4185
 1577TIP3   OH228925   1.800   1.381  18.107 -0.6649  0.1308 -0.0680
 1577TIP3    H128926   1.793   1.365  18.200 -1.3288 -0.4449 -0.2111
 1577TIP3    H228927   1.713   1.362  18.072 -0.6578  1.1130 -0.6920
 1578TIP3   OH228928   1.840   0.923  18.497  0.3776 -0.1251  0.0938
 1578TIP3    H128929   1.862   1.012  18.471 -2.2289  0.9418  1.2326
 1578TIP3    H228930   1.913   0.895  18.553  1.2775  1.2023 -0.3685
 1579TIP3   OH228931   2.694   1.026  19.773 -0.2128 -0.2800  0.5888
 1579TIP3    H128932   2.733   1.045  19.687 -1.7560  0.9172  0.1096
 1579TIP3    H228933   2.742   1.081  19.834 -1.7828  2.0624 -0.1664
 1580TIP3   OH228934   2.492   0.717  18.757 -0.0572 -0.3811 -0.9264
 1580TIP3    H128935   2.525   0.649  18.698 -1.3987 -3.4053  1.4544
 1580TIP3    H228936   2.553   0.718  18.830  0.1183  1.3013 -1.0581
 1581TIP3   OH228937   6.590   5.550  18.755  0.1203 -0.1907  0.2290
 1581TIP3    H128938   6.679   5.548  18.791 -0.3665  1.9585  1.7515
 1581TIP3    H228939   6.543   5.480  18.802  1.4191 -2.8608 -2.1371
 1582TIP3   OH228940   2.755   4.155  19.470  0.5690 -0.1915  0.1228
 1582TIP3    H128941   2.676   4.185  19.515  0.9624 -0.2672  0.8799
 1582TIP3    H228942   2.826   4.208  19.506  0.9820 -0.6802  0.0476
 1583TIP3   OH228943   3.102   3.049  19.081 -0.3698 -0.3524 -0.1122
 1583TIP3    H128944   3.105   2.958  19.109 -0.9258  0.0470  1.3551
 1583TIP3    H228945   3.179   3.090  19.120 -1.3978  0.3146  1.3512
 1584TIP3   OH228946   3.491   3.092  18.525 -0.3505  0.1443  0.4649
 1584TIP3    H128947   3.396   3.097  18.518 -0.2388  0.8284 -0.8862
 1584TIP3    H228948   3.519   3.052  18.443  0.6074  1.1408  0.2884
 1585TIP3   OH228949   1.263   0.996  19.606  0.3885 -0.1899 -0.2321
 1585TIP3    H128950   1.315   0.960  19.678 -1.8428  1.1419  2.2428
 1585TIP3    H228951   1.313   1.073  19.578  1.0640 -0.4503  0.2147
 1586TIP3   OH228952   3.996   3.264  19.241 -0.1755 -0.0493  0.1889
 1586TIP3    H128953   3.923   3.279  19.181  1.2382 -1.6057 -2.1271
 1586TIP3    H228954   3.956   3.256  19.327 -2.5231  0.6605 -0.7470
 1587TIP3   OH228955   5.527   2.217  19.190 -0.0591  0.3773  0.0507
 1587TIP3    H128956   5.449   2.230  19.136  1.1239  0.6175 -1.6801
 1587TIP3    H228957   5.531   2.122  19.204 -0.3874  0.3106 -0.2824
 1588TIP3   OH228958   3.085   4.394  20.158 -0.2261  0.2983  0.1430
 1588TIP3    H128959   3.137   4.333  20.211 -0.0963  1.3951  1.3373
 1588TIP3    H228960   3.113   4.480  20.187 -2.4374  0.9342  0.5696
 1589TIP3   OH228961   1.496   1.413  18.780 -0.0662 -0.4421  0.4219
 1589TIP3    H128962   1.564   1.347  18.795 -0.5972 -0.8523  1.0800
 1589TIP3    H228963   1.465   1.396  18.691  2.1923  1.1616 -0.7884
 1590TIP3   OH228964   2.173   1.931  18.750 -0.2681  0.1681  0.0207
 1590TIP3    H128965   2.109   1.876  18.795 -0.4495 -0.6299 -1.1457
 1590TIP3    H228966   2.253   1.879  18.751 -0.3325  0.0387 -0.7311
 1591TIP3   OH228967   2.212   4.362  17.791  0.3119 -0.4396 -0.1291
 1591TIP3    H128968   2.226   4.280  17.838  0.7060 -0.0071  0.5225
 1591TIP3    H228969   2.151   4.412  17.847  0.1836 -0.2325 -0.4509
 1592TIP3   OH228970   2.458   5.837  17.894  0.0145 -0.0683  0.6943
 1592TIP3    H128971   2.481   5.806  17.982  0.5820 -2.9292 -0.3850
 1592TIP3    H228972   2.377   5.792  17.873  0.2387  0.0749 -0.5273
 1593TIP3   OH228973   5.517   4.931  18.445 -0.1163  0.9448 -0.5290
 1593TIP3    H128974   5.605   4.893  18.443 -0.8064 -0.8853  0.9534
 1593TIP3    H228975   5.462   4.866  18.401 -1.1171  0.8828  0.7640
 1594TIP3   OH228976   5.816   1.045  19.771 -0.9069  0.3701  0.0802
 1594TIP3    H128977   5.839   0.961  19.809 -2.0465  0.9989  2.2911
 1594TIP3    H228978   5.722   1.039  19.753 -0.3396 -0.1903 -3.6277
 1595TIP3   OH228979   3.643   2.167  17.838 -0.5732  0.5229  0.1871
 1595TIP3    H128980   3.693   2.091  17.808  2.1821  2.1676  0.3129
 1595TIP3    H228981   3.638   2.225  17.761  1.0354  1.9999  1.1261
 1596TIP3   OH228982   4.412   1.467  17.868  0.1078  0.7352  0.2935
 1596TIP3    H128983   4.396   1.561  17.859 -0.6010  0.6273  0.3115
 1596TIP3    H228984   4.431   1.438  17.779  3.3471  1.3775  0.6736
 1597TIP3   OH228985   4.555   0.640  19.070 -0.3861  0.1023 -0.0943
 1597TIP3    H128986   4.641   0.599  19.079  0.5175  1.9618  0.0489
 1597TIP3    H228987   4.560   0.689  18.988 -0.8738  1.1913  0.5078
 1598TIP3   OH228988   0.528   0.573  17.382  0.9899 -0.3601 -0.1764
 1598TIP3    H128989   0.465   0.502  17.370  0.1288  0.4931 -0.9697
 1598TIP3    H228990   0.489   0.647  17.335  3.3631 -0.2325 -2.1853
 1599TIP3   OH228991   3.564   4.180  19.353  0.1989 -0.3530 -0.2586
 1599TIP3    H128992   3.607   4.157  19.270  0.9690 -0.5402  0.1851
 1599TIP3    H228993   3.635   4.210  19.409 -0.8015  4.5821 -1.1960
 1600TIP3   OH228994   6.180   0.498  18.330 -0.2419  0.7782 -0.2714
 1600TIP3    H128995   6.184   0.404  18.351  1.5490  0.9618  0.3535
 1600TIP3    H228996   6.200   0.502  18.236 -0.5109  0.5140 -0.3397
 1601TIP3   OH228997   3.721   1.489  19.098  0.3735 -0.2116  0.1467
 1601TIP3    H128998   3.645   1.545  19.113 -0.7010 -1.4347 -0.5139
 1601TIP3    H228999   3.756   1.519  19.014  0.5003  0.2062  0.3435
 1602TIP3   OH229000   2.101   3.791  17.006 -0.1220  0.1613  0.4858
 1602TIP3    H129001   2.030   3.850  16.979 -0.1193  0.0279  0.1791
 1602TIP3    H229002   2.110   3.730  16.933  0.7672  0.5889  0.2257
 1603TIP3   OH229003   5.598   0.321  20.027 -0.5059  0.3639 -0.3196
 1603TIP3    H129004   5.620   0.256  19.960 -0.0110  0.4478 -0.2380
 1603TIP3    H229005   5.673   0.320  20.087 -0.1456  1.5544 -0.7349
 1604TIP3   OH229006   4.261   1.403  19.667 -0.4529  0.1083  0.3063
 1604TIP3    H129007   4.168   1.413  19.652 -0.7335 -0.8992  1.1836
 1604TIP3    H229008   4.278   1.453  19.747 -0.7212 -1.5176  1.4288
 1605TIP3   OH229009   5.846   2.991  18.475  0.8323 -0.2250 -0.1010
 1605TIP3    H129010   5.808   2.985  18.387  1.5850  1.4669 -0.5917
 1605TIP3    H229011   5.782   2.948  18.532 -0.8828  0.8154 -1.1430
 1606TIP3   OH229012   2.066   5.694  16.638  0.0405 -0.3803  0.4254
 1606TIP3    H129013   2.150   5.739  16.642  0.0678 -0.4892  1.6497
 1606TIP3    H229014   2.001   5.764  16.633  0.0247 -0.0535  3.2927
 1607TIP3   OH229015   3.988   5.966  20.465  0.2609 -0.2715 -0.0314
 1607TIP3    H129016   3.896   5.942  20.457 -0.0551  0.9302 -0.1860
 1607TIP3    H229017   3.991   6.059  20.442  1.7851 -0.6922 -1.8013
 1608TIP3   OH229018   3.792   4.857  18.831  0.1147  0.0810 -0.7983
 1608TIP3    H129019   3.876   4.861  18.877 -0.7566 -2.1438  1.1711
 1608TIP3    H229020   3.816   4.848  18.739  1.9977  0.7801 -0.4240
 1609TIP3   OH229021   4.964   2.092  19.266  0.6565  0.3521  0.0065
 1609TIP3    H129022   4.892   2.156  19.265  1.1665  0.9586 -1.3641
 1609TIP3    H229023   4.931   2.018  19.216  0.3390 -0.1662  0.9578
 1610TIP3   OH229024   4.103   1.138  19.256 -0.3549 -0.2557  0.1352
 1610TIP3    H129025   4.051   1.213  19.228  0.0684 -0.5066 -1.4219
 1610TIP3    H229026   4.057   1.062  19.219 -0.9529 -0.8209  1.9433
 1611TIP3   OH229027   0.503   1.918  19.478 -0.1991  0.0168 -0.4548
 1611TIP3    H129028   0.451   1.995  19.455  0.3989  0.4277 -0.4461
 1611TIP3    H229029   0.578   1.953  19.525  2.3783 -0.0669 -4.0565
 1612TIP3   OH229030   4.470   5.200  19.007  0.1777  0.3602 -0.1084
 1612TIP3    H129031   4.542   5.140  18.989  0.4038  0.2480  1.1054
 1612TIP3    H229032   4.501   5.285  18.976  0.7531  0.2745  0.2281
 1613TIP3   OH229033   2.128   3.193  19.654  0.0140  0.3668 -0.7561
 1613TIP3    H129034   2.128   3.132  19.729 -0.4952  0.3386 -0.7787
 1613TIP3    H229035   2.210   3.241  19.663 -1.0834  2.0095  1.1721
 1614TIP3   OH229036   0.690   4.419  17.935 -0.4250  0.5339  0.2798
 1614TIP3    H129037   0.626   4.349  17.946 -0.1127  0.1441 -0.2768
 1614TIP3    H229038   0.640   4.493  17.901 -0.1411 -0.8900 -3.8875
 1615TIP3   OH229039   5.413   1.131  17.541  0.6924  0.4951  0.4080
 1615TIP3    H129040   5.430   1.195  17.610 -1.7193 -0.4810  2.0110
 1615TIP3    H229041   5.361   1.179  17.477  0.3974  0.6199  0.7372
 1616TIP3   OH229042   6.441   4.239  20.327 -0.2052 -0.1525  0.3474
 1616TIP3    H129043   6.396   4.256  20.410  1.3456 -0.8652  1.3833
 1616TIP3    H229044   6.371   4.216  20.266 -1.6701  2.7683  0.7422
 1617TIP3   OH229045   1.216   5.454  18.178 -0.1772 -0.1750 -0.2650
 1617TIP3    H129046   1.302   5.432  18.143 -0.9532 -1.1222 -1.6727
 1617TIP3    H229047   1.234   5.486  18.267  1.5282 -1.3349 -0.1330
 1618TIP3   OH229048   3.759   4.325  19.004 -0.3917  0.0914 -0.5105
 1618TIP3    H129049   3.695   4.395  19.013  0.6283  1.0634 -0.6244
 1618TIP3    H229050   3.716   4.248  19.042 -1.9349  0.5067 -1.3485
 1619TIP3   OH229051   4.128   0.405  17.405  0.1183 -0.1171  0.3163
 1619TIP3    H129052   4.038   0.429  17.427 -0.1440  0.4444 -1.2728
 1619TIP3    H229053   4.149   0.456  17.327  1.9771  0.0935  0.8972
 1620TIP3   OH229054   2.183   5.162  19.185 -0.7130  0.0359  0.8923
 1620TIP3    H129055   2.233   5.089  19.220  1.9906  1.9541  1.3654
 1620TIP3    H229056   2.224   5.181  19.101 -0.2078  2.0072  1.5312
 1621TIP3   OH229057   3.937   0.142  17.194  0.3069 -0.0155  0.2241
 1621TIP3    H129058   3.853   0.096  17.187  0.5047 -0.4016  0.3444
 1621TIP3    H229059   3.999   0.073  17.217  0.9077  0.0129 -1.2445
 1622TIP3   OH229060   5.695   0.814  19.168 -0.0192  0.1804 -0.1798
 1622TIP3    H129061   5.716   0.906  19.153  0.7708  0.0051 -0.1543
 1622TIP3    H229062   5.754   0.786  19.238 -0.7581 -0.1590  0.3342
 1623TIP3   OH229063   2.722   2.133  18.854 -0.0287 -0.5871  0.1546
 1623TIP3    H129064   2.661   2.177  18.793 -1.0558 -1.6863  0.3563
 1623TIP3    H229065   2.677   2.135  18.938 -0.2037 -2.2152  0.1191
 1624TIP3   OH229066   3.276   3.827  17.987  0.0299  0.1566 -0.2725
 1624TIP3    H129067   3.200   3.882  17.966 -0.4433  0.1143  1.2418
 1624TIP3    H229068   3.351   3.883  17.968 -0.3194  0.0544 -2.2075
 1625TIP3   OH229069   3.913   3.677  19.905  0.2778  0.1058 -0.4579
 1625TIP3    H129070   3.980   3.675  19.837 -0.7791  2.2223 -1.6904
 1625TIP3    H229071   3.929   3.758  19.953  1.4777 -1.6997  2.4670
 1626TIP3   OH229072   0.931   5.659  20.026 -0.4999 -0.3006  0.4178
 1626TIP3    H129073   0.850   5.660  20.076 -0.4372 -0.7282  0.5344
 1626TIP3    H229074   0.927   5.577  19.976 -1.6205  1.1167 -2.0323
 1627TIP3   OH229075   4.646   1.158  18.629  0.0886  0.3672  0.3760
 1627TIP3    H129076   4.684   1.084  18.581  0.1984  1.9198 -2.1032
 1627TIP3    H229077   4.578   1.192  18.571  1.5756  3.5871  0.3178
 1628TIP3   OH229078   2.409   3.060  17.821 -0.1017  0.2960  0.3540
 1628TIP3    H129079   2.384   3.151  17.807  0.6852  0.3662 -0.8032
 1628TIP3    H229080   2.496   3.053  17.782 -0.3951 -1.0814 -0.1374
 1629TIP3   OH229081   3.442   0.111  18.563  0.1799 -0.2234 -1.0854
 1629TIP3    H129082   3.367   0.062  18.597  0.6937  0.0412  0.4978
 1629TIP3    H229083   3.477   0.157  18.639  1.1589  0.7047 -2.0657
 1630TIP3   OH229084   4.770   5.883  19.123  0.5136  0.2168  0.7410
 1630TIP3    H129085   4.766   5.895  19.028 -0.5063  0.7010  0.8251
 1630TIP3    H229086   4.798   5.793  19.134  0.1360 -0.0105 -0.0383
 1631TIP3   OH229087   5.962   1.875  20.198 -0.8255  0.3184 -0.3960
 1631TIP3    H129088   5.950   1.938  20.127 -0.6804  1.0141  0.1837
 1631TIP3    H229089   5.884   1.885  20.252 -0.4132  0.6035  0.1538
 1632TIP3   OH229090   3.982   4.409  17.851 -0.3424 -0.5669 -0.2882
 1632TIP3    H129091   3.975   4.443  17.761 -0.2808  1.1996  0.3324
 1632TIP3    H229092   3.895   4.375  17.871 -0.3936 -0.8495 -0.9743
 1633TIP3   OH229093   5.970   2.725  17.294  0.3330  0.0431  0.0179
 1633TIP3    H129094   5.879   2.693  17.295  0.5568 -0.6374  1.2892
 1633TIP3    H229095   5.967   2.804  17.348  0.2747  0.7685 -1.0102
 1634TIP3   OH229096   4.169   5.450  17.397  0.1175 -0.2374 -0.1525
 1634TIP3    H129097   4.074   5.439  17.399 -0.1414  1.5104  2.5522
 1634TIP3    H229098   4.201   5.373  17.349 -2.6246 -0.7288 -1.4200
 1635TIP3   OH229099   4.804   2.942  19.484 -0.1502 -0.0689  0.0324
 1635TIP3    H129100   4.877   2.881  19.481 -0.3308 -0.3774  1.4316
 1635TIP3    H229101   4.726   2.887  19.484 -0.3469  0.2056 -0.0640
 1636TIP3   OH229102   0.751   2.550  17.482 -0.2653 -0.2169  0.1150
 1636TIP3    H129103   0.824   2.510  17.435  0.4229 -0.6959  1.5414
 1636TIP3    H229104   0.705   2.476  17.522 -0.9914  0.1584 -0.0014
 1637TIP3   OH229105   2.309   6.208  17.651 -0.8703  0.4905 -0.6988
 1637TIP3    H129106   2.399   6.196  17.682 -1.2223  2.7454  1.4926
 1637TIP3    H229107   2.271   6.120  17.657  0.5726 -0.1085  0.4598
 1638TIP3   OH229108   0.647   6.213  16.961 -0.0610  0.1579  0.0803
 1638TIP3    H129109   0.660   6.297  17.006  0.0663 -0.4677  1.2736
 1638TIP3    H229110   0.593   6.162  17.022  1.6385 -1.3748  0.3883
 1639TIP3   OH229111   1.934   5.374  18.012 -0.2539  0.0958  0.0620
 1639TIP3    H129112   2.028   5.357  18.002 -0.5246 -0.9513 -0.9179
 1639TIP3    H229113   1.923   5.388  18.106  0.9516  0.6973  0.1353
 1640TIP3   OH229114   4.457   5.809  18.078 -0.5461 -0.7755  0.0413
 1640TIP3    H129115   4.463   5.836  17.987  0.9648 -1.2951 -0.0431
 1640TIP3    H229116   4.390   5.866  18.116 -1.0299 -0.4024 -1.3204
 1641TIP3   OH229117   5.715   3.476  17.197 -0.2849  0.1451  0.2008
 1641TIP3    H129118   5.805   3.444  17.201 -0.2798  0.1866  0.4342
 1641TIP3    H229119   5.662   3.398  17.183 -0.1476  0.2111 -0.7257
 1642TIP3   OH229120   6.591   4.863  17.753  0.1439  0.2317 -0.4506
 1642TIP3    H129121   6.532   4.938  17.756 -1.4531 -0.9928  0.3786
 1642TIP3    H229122   6.533   4.787  17.750  1.6932 -0.9859 -1.7669
 1643TIP3   OH229123   6.336   2.145  16.977 -0.4464 -0.2434  0.0668
 1643TIP3    H129124   6.312   2.113  16.890  0.5436  1.4273 -0.8656
 1643TIP3    H229125   6.428   2.119  16.987 -0.0468  1.0413 -0.1262
 1644TIP3   OH229126   2.489   4.277  19.580  0.4214  0.1061  0.0316
 1644TIP3    H129127   2.464   4.205  19.637  1.8076 -0.1624  0.3212
 1644TIP3    H229128   2.407   4.326  19.566 -0.1560 -0.4517  1.3294
 1645TIP3   OH229129   2.075   4.074  16.890 -0.2531  0.3195 -0.0466
 1645TIP3    H129130   2.114   3.989  16.912 -0.3038  0.7496  1.9258
 1645TIP3    H229131   2.150   4.134  16.887 -0.1665  0.1623 -1.8618
 1646TIP3   OH229132   1.123   2.552  19.906 -0.4786  0.4078 -0.2200
 1646TIP3    H129133   1.117   2.642  19.875  1.9188  0.1933 -1.6264
 1646TIP3    H229134   1.107   2.499  19.828 -1.8812 -0.4043  0.5977
 1647TIP3   OH229135   2.478   5.363  16.993  0.2447  0.0247 -0.0561
 1647TIP3    H129136   2.479   5.441  17.048  0.9533 -0.3990  0.5562
 1647TIP3    H229137   2.490   5.397  16.904 -0.7157  0.6969  0.0606
 1648TIP3   OH229138   4.463   0.348  19.665  0.7223 -0.4436  0.2873
 1648TIP3    H129139   4.542   0.319  19.619 -0.0345 -1.6920 -0.2776
 1648TIP3    H229140   4.495   0.410  19.731  2.3104 -1.7256  0.7906
 1649TIP3   OH229141   2.603   4.226  16.646 -0.1234 -0.1739 -0.0253
 1649TIP3    H129142   2.541   4.290  16.681 -0.2913  0.5443 -1.5095
 1649TIP3    H229143   2.557   4.143  16.649 -0.9901  0.2652 -0.6039
 1650TIP3   OH229144   5.287   2.826  16.855 -0.0209  0.5912  0.3248
 1650TIP3    H129145   5.382   2.834  16.851  0.1203 -1.0765 -2.2592
 1650TIP3    H229146   5.256   2.917  16.862  1.6972  1.1051  2.5003
 1651TIP3   OH229147   5.822   0.242  16.639  0.0699  0.0030 -0.0884
 1651TIP3    H129148   5.832   0.153  16.674  0.9140 -0.1475 -0.7011
 1651TIP3    H229149   5.773   0.231  16.558 -2.3710  0.4081  1.2254
 1652TIP3   OH229150   2.395   2.318  18.121 -0.3631 -0.0610 -0.2361
 1652TIP3    H129151   2.485   2.322  18.088  0.3314 -1.3920  1.3160
 1652TIP3    H229152   2.380   2.225  18.139 -1.0325  0.4338  2.1113
 1653TIP3   OH229153   6.403   3.572  19.616 -0.1843 -0.1322 -0.0639
 1653TIP3    H129154   6.474   3.575  19.681 -0.9687  1.0517  0.7872
 1653TIP3    H229155   6.445   3.592  19.533  0.3065  1.8917  0.6227
 1654TIP3   OH229156   6.395   5.730  18.913  0.7763 -0.1683 -0.3056
 1654TIP3    H129157   6.382   5.743  19.007 -0.1134 -0.4922 -0.3729
 1654TIP3    H229158   6.355   5.645  18.895  3.6029 -1.5638 -0.4380
 1655TIP3   OH229159   3.482   5.273  20.120  0.4050  0.4728  0.0099
 1655TIP3    H129160   3.417   5.320  20.067 -0.8040 -1.0717  0.0488
 1655TIP3    H229161   3.524   5.341  20.172  0.0612  1.7429 -1.2914
 1656TIP3   OH229162   5.006   4.248  20.166 -0.4396 -0.2158 -0.2495
 1656TIP3    H129163   5.064   4.311  20.208  0.0693 -1.1751  0.5228
 1656TIP3    H229164   4.918   4.282  20.180 -0.2340 -0.1963  1.0459
 1657TIP3   OH229165   5.352   1.620  17.163 -0.0691 -0.9782 -0.3588
 1657TIP3    H129166   5.414   1.689  17.138 -2.7795  1.5274 -0.6360
 1657TIP3    H229167   5.398   1.572  17.232  1.1574  2.6519  1.6582
 1658TIP3   OH229168   4.760   4.143  20.614  0.0083  0.0934 -0.2626
 1658TIP3    H129169   4.771   4.233  20.645 -1.3318  0.3247 -0.3632
 1658TIP3    H229170   4.666   4.125  20.627  0.4239 -1.6398  0.7050
 1659TIP3   OH229171   0.523   1.678  18.593 -0.5632 -0.5337  0.4213
 1659TIP3    H129172   0.585   1.734  18.639 -0.2858 -0.1821 -0.3672
 1659TIP3    H229173   0.567   1.656  18.511 -3.0000  3.1264 -2.1646
 1660TIP3   OH229174   2.052   3.118  17.646  0.0217  0.5082  0.5416
 1660TIP3    H129175   2.053   3.168  17.564  0.2711 -1.3751 -0.6675
 1660TIP3    H229176   2.109   3.167  17.705  0.8245  1.2789 -0.8296
 1661TIP3   OH229177   6.499   2.459  18.878  0.2790  0.1913 -0.8771
 1661TIP3    H129178   6.463   2.464  18.790 -0.7246  0.3504 -0.4696
 1661TIP3    H229179   6.430   2.418  18.930 -0.2023  2.4199  0.3841
 1662TIP3   OH229180   3.455   5.868  18.801 -0.2480 -0.9825 -0.0338
 1662TIP3    H129181   3.434   5.933  18.735 -0.5298 -0.0057  0.9819
 1662TIP3    H229182   3.551   5.865  18.803 -0.2386 -0.9467 -0.4025
 1663TIP3   OH229183   5.726   4.209  19.565 -0.1810 -0.2351 -0.5819
 1663TIP3    H129184   5.659   4.198  19.498  0.9425  0.8636 -1.9334
 1663TIP3    H229185   5.678   4.201  19.648 -1.8108 -0.3927 -1.4905
 1664TIP3   OH229186   5.681   6.154  19.562  0.1758 -0.7316  0.0647
 1664TIP3    H129187   5.588   6.168  19.581  0.5738  0.4612  1.3250
 1664TIP3    H229188   5.697   6.064  19.588 -0.2235 -0.3566  1.7498
 1665TIP3   OH229189   0.569   5.665  17.871  0.0683 -0.3486 -0.1422
 1665TIP3    H129190   0.508   5.627  17.808  0.7700 -0.1805 -0.9477
 1665TIP3    H229191   0.647   5.685  17.819  1.2445 -1.5802  1.0645
 1666TIP3   OH229192   1.552   1.739  19.481  0.4696 -0.0691 -0.4399
 1666TIP3    H129193   1.577   1.646  19.489 -0.2478 -0.4676 -2.3164
 1666TIP3    H229194   1.499   1.742  19.401 -1.1865  1.6316  0.6683
 1667TIP3   OH229195   5.282   0.912  18.569 -0.7295 -0.0102 -0.0787
 1667TIP3    H129196   5.321   0.982  18.517  0.1441  0.2569  0.9082
 1667TIP3    H229197   5.295   0.832  18.517 -0.0656  0.2774 -0.3527
 1668TIP3   OH229198   2.117   6.175  18.346 -0.3574 -0.1325  0.0924
 1668TIP3    H129199   2.031   6.216  18.346 -0.5435 -0.5131 -0.0392
 1668TIP3    H229200   2.099   6.081  18.335  0.0255 -0.3322  1.1140
 1669TIP3   OH229201   3.123   2.245  18.451  0.3620  0.6876 -0.0485
 1669TIP3    H129202   3.165   2.327  18.424 -0.2793  0.7090 -1.0188
 1669TIP3    H229203   3.029   2.264  18.449  0.2392  0.2577  0.8564
 1670TIP3   OH229204   5.510   5.593  16.721 -0.3897 -0.1036 -0.5180
 1670TIP3    H129205   5.532   5.590  16.815  1.5337  0.2132 -0.9235
 1670TIP3    H229206   5.458   5.513  16.707  0.6243 -0.9971  0.5144
 1671TIP3   OH229207   1.707   1.477  17.350 -0.2164  0.0462 -0.2474
 1671TIP3    H129208   1.794   1.437  17.359 -0.5794 -0.8113 -0.4398
 1671TIP3    H229209   1.658   1.443  17.425 -0.9764 -1.0849 -1.2120
 1672TIP3   OH229210   6.433   5.988  20.526 -0.1259  0.0217  0.3855
 1672TIP3    H129211   6.435   5.985  20.430 -1.1435  0.9744  0.3108
 1672TIP3    H229212   6.502   5.928  20.554 -0.2482 -0.7620 -0.9369
 1673TIP3   OH229213   0.191   1.860  17.915 -0.2885 -0.1780  0.0237
 1673TIP3    H129214   0.139   1.911  17.854 -0.2893 -0.3006 -0.0792
 1673TIP3    H229215   0.176   1.901  18.000 -1.6576 -1.0395  0.2307
 1674TIP3   OH229216   3.952   0.002  18.619  0.0563  0.0276  0.2327
 1674TIP3    H129217   3.862  -0.001  18.589  0.0979 -0.0878  0.1219
 1674TIP3    H229218   3.956   0.082  18.673 -1.1482 -1.9774  3.5987
 1675TIP3   OH229219   3.769   4.956  19.745 -0.2038  0.6059 -0.8421
 1675TIP3    H129220   3.782   5.044  19.780 -1.6737  0.3478  0.4576
 1675TIP3    H229221   3.842   4.905  19.780 -0.4354  0.8646  0.0463
 1676TIP3   OH229222   4.525   3.598  19.696 -0.2569 -0.4631  0.0925
 1676TIP3    H129223   4.520   3.670  19.633 -2.3937 -1.7642 -1.3254
 1676TIP3    H229224   4.619   3.579  19.702  0.1502  0.8840 -1.2892
 1677TIP3   OH229225   1.663   5.703  19.347 -0.1387  0.2725 -0.2776
 1677TIP3    H129226   1.599   5.774  19.354 -0.4517 -0.0261 -0.0401
 1677TIP3    H229227   1.677   5.675  19.437 -1.3926 -1.1581 -0.4855
 1678TIP3   OH229228   5.235   6.513  17.438 -0.3244  0.0065  0.1633
 1678TIP3    H129229   5.289   6.435  17.422 -0.3369 -0.1295  0.7507
 1678TIP3    H229230   5.160   6.502  17.380  0.0666 -0.0131 -0.3520
 1679TIP3   OH229231   4.252   5.489  19.621  0.2755 -0.0258 -0.4126
 1679TIP3    H129232   4.181   5.549  19.599 -1.0233 -0.1055  2.8986
 1679TIP3    H229233   4.326   5.545  19.641 -0.3583  0.4397  0.7658
 1680TIP3   OH229234   5.871   5.076  17.653 -0.1607 -0.4784 -0.2055
 1680TIP3    H129235   5.879   5.168  17.679  0.5185 -0.2236 -1.2620
 1680TIP3    H229236   5.809   5.039  17.715  0.9716  0.2320  1.4294
 1681TIP3   OH229237   2.119   1.219  19.162 -0.6401 -0.2745 -0.2422
 1681TIP3    H129238   2.057   1.291  19.147  1.5957  1.6250 -0.9919
 1681TIP3    H229239   2.151   1.197  19.074  0.5272 -0.4436  0.2110
 1682TIP3   OH229240   1.079   0.054  18.972  0.1727  0.1307 -0.5198
 1682TIP3    H129241   1.027   0.133  18.982  0.3858  0.5278 -2.2564
 1682TIP3    H229242   1.092   0.045  18.877  4.8584  1.1617 -0.2468
 1683TIP3   OH229243   3.151   6.187  16.855 -0.0431 -0.0786  0.2047
 1683TIP3    H129244   3.103   6.130  16.795  0.0551  0.4897 -0.4292
 1683TIP3    H229245   3.181   6.260  16.800  1.3739 -0.3166  0.6168
 1684TIP3   OH229246   6.205   3.280  19.061  0.4551 -0.2238  0.1875
 1684TIP3    H129247   6.222   3.243  18.974  1.7797 -1.2124  0.8341
 1684TIP3    H229248   6.141   3.221  19.100 -0.8724  0.7529 -0.4337
 1685TIP3   OH229249   4.581   1.893  19.520  0.1394 -0.2176  0.0836
 1685TIP3    H129250   4.593   1.832  19.448  0.2084 -0.2399  0.1142
 1685TIP3    H229251   4.509   1.856  19.571  0.2479 -0.3247  0.1588
 1686TIP3   OH229252   1.678   2.421  18.721  0.0924 -0.6913  0.3642
 1686TIP3    H129253   1.698   2.484  18.790  2.5025 -2.0693  1.0554
 1686TIP3    H229254   1.685   2.335  18.764  0.4873 -1.5546 -1.3297
 1687TIP3   OH229255   1.346   1.013  19.128 -0.1217  0.2452 -0.1340
 1687TIP3    H129256   1.308   0.948  19.069 -0.3661 -0.2678  0.5741
 1687TIP3    H229257   1.271   1.067  19.155 -0.2611 -0.4008  0.8028
 1688TIP3   OH229258   3.088   2.426  19.201 -0.1321 -0.4588 -0.3434
 1688TIP3    H129259   3.126   2.448  19.286 -0.5429 -2.4144  0.3820
 1688TIP3    H229260   3.162   2.399  19.147 -0.0005 -0.2454 -0.2708
 1689TIP3   OH229261   5.836   5.938  20.276 -0.3678 -0.1058 -0.2369
 1689TIP3    H129262   5.842   6.028  20.246 -1.2290  0.4836  1.2378
 1689TIP3    H229263   5.827   5.945  20.371  0.8015 -1.8060  0.0407
 1690TIP3   OH229264   3.422   2.767  20.005  0.1307  0.3793 -0.7516
 1690TIP3    H129265   3.483   2.744  19.935  0.5547  0.4971 -0.4257
 1690TIP3    H229266   3.478   2.797  20.076 -0.3039  0.3622 -0.4000
 1691TIP3   OH229267   0.830   4.171  17.961 -0.3689 -0.4067  0.0876
 1691TIP3    H129268   0.848   4.193  18.052  0.4201  0.9290 -0.3548
 1691TIP3    H229269   0.784   4.247  17.927 -0.0069 -0.5753 -0.8103
 1692TIP3   OH229270   5.592   3.647  19.455  0.3093 -0.2890  0.1042
 1692TIP3    H129271   5.588   3.566  19.403  0.2053 -0.2430  0.0428
 1692TIP3    H229272   5.510   3.648  19.504  0.8719 -0.9053  1.1124
 1693TIP3   OH229273   4.977   4.104  19.218 -0.3444 -0.6565 -0.4056
 1693TIP3    H129274   4.998   4.113  19.125  2.7296 -1.8133  0.0527
 1693TIP3    H229275   5.005   4.187  19.257  0.3850 -0.9653 -0.2514
 1694TIP3   OH229276   5.010   5.609  19.972 -0.0903  0.0641  0.1191
 1694TIP3    H129277   4.982   5.572  19.889  0.9891  0.4291 -0.4165
 1694TIP3    H229278   5.014   5.703  19.956 -0.8127  0.2439  0.8762
 1695TIP3   OH229279   3.372   0.850  19.750 -0.6161 -0.0175 -0.0078
 1695TIP3    H129280   3.337   0.931  19.787 -0.6893  0.6668 -1.5011
 1695TIP3    H229281   3.454   0.876  19.708  0.1779 -1.0360  0.8682
 1696TIP3   OH229282   4.239   3.935  19.175 -0.6762  0.2885 -0.2567
 1696TIP3    H129283   4.262   4.027  19.159 -1.3516  0.3470 -0.9580
 1696TIP3    H229284   4.184   3.911  19.100 -2.5482  0.0320  1.1363
 1697TIP3   OH229285   1.397   1.964  17.368 -0.1862 -0.4636 -0.6559
 1697TIP3    H129286   1.380   1.931  17.456 -0.2586 -1.6583 -1.1036
 1697TIP3    H229287   1.463   1.904  17.332  2.8098  2.1729 -0.0894
 1698TIP3   OH229288   0.575   5.087  20.111 -0.2885  0.9307  0.0848
 1698TIP3    H129289   0.484   5.117  20.113 -0.6407 -0.0474 -0.5337
 1698TIP3    H229290   0.605   5.106  20.022 -0.6142 -0.7864 -0.4121
 1699TIP3   OH229291   0.824   0.511  18.713 -0.3299 -0.2500  0.1547
 1699TIP3    H129292   0.785   0.462  18.641  0.0418 -0.0797 -0.1683
 1699TIP3    H229293   0.918   0.491  18.707 -0.2628 -0.0140  0.4193
 1700TIP3   OH229294   5.386   2.464  19.436  0.0524 -0.0755 -0.3349
 1700TIP3    H129295   5.328   2.388  19.425 -0.5539  0.3776 -0.3566
 1700TIP3    H229296   5.333   2.538  19.407 -0.6020  0.8177  2.7604
 1701TIP3   OH229297   4.016   0.217  17.846  0.1325  0.2535  0.4758
 1701TIP3    H129298   4.075   0.151  17.883 -0.1226  0.4777  1.3099
 1701TIP3    H229299   3.940   0.216  17.904 -1.4353 -1.1635 -1.4840
 1702TIP3   OH229300   4.716   2.497  17.749 -0.2016  0.2248  0.0258
 1702TIP3    H129301   4.627   2.532  17.760 -0.2379 -0.2825  1.7203
 1702TIP3    H229302   4.748   2.486  17.839  1.0404 -0.9740 -0.5318
 1703TIP3   OH229303   4.947   3.613  17.768  0.5147 -0.2397 -0.9484
 1703TIP3    H129304   4.854   3.607  17.793  1.0347  0.8450  1.6472
 1703TIP3    H229305   4.946   3.650  17.680 -1.5551  1.4055 -0.3330
 1704TIP3   OH229306   0.298   2.558  18.313 -0.1568 -0.2602  0.2612
 1704TIP3    H129307   0.299   2.649  18.342 -1.6922  0.1219 -0.7275
 1704TIP3    H229308   0.302   2.564  18.217 -1.0275 -1.1840  0.1547
 1705TIP3   OH229309   1.678   4.885  18.822 -0.0135 -0.3964 -0.5488
 1705TIP3    H129310   1.708   4.809  18.773 -0.5985 -1.0940  0.1582
 1705TIP3    H229311   1.733   4.886  18.900 -0.1079 -0.1780 -0.4841
 1706TIP3   OH229312   1.503   3.270  19.529 -0.5081  0.4874 -0.1328
 1706TIP3    H129313   1.480   3.208  19.460  0.6185  0.0029 -0.0917
 1706TIP3    H229314   1.434   3.337  19.526 -0.9413  0.0066 -1.1373
 1707TIP3   OH229315   5.511   5.003  20.281  0.2360  0.0276  0.2272
 1707TIP3    H129316   5.478   4.920  20.316 -0.0192  0.2763  0.5822
 1707TIP3    H229317   5.496   5.066  20.351 -1.2747  0.7624 -0.7029
 1708TIP3   OH229318   2.088   3.194  16.845 -0.0527 -0.3705  0.5196
 1708TIP3    H129319   2.050   3.161  16.763 -1.1411  1.1294  0.3752
 1708TIP3    H229320   2.158   3.253  16.816 -1.5035  1.4657  0.5373
 1709TIP3   OH229321   1.214   1.273  18.392  0.1375  0.4066  0.1810
 1709TIP3    H129322   1.161   1.338  18.439 -0.2151  0.1860  0.0939
 1709TIP3    H229323   1.183   1.277  18.302  0.3080  0.3141  0.1174
 1710TIP3   OH229324   2.978   0.109  17.974 -0.3120  0.1725 -0.1220
 1710TIP3    H129325   2.975   0.130  17.880  0.1533  0.5556 -0.0469
 1710TIP3    H229326   2.902   0.051  17.987  0.7475 -1.5594 -1.1534
 1711TIP3   OH229327   3.668   4.055  20.082  0.1358  0.3255  0.1380
 1711TIP3    H129328   3.608   4.125  20.057  1.1040  0.8846 -0.6896
 1711TIP3    H229329   3.649   3.984  20.021 -2.3387 -1.0483  2.2986
 1712TIP3   OH229330   6.389   1.742  19.830 -0.2875 -0.4474 -0.4285
 1712TIP3    H129331   6.294   1.732  19.816 -0.1076 -2.6158 -0.5130
 1712TIP3    H229332   6.414   1.661  19.875  1.8077 -0.7544 -2.0092
 1713TIP3   OH229333   4.034   5.529  20.283 -0.5121 -0.1505  0.6351
 1713TIP3    H129334   3.966   5.494  20.340 -0.2112  1.3763  2.0100
 1713TIP3    H229335   4.107   5.548  20.342 -0.2416  1.6190 -0.2106
 1714TIP3   OH229336   5.132   0.924  16.961 -0.5194 -0.1123 -0.5768
 1714TIP3    H129337   5.144   0.974  17.042 -0.6124 -0.3537 -0.4148
 1714TIP3    H229338   5.221   0.899  16.935 -0.6309 -1.7422  0.5227
 1715TIP3   OH229339   6.376   4.185  18.838 -0.3572 -0.6267 -0.0390
 1715TIP3    H129340   6.392   4.103  18.884  1.8473 -0.2062  0.0578
 1715TIP3    H229341   6.344   4.245  18.906  2.6728 -0.0737  1.0486
 1716TIP3   OH229342   6.662   4.167  20.542 -0.2843  0.6833  0.0812
 1716TIP3    H129343   6.572   4.202  20.539 -1.0792 -1.2739 -1.1597
 1716TIP3    H229344   6.678   4.139  20.452  0.5852 -1.3472  0.8372
 1717TIP3   OH229345   2.710   0.727  18.995  0.0138 -0.3161  0.4069
 1717TIP3    H129346   2.729   0.654  19.054  1.3703 -1.6326 -1.5166
 1717TIP3    H229347   2.738   0.804  19.043  0.8820 -1.3079  1.5663
 1718TIP3   OH229348   4.841   0.500  19.905 -0.3068  0.4602  0.6183
 1718TIP3    H129349   4.834   0.522  19.998  1.0222  1.5406  0.4811
 1718TIP3    H229350   4.923   0.451  19.898  0.2488  1.4682 -0.1640
 1719TIP3   OH229351   5.932   6.639  19.517 -0.3817  0.2577  0.4256
 1719TIP3    H129352   5.966   6.620  19.429  2.7227  0.6587  1.3835
 1719TIP3    H229353   5.874   6.566  19.537 -1.0641  0.0882 -1.8736
 1720TIP3   OH229354   2.430   4.648  17.627 -0.2058 -0.3278  0.4798
 1720TIP3    H129355   2.358   4.601  17.585 -0.2395  0.4087 -0.3041
 1720TIP3    H229356   2.416   4.634  17.721 -0.5943 -1.3145  0.2827
 1721TIP3   OH229357   5.631   3.233  18.459  0.4776  0.3500  0.2239
 1721TIP3    H129358   5.694   3.167  18.431 -0.6923 -0.1416 -1.4375
 1721TIP3    H229359   5.683   3.298  18.506  2.2828  0.1485 -1.3701
 1722TIP3   OH229360   2.466   5.364  18.824 -0.1321  0.6768 -0.1144
 1722TIP3    H129361   2.553   5.400  18.844  0.8973 -1.9815  0.5983
 1722TIP3    H229362   2.484   5.278  18.787 -2.4732  0.5225 -1.0511
 1723TIP3   OH229363   4.733   0.228  19.137  0.3950  0.2357 -0.3209
 1723TIP3    H129364   4.768   0.307  19.095 -0.2708  0.7711  0.0977
 1723TIP3    H229365   4.642   0.223  19.108 -0.3293  1.0631  1.5976
 1724TIP3   OH229366   0.168   4.557  17.442  0.5536 -0.0182  0.2578
 1724TIP3    H129367   0.079   4.584  17.462  0.3095 -0.5999 -0.0038
 1724TIP3    H229368   0.163   4.525  17.351  1.2132  0.7624 -0.0633
 1725TIP3   OH229369   2.145   0.615  19.735 -0.3656  0.3198 -0.7279
 1725TIP3    H129370   2.200   0.539  19.753  0.3723  0.7263 -1.2241
 1725TIP3    H229371   2.104   0.596  19.651 -2.7210 -0.9502  0.5941
 1726TIP3   OH229372   1.241   1.109  18.125 -0.1839  0.1890  0.4627
 1726TIP3    H129373   1.197   1.034  18.085 -1.1626  0.2579  1.3482
 1726TIP3    H229374   1.326   1.076  18.153 -0.0160 -0.1965 -0.4720
 1727TIP3   OH229375   6.489   2.259  18.128 -0.2908 -0.1487 -0.4402
 1727TIP3    H129376   6.521   2.333  18.077  1.2923 -0.5457 -0.0577
 1727TIP3    H229377   6.462   2.297  18.212 -1.1398  0.2238 -0.8658
 1728TIP3   OH229378   5.335   4.161  17.809  0.2165 -0.1153 -0.2533
 1728TIP3    H129379   5.418   4.192  17.844 -0.4708  2.8950 -0.9708
 1728TIP3    H229380   5.356   4.130  17.721  0.7792 -0.7595  0.1012
 1729TIP3   OH229381   3.863   0.589  17.178 -0.2057  0.3066 -0.6721
 1729TIP3    H129382   3.789   0.550  17.131  0.9915 -1.5454 -1.1386
 1729TIP3    H229383   3.885   0.667  17.127 -0.4649 -0.3413 -1.8294
 1730TIP3   OH229384   4.077   6.217  18.804 -0.3074  0.4366  0.1120
 1730TIP3    H129385   4.107   6.223  18.713  1.1341  0.8440  0.5835
 1730TIP3    H229386   4.090   6.305  18.839  0.7594 -0.1166  1.1693
 1731TIP3   OH229387   2.156   0.982  17.157  0.2773 -0.3193 -1.0477
 1731TIP3    H129388   2.128   1.007  17.069  0.0252 -0.1244 -0.9119
 1731TIP3    H229389   2.228   0.920  17.142  1.6936  1.3121 -1.4023
 1732TIP3   OH229390   6.263   5.454  16.695  0.4256  0.0924  0.7380
 1732TIP3    H129391   6.266   5.374  16.749 -0.9049 -0.0154  0.6937
 1732TIP3    H229392   6.172   5.483  16.702  1.2291  2.5062  2.0222
 1733TIP3   OH229393   1.566   0.642  19.336  0.1048 -0.0172  0.1160
 1733TIP3    H129394   1.593   0.650  19.245 -2.6199  0.6947 -0.7304
 1733TIP3    H229395   1.532   0.553  19.343  0.2391 -0.0446  0.4214
 1734TIP3   OH229396   2.661   1.798  19.673  0.0524  0.2273  0.1787
 1734TIP3    H129397   2.622   1.832  19.592  0.7978 -1.1293 -0.7754
 1734TIP3    H229398   2.685   1.877  19.722 -1.3854  1.0840 -0.4103
 1735TIP3   OH229399   5.200   0.652  16.464  0.4015 -0.2325  0.3578
 1735TIP3    H129400   5.201   0.565  16.423  1.1215 -0.4073  0.7428
 1735TIP3    H229401   5.112   0.659  16.502 -0.9582  0.6193 -2.6453
 1736TIP3   OH229402   3.825   6.668  19.703 -0.5645  0.1027 -0.0705
 1736TIP3    H129403   3.866   6.753  19.718 -0.5262 -0.1112  1.1819
 1736TIP3    H229404   3.768   6.655  19.780  0.3476 -1.5157  0.3880
 1737TIP3   OH229405   2.150   5.269  17.592 -0.2079 -0.3124 -0.1095
 1737TIP3    H129406   2.058   5.293  17.580 -0.3236 -0.8498 -0.3496
 1737TIP3    H229407   2.147   5.177  17.618  0.2673 -0.3627 -0.2307
 1738TIP3   OH229408   0.530   1.384  17.699  0.0618 -0.6978 -0.0317
 1738TIP3    H129409   0.538   1.404  17.605  0.6492  0.9484  0.3452
 1738TIP3    H229410   0.444   1.342  17.707 -1.5914  2.2008 -0.8764
 1739TIP3   OH229411   0.613   5.720  20.037 -0.1326  0.4584 -0.4686
 1739TIP3    H129412   0.545   5.766  19.989 -2.8305 -1.2298  1.4514
 1739TIP3    H229413   0.626   5.639  19.989 -0.1063  0.4106 -0.3818
 1740TIP3   OH229414   5.906   4.746  18.236 -0.0841 -0.1877 -0.5152
 1740TIP3    H129415   5.829   4.722  18.184  0.4829 -1.4579 -0.8116
 1740TIP3    H229416   5.904   4.685  18.310  1.6351 -1.5025 -1.4959
 1741TIP3   OH229417   2.301   5.153  19.494  0.2467 -0.0685  0.3290
 1741TIP3    H129418   2.331   5.244  19.499 -1.2007  0.5594 -1.5145
 1741TIP3    H229419   2.208   5.157  19.516 -0.0946 -0.9212 -0.8406
 1742TIP3   OH229420   2.752   5.149  19.011  0.1445  0.4813 -0.1697
 1742TIP3    H129421   2.692   5.119  18.942  0.7960  1.4178 -1.1838
 1742TIP3    H229422   2.813   5.076  19.023 -1.1666 -0.4867  0.8792
 1743TIP3   OH229423   4.208   4.009  20.274  0.1521 -0.3851 -0.9627
 1743TIP3    H129424   4.245   3.936  20.325 -2.3669 -0.6420  0.6794
 1743TIP3    H229425   4.168   3.967  20.198  0.6742 -0.4368 -1.2141
 1744TIP3   OH229426   4.063   5.169  19.720 -0.3198 -0.2419  0.5219
 1744TIP3    H129427   3.974   5.196  19.741  0.0511  0.6227  1.0361
 1744TIP3    H229428   4.055   5.078  19.691 -1.2711 -0.3962  1.2476
 1745TIP3   OH229429   6.425   2.310  19.619  0.1674 -0.3162  0.0932
 1745TIP3    H129430   6.380   2.376  19.672  0.5372  1.2271 -1.4192
 1745TIP3    H229431   6.372   2.303  19.539 -0.2873 -2.4540  0.5013
 1746TIP3   OH229432   5.061   0.976  17.362 -0.4388 -1.0204  0.4609
 1746TIP3    H129433   5.102   1.024  17.289 -0.2919  1.4013  2.0072
 1746TIP3    H229434   5.128   0.913  17.390 -0.0600 -1.1675 -0.7279
 1747TIP3   OH229435   6.027   3.071  20.258 -0.6793 -0.0062 -0.0285
 1747TIP3    H129436   6.025   3.008  20.186 -3.3237  0.6266 -0.6238
 1747TIP3    H229437   6.014   3.018  20.337  0.5992 -0.5309 -0.1502
 1748TIP3   OH229438   3.888   4.645  17.424 -0.1866 -0.6276  0.3987
 1748TIP3    H129439   3.947   4.581  17.463  0.0145 -0.8704 -0.2915
 1748TIP3    H229440   3.930   4.669  17.342 -1.2610 -1.1436 -0.3216
 1749TIP3   OH229441   3.822   3.804  19.488 -0.2808 -0.0826 -0.6519
 1749TIP3    H129442   3.800   3.773  19.576 -0.6129  1.0989 -0.2986
 1749TIP3    H229443   3.849   3.725  19.441  0.6689 -0.6188  0.7306
 1750TIP3   OH229444   1.313   2.301  18.118  0.1297  0.5257 -0.3464
 1750TIP3    H129445   1.228   2.323  18.081 -0.0753  1.6617  0.7195
 1750TIP3    H229446   1.344   2.383  18.157 -0.2699 -0.7628  3.0639
 1751TIP3   OH229447   4.149   1.548  17.813  0.0473  0.0300 -0.6673
 1751TIP3    H129448   4.193   1.520  17.892 -1.7593  0.1924  0.4547
 1751TIP3    H229449   4.192   1.500  17.742  1.6978 -0.0944  0.3975
 1752TIP3   OH229450   3.477   0.020  20.469  0.1161 -0.1134  0.3302
 1752TIP3    H129451   3.569  -0.006  20.460 -0.1216 -0.7149 -0.5127
 1752TIP3    H229452   3.428  -0.052  20.430 -0.6933  0.4607  0.2618
 1753TIP3   OH229453   0.056   6.356  17.171 -0.4898 -0.0404 -0.0309
 1753TIP3    H129454   0.130   6.321  17.221 -0.8499  1.2026  1.4514
 1753TIP3    H229455   0.032   6.286  17.110  1.5481 -0.6679 -0.1700
 1754TIP3   OH229456   2.971   2.690  19.867 -0.1256  0.0028 -0.3402
 1754TIP3    H129457   3.034   2.676  19.796 -1.3078 -2.1295 -1.0621
 1754TIP3    H229458   3.021   2.736  19.934  1.8028 -0.3642 -1.4420
 1755TIP3   OH229459   1.076   4.427  20.334  0.3550  0.0028  0.0908
 1755TIP3    H129460   0.988   4.442  20.368 -0.1486 -0.9182 -0.7518
 1755TIP3    H229461   1.118   4.370  20.398 -0.0371 -0.4175 -0.0207
 1756TIP3   OH229462   1.377   5.454  18.428  0.1548 -0.1680  0.0711
 1756TIP3    H129463   1.459   5.488  18.394  0.9361 -1.3962  0.6728
 1756TIP3    H229464   1.357   5.509  18.503  0.9074 -0.4194  0.4646
 1757TIP3   OH229465   1.834   4.481  19.658  0.1779  0.4004 -0.3039
 1757TIP3    H129466   1.743   4.494  19.634  0.0713  0.0601 -0.0878
 1757TIP3    H229467   1.883   4.534  19.595 -0.0573 -0.9790 -1.7362
 1758TIP3   OH229468   0.481   0.271  17.075 -0.0627 -0.4623 -0.4718
 1758TIP3    H129469   0.561   0.233  17.041  1.6499  2.9899 -0.7535
 1758TIP3    H229470   0.492   0.269  17.170 -0.5189 -1.6145 -0.4306
 1759TIP3   OH229471   1.642   5.055  17.940  0.1801  0.0471  0.1054
 1759TIP3    H129472   1.601   5.023  17.859 -0.3468  1.6245 -0.2964
 1759TIP3    H229473   1.734   5.068  17.917 -0.5051  3.6356 -1.3960
 1760TIP3   OH229474   5.120   0.543  18.397  0.2492 -0.2401  0.2416
 1760TIP3    H129475   5.026   0.564  18.395  0.2371 -0.1984  0.9232
 1760TIP3    H229476   5.163   0.623  18.367  0.0321 -0.6012 -1.0986
 1761TIP3   OH229477   6.653   5.837  18.860  0.8712  0.2921 -0.6942
 1761TIP3    H129478   6.601   5.759  18.839 -1.0512  1.3676 -0.1209
 1761TIP3    H229479   6.693   5.863  18.777  0.6053 -0.6257 -1.1251
 1762TIP3   OH229480   3.592   6.028  20.337 -0.0433 -0.0753 -0.1050
 1762TIP3    H129481   3.641   5.974  20.399 -0.7648  0.9079  1.3683
 1762TIP3    H229482   3.508   5.983  20.327  0.7277 -1.2170 -1.8450
 1763TIP3   OH229483   2.289   2.892  20.189  0.5103 -0.3726  0.3532
 1763TIP3    H129484   2.302   2.804  20.226  0.5251 -0.9424 -0.9500
 1763TIP3    H229485   2.297   2.879  20.094  0.0028  0.9573  0.1159
 1764TIP3   OH229486   6.377   1.615  17.822  0.3984 -0.0844 -0.5421
 1764TIP3    H129487   6.359   1.589  17.732 -0.1903 -2.5067  0.1818
 1764TIP3    H229488   6.291   1.623  17.863  0.5907  2.3293 -0.4558
 1765TIP3   OH229489   4.912   3.155  18.523  0.1970 -0.4256 -0.1321
 1765TIP3    H129490   4.863   3.078  18.494  1.1829 -1.0994 -0.0824
 1765TIP3    H229491   4.926   3.141  18.616  1.3639 -0.7751 -0.3405
 1766TIP3   OH229492   2.512   0.561  17.456 -0.5123 -0.0911  0.2394
 1766TIP3    H129493   2.442   0.613  17.495 -0.7476  0.5418 -0.9787
 1766TIP3    H229494   2.535   0.608  17.376  1.0433 -0.4896  0.4124
 1767TIP3   OH229495   2.845   1.160  19.950  0.9499  0.3009 -0.1851
 1767TIP3    H129496   2.905   1.234  19.955  0.3513  0.7277  1.5357
 1767TIP3    H229497   2.817   1.146  20.040 -1.3771 -0.0032 -0.8842
 1768TIP3   OH229498   6.368   3.283  17.906 -0.0567  0.1414 -0.0724
 1768TIP3    H129499   6.426   3.280  17.982 -1.3785 -1.9238  0.9520
 1768TIP3    H229500   6.306   3.353  17.927 -1.4648 -1.5129  1.6720
 1769TIP3   OH229501   0.435   4.536  18.884  0.4520  0.3688  0.1527
 1769TIP3    H129502   0.367   4.551  18.818  0.4984  1.1815  0.2762
 1769TIP3    H229503   0.516   4.530  18.833  0.3334 -0.2365  0.0356
 1770TIP3   OH229504   1.570   4.011  18.269  0.2964 -0.0490  0.0049
 1770TIP3    H129505   1.615   3.952  18.329  0.1266 -1.2796 -1.0175
 1770TIP3    H229506   1.478   4.006  18.296 -0.1400 -2.2957 -1.5957
 1771TIP3   OH229507   4.393   4.403  20.553  0.4732  0.1511 -0.2408
 1771TIP3    H129508   4.322   4.467  20.552 -0.4553 -0.8438 -1.2183
 1771TIP3    H229509   4.350   4.319  20.544  1.7271 -0.5622  0.1419
 1772TIP3   OH229510   5.495   5.860  19.239  0.6851 -0.4298 -0.3072
 1772TIP3    H129511   5.541   5.792  19.190 -0.0024 -0.8658 -0.3592
 1772TIP3    H229512   5.496   5.937  19.182  2.1510 -0.1369  0.0690
 1773TIP3   OH229513   1.797   1.464  20.342 -0.2610  0.2518  0.0538
 1773TIP3    H129514   1.739   1.478  20.417  0.7295 -0.9495  1.0967
 1773TIP3    H229515   1.846   1.546  20.335 -0.7307  0.5691  0.3856
 1774TIP3   OH229516   1.851   0.283  18.975 -0.0298 -0.4097 -0.8769
 1774TIP3    H129517   1.864   0.372  18.944  0.6402 -0.6937 -1.4268
 1774TIP3    H229518   1.922   0.232  18.936  1.1219 -0.7079  1.4395
 1775TIP3   OH229519   6.286   4.400  19.005  0.0718 -0.0451  0.1391
 1775TIP3    H129520   6.363   4.394  19.062  0.0794 -0.6519  0.0805
 1775TIP3    H229521   6.219   4.442  19.059  0.2852 -0.0034  0.3751
 1776TIP3   OH229522   6.063   5.966  19.949 -0.1361  0.3353 -0.2492
 1776TIP3    H129523   6.027   5.896  19.895  0.1971  0.5348 -0.7405
 1776TIP3    H229524   5.996   6.033  19.949 -0.6127 -0.1241  0.5251
 1777TIP3   OH229525   6.627   2.199  18.427 -0.0295 -0.4715 -0.2467
 1777TIP3    H129526   6.696   2.218  18.364  0.4331 -1.4342 -0.0370
 1777TIP3    H229527   6.578   2.281  18.434 -0.4456 -0.4995 -2.2793
 1778TIP3   OH229528   1.785   3.512  20.121 -0.2917  0.4744  0.4662
 1778TIP3    H129529   1.813   3.484  20.034 -2.9935 -2.6071  0.3870
 1778TIP3    H229530   1.835   3.456  20.181  0.3867  1.4562  0.8349
 1779TIP3   OH229531   4.103   4.875  20.482  0.3054  0.4468  0.1600
 1779TIP3    H129532   4.015   4.882  20.520  1.0548  0.5823  1.9588
 1779TIP3    H229533   4.092   4.909  20.393 -1.8053 -1.1452 -0.2846
 1780TIP3   OH229534   6.403   0.910  18.214  0.1607 -0.1682 -0.2506
 1780TIP3    H129535   6.477   0.921  18.155  1.5651 -0.9199  1.2702
 1780TIP3    H229536   6.398   0.815  18.227 -1.2679 -0.1486 -0.5460
 1781TIP3   OH229537   3.981   4.850  19.587 -0.3604 -0.1143  0.2766
 1781TIP3    H129538   3.889   4.872  19.578 -0.2671 -0.4584 -2.2597
 1781TIP3    H229539   3.990   4.764  19.545  1.2852  0.3689 -0.4493
 1782TIP3   OH229540   2.404   4.580  17.892  0.3871 -0.1416 -0.2059
 1782TIP3    H129541   2.365   4.493  17.902 -0.8118  0.0037 -2.8113
 1782TIP3    H229542   2.385   4.625  17.975 -1.9739 -1.2467 -0.0767
 1783TIP3   OH229543   6.382   4.270  20.595  0.3662 -0.2591  0.0475
 1783TIP3    H129544   6.312   4.335  20.600 -0.4110 -1.0256 -0.7014
 1783TIP3    H229545   6.338   4.185  20.601  1.1116 -0.7796 -1.4713
 1784TIP3   OH229546   6.677   5.533  17.413 -0.1845  0.0219 -0.8644
 1784TIP3    H129547   6.695   5.552  17.320 -1.2162  1.9460 -0.7292
 1784TIP3    H229548   6.739   5.589  17.460  0.6071 -1.2456 -0.3541
 1785TIP3   OH229549   5.598   0.411  19.340 -0.0991 -0.0697 -0.3174
 1785TIP3    H129550   5.557   0.497  19.345  2.7237  1.4502 -0.8953
 1785TIP3    H229551   5.560   0.370  19.263 -1.3984  0.6816 -0.1050
 1786TIP3   OH229552   6.073   0.173  17.413  0.1511  0.5009 -0.5657
 1786TIP3    H129553   6.029   0.253  17.385 -0.5367  0.3579  0.0599
 1786TIP3    H229554   6.045   0.161  17.504  1.2652  0.2385 -0.2472
 1787TIP3   OH229555   5.283   4.958  18.193  0.3630  0.0723  0.0133
 1787TIP3    H129556   5.321   5.040  18.226  0.8888 -0.7108  1.4393
 1787TIP3    H229557   5.195   4.983  18.165  1.2665  1.5747 -1.7414
 1788TIP3   OH229558   1.104   3.217  18.152  0.1771 -0.2714  0.3409
 1788TIP3    H129559   1.136   3.191  18.065 -1.4979 -0.0221 -0.3940
 1788TIP3    H229560   1.137   3.306  18.164 -0.8517  0.2694 -0.7289
 1789TIP3   OH229561   5.359   4.421  18.894 -0.3054 -0.0995  0.1848
 1789TIP3    H129562   5.358   4.435  18.989  0.3579 -0.9949  0.3467
 1789TIP3    H229563   5.326   4.332  18.883 -1.0683  0.2580 -0.4894
 1790TIP3   OH229564   3.581   2.138  18.264  0.0096 -0.1592  0.3992
 1790TIP3    H129565   3.579   2.046  18.239 -2.1817 -0.3140  0.8862
 1790TIP3    H229566   3.539   2.140  18.350  0.9571  1.1896  0.8603
 1791TIP3   OH229567   5.944   3.758  17.179  0.1389  0.2771 -0.2452
 1791TIP3    H129568   5.943   3.766  17.084  1.1503 -0.0427 -0.2891
 1791TIP3    H229569   5.865   3.707  17.200 -0.3518  0.7659 -0.8539
 1792TIP3   OH229570   6.663   4.859  16.921 -0.6883  0.3798  0.1320
 1792TIP3    H129571   6.669   4.916  16.845 -1.0325 -1.8803 -1.7169
 1792TIP3    H229572   6.719   4.784  16.900 -0.8171 -0.3381  2.0979
 1793TIP3   OH229573   0.315   1.069  18.958  0.0449 -0.0230 -0.0358
 1793TIP3    H129574   0.407   1.063  18.983  0.3039  1.3320 -0.5860
 1793TIP3    H229575   0.294   0.982  18.925  1.1781 -0.3068 -0.0616
 1794TIP3   OH229576   0.529   1.025  18.040 -0.3492  0.4233  0.4665
 1794TIP3    H129577   0.599   0.985  17.988  0.1056 -0.6048  1.7970
 1794TIP3    H229578   0.548   1.119  18.037  0.1212  0.3133 -0.5357
 1795TIP3   OH229579   1.979   3.931  18.601 -0.0693  0.0846 -0.1927
 1795TIP3    H129580   2.065   3.973  18.597 -1.8267  4.2081  0.3482
 1795TIP3    H229581   1.984   3.874  18.677  2.4400 -0.6036 -0.7676
 1796TIP3   OH229582   4.621   0.496  17.720 -0.3467  0.3112 -0.5473
 1796TIP3    H129583   4.579   0.513  17.636  0.1029 -0.1746 -0.8771
 1796TIP3    H229584   4.572   0.422  17.756 -0.4055  0.3835 -0.4796
 1797TIP3   OH229585   1.374   0.125  18.466  0.0798 -0.2214  0.2922
 1797TIP3    H129586   1.455   0.139  18.515 -0.3637 -0.7075  1.1915
 1797TIP3    H229587   1.380   0.034  18.436 -0.0945 -0.2305  0.2862
 1798TIP3   OH229588   2.773   0.519  18.819  0.1663 -0.5519  0.7263
 1798TIP3    H129589   2.753   0.590  18.881  1.3827  0.8629 -0.4346
 1798TIP3    H229590   2.791   0.564  18.736 -0.3331 -2.3319 -0.4027
 1799TIP3   OH229591   3.918   3.589  18.373  0.6821 -0.0428  0.0121
 1799TIP3    H129592   3.873   3.548  18.299  1.8338 -0.9311 -0.2232
 1799TIP3    H229593   3.854   3.651  18.408 -0.1955 -0.2220 -1.1928
 1800TIP3   OH229594   0.497   0.942  19.466 -0.5589  0.4530 -0.0409
 1800TIP3    H129595   0.463   0.931  19.377  1.8459 -2.0343 -0.7897
 1800TIP3    H229596   0.577   0.994  19.454 -0.3095  0.2402  0.6568
 1801TIP3   OH229597   5.346   3.360  18.045  0.1753  0.2856 -0.3689
 1801TIP3    H129598   5.291   3.371  18.123  0.3992 -1.1997  0.0183
 1801TIP3    H229599   5.284   3.363  17.972 -0.1151  1.0174 -0.1081
 1802TIP3   OH229600   3.158   4.323  18.023 -0.4698 -0.8774  0.3156
 1802TIP3    H129601   3.073   4.348  18.058 -0.3402 -0.2005  0.1486
 1802TIP3    H229602   3.200   4.405  17.999  0.1472 -1.2195  0.1947
 1803TIP3   OH229603   4.455   2.585  17.770  0.2675 -0.0444  0.2043
 1803TIP3    H129604   4.433   2.670  17.810  0.1166  0.2051 -0.4055
 1803TIP3    H229605   4.433   2.595  17.678  0.4999 -0.6651  0.0757
 1804TIP3   OH229606   3.262   0.513  17.844 -0.1445 -0.3410  0.2409
 1804TIP3    H129607   3.262   0.553  17.931 -0.3685  2.7663 -1.0368
 1804TIP3    H229608   3.180   0.465  17.839  0.3696 -1.5031  2.0614
 1805TIP3   OH229609   3.936   6.321  17.705  0.6401  0.1375 -0.2416
 1805TIP3    H129610   3.965   6.317  17.614  1.4729 -1.0838  0.0603
 1805TIP3    H229611   3.865   6.257  17.711  1.8952 -1.2679  0.3879
 1806TIP3   OH229612   2.042   5.900  18.317 -0.5192 -0.6320 -0.3381
 1806TIP3    H129613   2.129   5.866  18.336 -0.0876  0.0465 -1.0259
 1806TIP3    H229614   1.989   5.874  18.392  0.2743 -1.0578  0.0867
 1807TIP3   OH229615   6.152   5.094  17.661  0.4248 -0.2049 -0.0687
 1807TIP3    H129616   6.058   5.075  17.667  0.2121  0.9569  0.4243
 1807TIP3    H229617   6.159   5.187  17.680  1.7106 -0.3290  0.1324
 1808TIP3   OH229618   6.654   5.615  16.355  0.6082 -0.0374  0.1077
 1808TIP3    H129619   6.740   5.585  16.326  1.2701  1.2076  0.7284
 1808TIP3    H229620   6.659   5.711  16.351 -0.2546  0.0922  1.5335
 1809TIP3   OH229621   6.161   0.788  19.147  0.6746 -0.1503 -0.1973
 1809TIP3    H129622   6.148   0.818  19.057 -0.5224  0.0905  0.0329
 1809TIP3    H229623   6.142   0.865  19.201  1.2199 -0.3376  0.2670
 1810TIP3   OH229624   0.979   2.197  20.294  0.2866 -0.2067  0.9406
 1810TIP3    H129625   1.012   2.285  20.276  0.9995 -0.5548  0.4922
 1810TIP3    H229626   0.884   2.205  20.286  0.4587 -0.0066 -1.5625
 1811TIP3   OH229627   4.662   0.437  18.458 -0.2542  0.1258  0.3017
 1811TIP3    H129628   4.716   0.363  18.486 -0.9696 -0.1729  0.9049
 1811TIP3    H229629   4.627   0.474  18.539 -1.2430  0.0987 -0.1024
 1812TIP3   OH229630   6.136   6.431  17.428  0.3443  0.0486 -0.1281
 1812TIP3    H129631   6.214   6.456  17.379 -0.7096  2.2491 -0.8202
 1812TIP3    H229632   6.089   6.370  17.371  0.5340  0.3480 -0.6054
 1813TIP3   OH229633   0.280   5.695  18.780 -0.5635  0.4847  0.6686
 1813TIP3    H129634   0.211   5.653  18.727  0.6514  0.0195 -0.6105
 1813TIP3    H229635   0.295   5.633  18.851  0.4628 -0.8076 -0.6145
 1814TIP3   OH229636   4.021   4.425  20.327  0.2114  0.3196 -0.0734
 1814TIP3    H129637   3.988   4.454  20.242 -0.8994 -1.8840 -0.4487
 1814TIP3    H229638   4.019   4.330  20.323  1.2276  0.1583  2.0280
 1815TIP3   OH229639   3.674   3.362  17.716 -0.3095 -0.3725 -0.3529
 1815TIP3    H129640   3.686   3.379  17.623  0.2318 -0.8797 -0.3803
 1815TIP3    H229641   3.720   3.280  17.732  2.1305  1.1408  0.9255
 1816TIP3   OH229642   0.583   5.283  19.655 -0.1110  0.2660  0.6851
 1816TIP3    H129643   0.656   5.339  19.628  0.2798 -0.5675 -0.0223
 1816TIP3    H229644   0.554   5.240  19.574  0.6907 -1.8252  1.4541
 1817TIP3   OH229645   5.644   6.230  18.552 -0.3135 -0.2185 -0.1819
 1817TIP3    H129646   5.721   6.210  18.499  0.5339 -1.1332  1.3050
 1817TIP3    H229647   5.670   6.204  18.641 -2.1038  0.1021  0.4618
 1818TIP3   OH229648   6.713   6.465  19.032  0.0346 -0.0586  0.2345
 1818TIP3    H129649   6.737   6.486  18.942  0.1126  0.2933  0.3359
 1818TIP3    H229650   6.713   6.369  19.035 -2.1346 -0.1511 -0.7277
 1819TIP3   OH229651   4.830   0.705  17.426  0.2986  0.6972 -0.0233
 1819TIP3    H129652   4.756   0.752  17.389  0.2660  0.7742  0.1375
 1819TIP3    H229653   4.861   0.761  17.497 -0.2749  0.0747  0.7366
 1820TIP3   OH229654   4.995   2.068  17.844 -0.2602 -0.0085 -0.1787
 1820TIP3    H129655   5.065   2.053  17.907 -0.3308 -1.2077 -0.3732
 1820TIP3    H229656   4.968   2.159  17.860  0.4108  0.0313  0.8088
 1821TIP3   OH229657   5.394   2.540  19.705  0.1005 -0.1648  0.0472
 1821TIP3    H129658   5.364   2.533  19.615 -1.1452 -0.8612  0.4938
 1821TIP3    H229659   5.380   2.631  19.729 -0.6005 -0.2268 -0.1175
 1822TIP3   OH229660   3.564   3.488  19.637 -0.0349  0.2895  0.3607
 1822TIP3    H129661   3.622   3.556  19.670 -0.1129  0.6609 -0.2513
 1822TIP3    H229662   3.587   3.480  19.544  0.9071 -1.4474  0.6918
 1823TIP3   OH229663   0.945   4.463  18.120 -0.3809  0.3830  0.1145
 1823TIP3    H129664   0.982   4.544  18.085  2.3017 -1.3954 -1.4916
 1823TIP3    H229665   0.870   4.445  18.063  0.4359  0.5460 -1.0458
 1824TIP3   OH229666   3.318   0.368  18.473 -0.5144 -0.0293  0.0966
 1824TIP3    H129667   3.265   0.290  18.458  0.1882 -0.3468 -0.7786
 1824TIP3    H229668   3.405   0.335  18.495 -0.0674  0.5003 -0.8302
 1825TIP3   OH229669   4.986   4.240  18.633  0.6632 -0.6610  0.1676
 1825TIP3    H129670   4.982   4.195  18.718  0.1163 -0.9585 -0.0106
 1825TIP3    H229671   4.928   4.190  18.576 -1.7769  1.4683  0.5590
 1826TIP3   OH229672   3.833   1.554  19.406 -0.6552 -0.2150  0.2691
 1826TIP3    H129673   3.775   1.581  19.334 -0.8520  0.4559  0.6724
 1826TIP3    H229674   3.888   1.631  19.422 -2.1054  0.4439  2.3266
 1827TIP3   OH229675   5.811   0.108  17.683 -0.2136  0.5828  0.1830
 1827TIP3    H129676   5.725   0.078  17.711  0.5279 -0.5586  1.3547
 1827TIP3    H229677   5.798   0.199  17.658 -2.2895 -0.2676 -2.2427
 1828TIP3   OH229678   4.879   4.522  20.020  0.5275  0.0205 -0.4465
 1828TIP3    H129679   4.822   4.567  20.082  0.3660  1.5485 -1.6458
 1828TIP3    H229680   4.824   4.452  19.984  0.9904 -1.6993  1.9285
 1829TIP3   OH229681   5.112   3.519  17.511  0.3301  0.1432  0.5067
 1829TIP3    H129682   5.161   3.469  17.576  1.4500 -1.1834 -1.2518
 1829TIP3    H229683   5.061   3.453  17.464  1.7451  0.5582 -1.7971
 1830TIP3   OH229684   0.689   3.875  17.944  0.2362  0.4784  0.8581
 1830TIP3    H129685   0.609   3.868  17.997  0.0902  0.0864  0.5858
 1830TIP3    H229686   0.729   3.956  17.974  0.1157  0.3019  1.5250
 1831TIP3   OH229687   4.914   5.462  17.587 -0.2630 -0.3809 -0.0223
 1831TIP3    H129688   4.965   5.397  17.637 -0.2859  0.8898  1.7572
 1831TIP3    H229689   4.979   5.525  17.556 -0.5882  0.7782  1.5238
 1832TIP3   OH229690   2.122   4.693  17.241  0.0331  0.2784 -0.0005
 1832TIP3    H129691   2.084   4.730  17.161  0.6135 -1.1535 -0.9689
 1832TIP3    H229692   2.053   4.636  17.276  0.4539 -0.5789 -0.5390
 1833TIP3   OH229693   3.570   4.902  20.574  0.3384 -0.6228  0.6651
 1833TIP3    H129694   3.604   4.907  20.485  0.5476 -0.1546  0.7646
 1833TIP3    H229695   3.504   4.971  20.579  2.4696  1.4928  1.7490
 1834TIP3   OH229696   4.817   5.003  18.482 -0.5157  0.1661 -0.3939
 1834TIP3    H129697   4.825   5.082  18.536  0.9803 -1.2436  1.5943
 1834TIP3    H229698   4.898   4.954  18.499 -0.2932 -0.7310 -3.4251
 1835TIP3   OH229699   2.912   6.504  19.816 -0.0565  0.6278 -0.5730
 1835TIP3    H129700   2.921   6.456  19.733  2.1155 -3.6110  1.7572
 1835TIP3    H229701   2.991   6.558  19.822  0.1895  0.3085 -0.9154
 1836TIP3   OH229702   4.637   5.348  19.197  0.0062  0.2304  0.4541
 1836TIP3    H129703   4.546   5.379  19.196  0.3618  1.3587 -1.0109
 1836TIP3    H229704   4.670   5.368  19.109  1.3321 -1.2242  0.5807
 1837TIP3   OH229705   2.191   2.520  17.661  0.2287 -0.0253 -0.2771
 1837TIP3    H129706   2.206   2.517  17.567 -1.6950 -2.0226 -0.5864
 1837TIP3    H229707   2.143   2.440  17.681 -2.0693  1.7495  1.9387
 1838TIP3   OH229708   5.602   3.988  18.044 -0.3063  0.6430 -0.4135
 1838TIP3    H129709   5.537   3.927  18.012 -0.8144  1.5160 -1.0855
 1838TIP3    H229710   5.656   4.008  17.967  1.1511 -0.5146  0.2471
 1839TIP3   OH229711   4.472   4.513  20.313 -0.4635  0.8213 -0.1821
 1839TIP3    H129712   4.541   4.568  20.349 -1.1867  0.7745  1.3582
 1839TIP3    H229713   4.437   4.465  20.388  0.2821 -1.9555 -1.4566
 1840TIP3   OH229714   4.065   5.982  19.187 -0.4574  0.2421  0.0001
 1840TIP3    H129715   4.115   6.064  19.185 -1.2702  0.7449 -1.5184
 1840TIP3    H229716   4.077   5.945  19.100 -1.8793 -0.1369 -0.0555
 1841TIP3   OH229717   3.325   0.640  19.907 -0.0388 -0.0282 -0.1083
 1841TIP3    H129718   3.352   0.681  19.989 -1.7970  0.0195  0.4738
 1841TIP3    H229719   3.339   0.708  19.841  0.7329  0.1660  0.2365
 1842TIP3   OH229720   1.386   6.145  19.038 -0.7219  0.1361  0.0662
 1842TIP3    H129721   1.449   6.195  19.090  0.2034  0.4518 -1.3070
 1842TIP3    H229722   1.409   6.053  19.054 -0.6894  0.2127  0.4868
 1843TIP3   OH229723   4.763   5.056  20.641  0.6390 -0.3739  0.0952
 1843TIP3    H129724   4.843   5.005  20.633  1.0621  0.0446  1.4909
 1843TIP3    H229725   4.786   5.142  20.604 -0.1095 -1.1456 -2.3702
 1844TIP3   OH229726   0.613   4.652  17.781  0.0222 -0.2838 -0.1681
 1844TIP3    H129727   0.691   4.699  17.811 -0.2897  0.0014  0.2271
 1844TIP3    H229728   0.576   4.708  17.713 -0.8500  0.5326  0.9265
 1845TIP3   OH229729   4.291   0.140  18.640 -0.0534  0.6737  0.3562
 1845TIP3    H129730   4.293   0.168  18.548  0.6772 -3.2053 -0.9704
 1845TIP3    H229731   4.205   0.171  18.671 -1.0749  0.6638 -2.1557
 1846TIP3   OH229732   2.395   2.756  19.945 -0.2949 -0.2258  0.0377
 1846TIP3    H129733   2.419   2.792  19.860  2.9842 -1.6617  0.1929
 1846TIP3    H229734   2.373   2.665  19.928  1.1266 -0.7379  0.7449
 1847TIP3   OH229735   0.421   1.169  18.611  0.0150  0.2675  0.4394
 1847TIP3    H129736   0.432   1.088  18.561  0.5674  0.9687 -0.6204
 1847TIP3    H229737   0.511   1.197  18.631 -0.1158  1.2472 -0.2742
 1848TIP3   OH229738   4.364   3.922  18.610 -0.4149  0.0820 -0.6795
 1848TIP3    H129739   4.381   4.016  18.609  0.3131 -0.0234 -2.2056
 1848TIP3    H229740   4.412   3.889  18.686  1.1943  0.6700 -1.3861
 1849TIP3   OH229741   6.350   5.972  20.264  0.1660 -0.3742  0.2577
 1849TIP3    H129742   6.260   5.940  20.258  0.2876 -1.5098  2.9722
 1849TIP3    H229743   6.354   6.043  20.200 -1.9315 -1.7830 -1.6085
 1850TIP3   OH229744   6.326   4.450  18.276 -0.0452  0.4036  0.5711
 1850TIP3    H129745   6.390   4.471  18.208 -1.2265 -1.5922 -1.2763
 1850TIP3    H229746   6.251   4.508  18.257  0.0334  0.5980  0.8472
 1851TIP3   OH229747   5.820   4.597  18.767  0.0667 -0.0334 -0.2280
 1851TIP3    H129748   5.829   4.623  18.859 -1.1985  2.0299 -0.6217
 1851TIP3    H229749   5.726   4.584  18.755  0.1622  0.2488 -1.3650
 1852TIP3   OH229750   2.129   6.092  18.897  0.2680  0.0190 -0.1868
 1852TIP3    H129751   2.142   6.181  18.928  1.9578 -1.1712  2.9651
 1852TIP3    H229752   2.217   6.059  18.880 -0.4169 -0.4818 -3.5066
 1853TIP3   OH229753   3.697   6.233  19.335 -0.1559  0.5043  0.1711
 1853TIP3    H129754   3.724   6.142  19.322 -1.7954 -0.2188  1.5013
 1853TIP3    H229755   3.610   6.239  19.297  0.0913  1.6562 -0.2703
 1854TIP3   OH229756   5.279   5.694  18.370  0.5548  0.1037 -0.2695
 1854TIP3    H129757   5.366   5.714  18.406  0.8008  1.0168 -1.3247
 1854TIP3    H229758   5.286   5.605  18.337  0.6019 -0.4128  1.0467
 1855TIP3   OH229759   5.985   5.632  18.004  0.2528  0.4620 -0.3750
 1855TIP3    H129760   5.916   5.696  18.026  1.6742  1.4903  1.3613
 1855TIP3    H229761   6.007   5.651  17.913 -1.2286  0.6129 -0.7260
 1856TIP3   OH229762   2.154   4.168  18.261 -0.2443  0.0827 -0.4471
 1856TIP3    H129763   2.243   4.176  18.294 -0.6293  1.7362  0.2573
 1856TIP3    H229764   2.102   4.141  18.337 -0.1441 -2.5738 -1.2085
 1857TIP3   OH229765   0.391   5.513  20.417  0.3362  0.6763  0.5322
 1857TIP3    H129766   0.305   5.554  20.422  0.6331  1.4114 -0.1863
 1857TIP3    H229767   0.396   5.457  20.495 -1.0032  0.1890  0.2912
 1858TIP3   OH229768   4.293   4.894  18.894  0.3169 -0.1628 -0.2127
 1858TIP3    H129769   4.302   4.895  18.989  0.3362 -0.0194 -0.2159
 1858TIP3    H229770   4.280   4.986  18.870 -0.2080 -0.2519 -0.2990
 1859TIP3   OH229771   1.181   6.405  16.895  0.0561  0.4594  0.1027
 1859TIP3    H129772   1.187   6.310  16.885  0.9026  0.5682 -0.5578
 1859TIP3    H229773   1.087   6.423  16.899 -0.1012 -0.4740  1.0186
 1860TIP3   OH229774   2.162   4.765  17.848  0.4657 -0.0952  0.0257
 1860TIP3    H129775   2.107   4.695  17.811  0.2273 -0.0583  0.3060
 1860TIP3    H229776   2.168   4.743  17.941  0.1982  0.3864  0.1596
 1861TIP3   OH229777   2.290   0.846  19.934  0.1214  0.6623  0.3070
 1861TIP3    H129778   2.239   0.911  19.983 -0.2930 -0.1299  0.9498
 1861TIP3    H229779   2.333   0.793  20.002 -1.1671 -1.0170 -0.1189
 1862TIP3   OH229780   2.038   6.265  19.319 -0.4957 -0.4197  0.6769
 1862TIP3    H129781   2.089   6.208  19.262 -1.2754 -0.8233  0.3731
 1862TIP3    H229782   2.063   6.239  19.408  0.2446 -0.2213  0.5401
 1863TIP3   OH229783   1.069   3.912  19.971 -0.3467 -0.0381  0.3541
 1863TIP3    H129784   1.159   3.885  19.953 -0.0480  0.0745  1.5442
 1863TIP3    H229785   1.038   3.849  20.037 -0.4850  1.0099  1.3261
 1864TIP3   OH229786   6.584   0.546  19.855  0.1007 -0.9908 -0.0777
 1864TIP3    H129787   6.548   0.556  19.767  0.2034  0.3531  0.0121
 1864TIP3    H229788   6.674   0.517  19.841  0.2951 -0.2310 -0.4366
 1865TIP3   OH229789   4.115   1.739  20.197  0.1787 -0.2127 -0.1975
 1865TIP3    H129790   4.073   1.667  20.149 -0.3998 -0.6531  0.9334
 1865TIP3    H229791   4.044   1.779  20.247  0.8407 -0.0638  0.6486
 1866TIP3   OH229792   4.222   0.345  18.300 -0.1899 -0.5043 -0.0661
 1866TIP3    H129793   4.137   0.340  18.255 -0.7283 -3.8013  1.0040
 1866TIP3    H229794   4.199   0.370  18.390  0.1009 -0.3532 -0.0346
 1867TIP3   OH229795   4.031   6.520  18.856 -0.3394 -0.2603 -0.0090
 1867TIP3    H129796   3.988   6.598  18.820 -0.5046 -0.1632  0.3894
 1867TIP3    H229797   4.123   6.530  18.832 -0.0925  0.7542  1.1872
 1868TIP3   OH229798   2.428   2.842  18.184 -0.2048  0.1711 -0.2817
 1868TIP3    H129799   2.440   2.751  18.212  0.4551  0.1998 -0.4576
 1868TIP3    H229800   2.348   2.870  18.228  0.3663 -0.0398  0.9191
 1869TIP3   OH229801   6.669   4.804  19.388 -0.4638  0.1511  0.5101
 1869TIP3    H129802   6.601   4.762  19.441  0.3637 -0.1793  1.3456
 1869TIP3    H229803   6.621   4.858  19.325 -1.4930 -0.0294  1.1182
 1870TIP3   OH229804   5.583   0.292  17.665 -0.2834  0.1502 -0.2372
 1870TIP3    H129805   5.591   0.264  17.756 -0.9376 -0.1943 -0.2755
 1870TIP3    H229806   5.516   0.234  17.628  0.8352 -0.5341 -1.2718
 1871TIP3   OH229807   5.512   1.972  17.783  0.1303  0.1302  0.4281
 1871TIP3    H129808   5.473   1.994  17.868  2.5878  0.4965  1.5413
 1871TIP3    H229809   5.509   2.053  17.733  0.1238  0.3514  0.7867
 1872TIP3   OH229810   6.317   0.321  19.582 -0.4295  0.0420  0.1162
 1872TIP3    H129811   6.322   0.234  19.623  0.0742 -0.1962 -0.4380
 1872TIP3    H229812   6.407   0.354  19.587 -0.4551  0.1925 -0.4089
 1873TIP3   OH229813   0.782   1.016  18.753  0.5003  0.0876 -0.2948
 1873TIP3    H129814   0.792   0.973  18.668 -1.3823 -0.7393 -0.1561
 1873TIP3    H229815   0.709   1.077  18.741 -1.7340 -2.0083  1.3207
 1874TIP3   OH229816   6.383   0.140  20.159  0.2199  0.0408  0.1596
 1874TIP3    H129817   6.314   0.200  20.189 -0.5604 -0.9111  0.3212
 1874TIP3    H229818   6.446   0.197  20.114 -1.0622  0.8422 -0.7094
 1875TIP3   OH229819   1.777   4.003  18.068  0.2008  0.2308 -0.1985
 1875TIP3    H129820   1.810   4.092  18.083 -0.3908  0.5777 -0.8534
 1875TIP3    H229821   1.711   3.990  18.135  1.4907 -0.3944  1.0010
 1876TIP3   OH229822   0.440   6.188  19.883  0.2770 -0.4972  0.0982
 1876TIP3    H129823   0.375   6.149  19.825  1.2835 -0.7073 -0.9280
 1876TIP3    H229824   0.508   6.222  19.824  0.8985  0.0857  1.1147
 1877TIP3   OH229825   0.418   4.508  19.749 -0.3634 -0.0582 -0.4521
 1877TIP3    H129826   0.377   4.484  19.666 -0.3737  2.3672 -1.2225
 1877TIP3    H229827   0.430   4.603  19.744 -0.0269  0.1293  2.1797
 1878TIP3   OH229828   1.524   6.086  18.358  0.0126  0.1694 -0.3136
 1878TIP3    H129829   1.545   6.122  18.445 -0.0170 -0.7283  0.0810
 1878TIP3    H229830   1.525   6.162  18.300  1.7902  0.5443  0.1463
 1879TIP3   OH229831   6.542   4.347  19.071 -0.0670  0.5003 -0.0120
 1879TIP3    H129832   6.595   4.277  19.032 -1.6531 -0.8124  0.0942
 1879TIP3    H229833   6.587   4.427  19.046  1.0822 -0.4897 -1.2838
 1880TIP3   OH229834   4.491   4.485  18.479  0.3325 -0.3775  0.0842
 1880TIP3    H129835   4.529   4.569  18.451 -2.1413  0.9700  0.4241
 1880TIP3    H229836   4.518   4.475  18.570  0.3173  0.2807  0.1667
 1881TIP3   OH229837   6.590   1.152  18.649 -1.0774  0.4950  0.6867
 1881TIP3    H129838   6.647   1.166  18.724 -1.4195  0.9625  0.8634
 1881TIP3    H229839   6.528   1.225  18.652 -1.6723  0.0078  0.4957
 1882TIP3   OH229840   3.624   2.741  18.129 -0.2085  0.4870  0.0225
 1882TIP3    H129841   3.683   2.786  18.070  0.0912  1.5067  1.0600
 1882TIP3    H229842   3.539   2.744  18.085  0.6841 -2.3689 -2.2241
 1883TIP3   OH229843   3.021   5.399  18.437 -0.5189  0.0499  0.1421
 1883TIP3    H129844   2.962   5.433  18.505  0.7681 -1.1043  1.9485
 1883TIP3    H229845   3.096   5.459  18.440  0.1827 -0.8254  0.8276
 1884TIP3   OH229846   5.985   5.771  19.134  0.4954  0.5430  0.0261
 1884TIP3    H129847   5.963   5.748  19.044 -0.6655 -2.0250  0.8626
 1884TIP3    H229848   5.926   5.843  19.156  1.0086  1.4026 -1.3345
 1885TIP3   OH229849   1.409   4.210  19.471  0.1313 -0.2753 -0.3063
 1885TIP3    H129850   1.440   4.208  19.561  0.6750  1.6847 -0.4180
 1885TIP3    H229851   1.402   4.303  19.449 -1.9446 -0.6861 -1.6363
 1886TIP3   OH229852   1.074   2.064  19.694 -0.1919 -0.0315 -0.0724
 1886TIP3    H129853   1.052   2.036  19.783  0.5418 -1.5074 -0.3301
 1886TIP3    H229854   1.133   1.997  19.661 -0.9235  0.1572 -1.9111
 1887TIP3   OH229855   1.442   0.479  19.588 -0.2279 -0.0779  0.4349
 1887TIP3    H129856   1.397   0.410  19.635 -1.5418  0.0281 -0.6098
 1887TIP3    H229857   1.436   0.453  19.496  0.5523  0.6944  0.1484
 1888TIP3   OH229858   1.216   3.215  20.129 -0.2241  0.5342  0.3366
 1888TIP3    H129859   1.282   3.210  20.060 -1.4826 -0.9995 -0.8138
 1888TIP3    H229860   1.240   3.147  20.191  0.1760  1.0642  0.7764
 1889TIP3   OH229861   0.614   3.913  18.548 -0.0234  0.4314  0.4768
 1889TIP3    H129862   0.630   3.997  18.506  0.8823 -0.8006 -1.8698
 1889TIP3    H229863   0.566   3.934  18.628 -0.8366  3.0620 -0.5993
 1890TIP3   OH229864   5.621   2.650  19.872  0.0128  0.2414 -0.6682
 1890TIP3    H129865   5.634   2.592  19.797 -1.3336  1.8288 -2.2445
 1890TIP3    H229866   5.550   2.610  19.921  0.5839 -0.5699 -0.4814
 1891TIP3   OH229867   2.683   1.774  20.243  0.0251  0.3971  0.1079
 1891TIP3    H129868   2.616   1.706  20.245  0.0176  0.2490 -2.4271
 1891TIP3    H229869   2.764   1.728  20.224  0.2101  0.9486 -0.5013
 1892TIP3   OH229870   1.449   4.664  19.815 -0.8513  0.1325  0.5445
 1892TIP3    H129871   1.379   4.645  19.877  1.0287 -0.6581  2.5534
 1892TIP3    H229872   1.461   4.759  19.820 -1.2286  0.1658  0.8187
 1893TIP3   OH229873   5.134   4.607  18.849 -0.5685  0.0241  0.1653
 1893TIP3    H129874   5.058   4.561  18.813  1.0348 -0.2419 -3.2813
 1893TIP3    H229875   5.200   4.539  18.858 -0.4119  0.3925  2.4251
 1894TIP3   OH229876   1.656   0.819  19.552  0.1339 -0.0394  0.6558
 1894TIP3    H129877   1.622   0.750  19.494  0.0891  0.2465  0.3372
 1894TIP3    H229878   1.585   0.836  19.613  0.8459 -1.6406  1.9867
 1895TIP3   OH229879   5.589   6.434  20.165  0.1341 -0.3928  0.0729
 1895TIP3    H129880   5.564   6.468  20.251  1.2430 -1.3600  0.8100
 1895TIP3    H229881   5.515   6.379  20.139  0.6937 -1.9436  1.5044
 1896TIP3   OH229882   2.576   5.171  19.964  0.2109 -0.1072 -0.5864
 1896TIP3    H129883   2.609   5.140  19.880  0.6084 -2.5491  0.3670
 1896TIP3    H229884   2.482   5.150  19.962  0.5478 -1.9554  0.2044
 1897TIP3   OH229885   1.635   2.613  18.210 -0.3872 -0.0946  0.4807
 1897TIP3    H129886   1.663   2.695  18.170  0.1423 -0.4481  0.1226
 1897TIP3    H229887   1.657   2.546  18.146  0.5260 -0.6775  1.3821
 1898TIP3   OH229888   4.948   4.353  18.173 -0.4864 -0.2099 -0.1555
 1898TIP3    H129889   4.995   4.383  18.095 -1.4662 -1.1625 -1.1373
 1898TIP3    H229890   5.001   4.386  18.246 -0.1152  1.6208 -1.1776
 1899TIP3   OH229891   0.263   1.560  17.240 -0.4315  0.0076 -0.0846
 1899TIP3    H129892   0.298   1.484  17.193 -0.2426  0.2302 -0.3052
 1899TIP3    H229893   0.199   1.523  17.301  1.9978 -0.7118  2.1935
 1900TIP3   OH229894   6.657   1.809  18.274 -0.1166  0.2651  0.1452
 1900TIP3    H129895   6.596   1.862  18.326 -0.1806 -0.4076  0.7850
 1900TIP3    H229896   6.730   1.791  18.334  1.0014  1.5346 -0.7937
 1901TIP3   OH229897   2.715   4.616  18.400 -0.3049  0.3164 -0.1904
 1901TIP3    H129898   2.796   4.592  18.354  1.4789  0.4627  2.5844
 1901TIP3    H229899   2.668   4.534  18.411  0.8340 -0.2649  0.5151
 1902TIP3   OH229900   1.244   3.657  18.920  0.0457 -0.2890  0.3214
 1902TIP3    H129901   1.325   3.628  18.963  0.0419 -1.3882 -0.3767
 1902TIP3    H229902   1.197   3.705  18.988  1.0576 -0.0637  0.8833
 1903TIP3   OH229903   3.401   2.137  16.920 -0.1445  0.0934  0.1712
 1903TIP3    H129904   3.434   2.133  16.830  1.2044 -1.8672  0.7005
 1903TIP3    H229905   3.315   2.096  16.916  1.0316 -2.5469  0.1825
 1904TIP3   OH229906   2.698   3.800  19.266 -0.1442 -0.1516 -0.1714
 1904TIP3    H129907   2.755   3.876  19.279 -0.1936  0.2318 -1.9299
 1904TIP3    H229908   2.617   3.836  19.230  0.1588 -1.0638 -1.9130
 1905TIP3   OH229909   2.173   6.426  20.189 -0.8446 -0.1809 -0.0568
 1905TIP3    H129910   2.257   6.392  20.158 -1.2326 -0.0661 -1.2823
 1905TIP3    H229911   2.187   6.520  20.200 -0.6431 -0.2560  0.3637
 1906TIP3   OH229912   0.664   2.283  20.244 -0.5887  0.0246  0.3772
 1906TIP3    H129913   0.661   2.372  20.280 -0.7745  0.4969 -0.7434
 1906TIP3    H229914   0.583   2.276  20.193 -0.0351 -0.3606 -0.4803
 1907TIP3   OH229915   1.049   5.689  17.461 -0.3357 -0.4112 -0.0785
 1907TIP3    H129916   1.024   5.688  17.553 -0.4914 -1.5122 -0.1138
 1907TIP3    H229917   1.128   5.635  17.457  1.4974  2.0853 -0.1392
 1908TIP3   OH229918   1.717   1.231  18.736 -0.1599  0.0290  0.1921
 1908TIP3    H129919   1.683   1.144  18.714 -0.8524  0.1346  0.8180
 1908TIP3    H229920   1.808   1.214  18.763 -0.3176 -0.5210  0.4109
 1909TIP3   OH229921   5.368   6.181  18.793 -0.1496 -0.3152 -0.1741
 1909TIP3    H129922   5.372   6.157  18.700 -1.0443 -0.1766 -0.2565
 1909TIP3    H229923   5.396   6.273  18.794 -0.5004 -0.2062 -0.3517
 1910TIP3   OH229924   1.800   6.041  19.382  0.1603  0.2270 -0.1635
 1910TIP3    H129925   1.840   5.961  19.415 -0.9244 -1.7140 -3.0959
 1910TIP3    H229926   1.874   6.093  19.351  0.7998 -0.4361  0.2144
 1911TIP3   OH229927   2.875   3.528  19.913 -0.1443  0.4812  0.2954
 1911TIP3    H129928   2.947   3.468  19.931 -0.1566  0.8038  1.5027
 1911TIP3    H229929   2.809   3.474  19.868  0.3771 -0.0777  0.1899
 1912TIP3   OH229930   3.912   3.195  18.838 -0.0168 -0.9480 -0.5401
 1912TIP3    H129931   3.980   3.261  18.839  0.6749 -1.6520 -0.1998
 1912TIP3    H229932   3.945   3.127  18.779 -0.5684 -1.1447 -0.6308
 1913TIP3   OH229933   6.313   1.869  18.076  0.8104 -0.1658 -0.3770
 1913TIP3    H129934   6.356   1.943  18.035  0.6032  1.1547  1.6473
 1913TIP3    H229935   6.228   1.863  18.031  0.8536  0.8027 -0.6147
 1914TIP3   OH229936   4.162   1.557  18.706  0.0384  0.6366  0.3119
 1914TIP3    H129937   4.216   1.487  18.668  1.1693  1.6115  0.0703
 1914TIP3    H229938   4.094   1.572  18.641 -0.0421 -0.0176  0.2306
 1915TIP3   OH229939   6.249   4.207  17.969 -0.1148 -0.1493  0.2214
 1915TIP3    H129940   6.312   4.209  18.041  0.0916 -1.5851  0.1052
 1915TIP3    H229941   6.216   4.297  17.964  0.8144  0.2765  1.2572
 1916TIP3   OH229942   5.485   1.221  19.144 -0.3674 -0.1778  0.0245
 1916TIP3    H129943   5.472   1.150  19.208  1.4622 -0.9434 -0.3761
 1916TIP3    H229944   5.467   1.181  19.059 -1.0220  0.3366 -0.0865
 1917TIP3   OH229945   2.235   1.736  20.415 -0.2577 -0.8698  0.6432
 1917TIP3    H129946   2.297   1.776  20.354 -0.1607 -1.3287  0.4380
 1917TIP3    H229947   2.227   1.799  20.486  0.4905 -0.8309  0.6967
 1918TIP3   OH229948   1.843   0.142  17.272  0.6996 -0.1337 -0.7929
 1918TIP3    H129949   1.900   0.086  17.219  1.2229  0.1618 -0.5521
 1918TIP3    H229950   1.766   0.157  17.218  0.6877 -0.8443 -0.9757
 1919TIP3   OH229951   1.104   0.025  17.760  0.1311  0.0324 -0.2944
 1919TIP3    H129952   1.098  -0.011  17.672 -1.8477  1.0040 -0.6165
 1919TIP3    H229953   1.077   0.116  17.751  0.5223  0.3305  1.2282
 1920TIP3   OH229954   3.201   1.556  17.297  0.2760 -0.2191 -0.2237
 1920TIP3    H129955   3.263   1.563  17.225 -1.5194 -0.8542 -1.8975
 1920TIP3    H229956   3.167   1.645  17.309  1.4081  0.1167  0.6552
 1921TIP3   OH229957   2.054   0.875  18.260  0.5101  0.1746  0.0723
 1921TIP3    H129958   2.016   0.842  18.341  1.5093  1.3702  1.0671
 1921TIP3    H229959   1.979   0.885  18.200 -0.1413 -1.3758  0.5887
 1922TIP3   OH229960   3.930   4.184  19.997 -0.2264  0.0508 -1.1674
 1922TIP3    H129961   3.972   4.185  20.083  0.4125  0.9029 -1.4768
 1922TIP3    H229962   3.856   4.124  20.007  0.4000 -0.5949 -0.2939
 1923TIP3   OH229963   4.051   1.823  19.185  0.1509 -0.4491  0.2773
 1923TIP3    H129964   3.956   1.822  19.183  0.1506 -1.7590 -1.5343
 1923TIP3    H229965   4.078   1.819  19.093  2.0082  2.5419  0.5492
 1924TIP3   OH229966   2.994   0.844  20.258 -0.0351  0.3768  0.3309
 1924TIP3    H129967   2.965   0.773  20.201  0.6058  0.3038  0.0939
 1924TIP3    H229968   2.915   0.896  20.274 -0.8055 -1.0804  1.5245
 1925TIP3   OH229969   0.383   5.878  18.579 -0.3661  0.1072 -0.4294
 1925TIP3    H129970   0.373   5.803  18.637 -1.3855  0.2484 -0.4155
 1925TIP3    H229971   0.295   5.913  18.569  0.1056  1.4035 -0.3020
 1926TIP3   OH229972   4.665   0.659  18.644  0.3510  0.4008 -0.5311
 1926TIP3    H129973   4.733   0.714  18.605  1.2575 -0.6827 -0.5362
 1926TIP3    H229974   4.713   0.586  18.684 -0.8478 -0.9595 -1.4491
 1927TIP3   OH229975   2.616   2.140  18.225 -0.1421  0.1764 -0.2760
 1927TIP3    H129976   2.672   2.094  18.288 -1.4393 -0.3511  0.5438
 1927TIP3    H229977   2.595   2.223  18.268 -2.0717 -0.7100  0.6364
 1928TIP3   OH229978   2.140   0.337  18.802  0.1244 -0.1712  0.1818
 1928TIP3    H129979   2.146   0.433  18.793 -0.8396 -0.0166  1.0125
 1928TIP3    H229980   2.059   0.314  18.756  1.9328 -1.0519 -2.8953
 1929TIP3   OH229981   5.092   1.305  17.484 -0.5523 -0.2751 -0.5104
 1929TIP3    H129982   5.153   1.259  17.428 -1.1714 -0.6108 -0.9160
 1929TIP3    H229983   5.015   1.320  17.429 -0.3524  1.3003 -0.4235
 1930TIP3   OH229984   6.515   3.442  20.354 -0.1590 -0.5580  0.5658
 1930TIP3    H129985   6.508   3.434  20.259  0.9021 -0.1609  0.4434
 1930TIP3    H229986   6.559   3.526  20.368 -0.1139 -0.7149  1.4029
 1931TIP3   OH229987   0.919   2.296  18.264 -0.2905 -0.0068  0.1575
 1931TIP3    H129988   0.916   2.259  18.176 -2.0227  0.1956  0.0833
 1931TIP3    H229989   0.959   2.382  18.253  1.6556 -0.8904 -0.0294
 1932TIP3   OH229990   4.581   1.289  18.360 -0.2665  0.0874 -0.0469
 1932TIP3    H129991   4.557   1.353  18.294  0.5857  0.7183  0.2329
 1932TIP3    H229992   4.639   1.228  18.314  0.4631  0.6232  0.1472
 1933TIP3   OH229993   4.576   2.962  20.199  0.2018 -0.5519  0.3829
 1933TIP3    H129994   4.623   2.880  20.215  1.4621  0.1714  0.4742
 1933TIP3    H229995   4.629   3.029  20.242  0.6080  0.6687 -1.9044
 1934TIP3   OH229996   2.128   4.044  17.210  0.5965 -0.2349  0.4133
 1934TIP3    H129997   2.060   4.112  17.216 -0.1654 -0.7409 -1.5146
 1934TIP3    H229998   2.210   4.090  17.227 -0.0391  0.8417  0.6607
 1935TIP3   OH229999   0.593   1.611  18.129 -0.3839  0.0380  0.0355
 1935TIP3    H130000   0.662   1.602  18.062  0.6320 -0.9245  1.1689
 1935TIP3    H230001   0.545   1.689  18.103 -0.7283 -0.9038 -2.4496
 1936TIP3   OH230002   6.390   1.392  19.692 -0.0930 -0.0951  0.4850
 1936TIP3    H130003   6.399   1.430  19.779  1.0129 -0.9183  0.7544
 1936TIP3    H230004   6.467   1.424  19.644 -0.0279 -0.6585  0.2084
 1937TIP3   OH230005   6.431   0.411  18.571  0.5086  0.1258  0.0424
 1937TIP3    H130006   6.521   0.387  18.591  0.8750  0.7883 -0.7326
 1937TIP3    H230007   6.381   0.331  18.585  1.4644 -0.7010 -1.0467
 1938TIP3   OH230008   5.079   0.423  19.861 -0.1167 -0.4021 -0.0901
 1938TIP3    H130009   5.113   0.356  19.801 -1.5882  0.1518 -1.6428
 1938TIP3    H230010   5.132   0.501  19.843  1.0222 -0.8703  1.0960
 1939TIP3   OH230011   0.714   2.308  19.054 -0.5746 -0.2440  0.3787
 1939TIP3    H130012   0.709   2.213  19.065 -0.3226 -0.0072  3.2151
 1939TIP3    H230013   0.772   2.321  18.979  1.5346 -2.3295  1.5300
 1940TIP3   OH230014   5.334   3.539  19.476  0.7456  0.0075 -0.5245
 1940TIP3    H130015   5.275   3.534  19.551  1.3275  0.1982 -0.0410
 1940TIP3    H230016   5.286   3.590  19.411  0.9210  1.4500  0.4077
 1941TIP3   OH230017   4.971   5.362  18.125 -0.4593 -0.4294  0.3791
 1941TIP3    H130018   5.022   5.437  18.096 -1.2268  0.5884  1.5700
 1941TIP3    H230019   4.956   5.377  18.218 -0.1094 -2.3738  0.8046
 1942TIP3   OH230020   1.088   1.538  16.668  0.5560  0.1864 -0.5909
 1942TIP3    H130021   1.096   1.480  16.592  1.9294 -0.1787 -0.1976
 1942TIP3    H230022   1.164   1.596  16.661  0.3523  0.5440  0.1648
 1943TIP3   OH230023   4.033   1.142  18.275  0.2728 -0.3036 -0.5998
 1943TIP3    H130024   4.061   1.208  18.211 -2.0534  0.1509 -1.2116
 1943TIP3    H230025   3.941   1.161  18.291  0.5186 -0.9986  2.2150
 1944TIP3   OH230026   6.376   3.664  18.525  0.5855 -0.4633 -0.0638
 1944TIP3    H130027   6.424   3.745  18.511  1.3628 -0.4431  2.2663
 1944TIP3    H230028   6.436   3.595  18.497  0.2839 -0.3046 -1.1589
 1945TIP3   OH230029   2.355   2.106  18.548 -0.2392  0.3353 -0.7541
 1945TIP3    H130030   2.283   2.122  18.609  0.4259  0.3191  0.0462
 1945TIP3    H230031   2.371   2.012  18.552  1.9246  0.7106  1.5352
 1946TIP3   OH230032   3.922   3.267  17.914  0.0064  0.4773 -0.4967
 1946TIP3    H130033   3.853   3.211  17.878  1.1823 -1.3192 -0.0628
 1946TIP3    H230034   3.924   3.245  18.007  1.4331  0.1728 -0.5835
 1947TIP3   OH230035   3.882   1.544  16.507  0.2643  0.0203  0.0056
 1947TIP3    H130036   3.825   1.549  16.584  1.4128  0.4580  0.8405
 1947TIP3    H230037   3.858   1.461  16.465 -0.2776 -0.2902  0.9086
 1948TIP3   OH230038   3.514   5.594  18.414  0.6018 -0.5450 -0.3003
 1948TIP3    H130039   3.584   5.554  18.465  0.3799 -0.2308  0.2561
 1948TIP3    H230040   3.539   5.686  18.407  0.4566 -0.5174 -0.4652
 1949TIP3   OH230041   3.766   3.716  18.601  0.1997 -0.9767 -0.0486
 1949TIP3    H130042   3.777   3.696  18.694 -0.3748 -1.1288 -0.0132
 1949TIP3    H230043   3.673   3.705  18.584  0.2776 -0.8223 -0.6167
 1950TIP3   OH230044   0.218   4.125  18.840  0.2157 -0.0136 -0.2356
 1950TIP3    H130045   0.129   4.154  18.860  0.2008 -0.7404  0.8337
 1950TIP3    H230046   0.273   4.201  18.862  0.0158 -0.1651  0.8549
 1951TIP3   OH230047   2.793   1.126  19.303  0.1696 -0.0080  0.1356
 1951TIP3    H130048   2.824   1.113  19.393 -0.2240 -2.2216  0.0263
 1951TIP3    H230049   2.771   1.037  19.273 -0.2332  0.7494 -1.9603
 1952TIP3   OH230050   5.284   5.669  19.999 -0.2126  0.0220 -0.1968
 1952TIP3    H130051   5.204   5.617  19.993  0.4453 -1.0550  0.0466
 1952TIP3    H230052   5.295   5.706  19.912 -0.6361 -0.3524 -0.4148
 1953TIP3   OH230053   0.232   3.871  18.547  0.3601  0.4927 -0.1506
 1953TIP3    H130054   0.169   3.826  18.604 -0.2097  0.1244 -1.0471
 1953TIP3    H230055   0.296   3.909  18.607  0.6352 -1.1715  0.6666
 1954TIP3   OH230056   3.207   1.685  16.713 -0.0526  0.5261  0.0258
 1954TIP3    H130057   3.152   1.646  16.645 -1.2518  2.0393  0.0562
 1954TIP3    H230058   3.147   1.699  16.787  0.6290  1.2025  0.4645
 1955TIP3   OH230059   6.249   0.055  19.690  0.6944 -0.5462  0.0257
 1955TIP3    H130060   6.260  -0.030  19.648  0.1098 -0.4204 -0.3895
 1955TIP3    H230061   6.154   0.070  19.690  0.7507 -0.1628  0.6299
 1956TIP3   OH230062   2.370   2.407  19.016 -0.4259  0.0569 -0.6760
 1956TIP3    H130063   2.464   2.411  18.996 -0.1593  0.5477  0.5785
 1956TIP3    H230064   2.353   2.488  19.065 -1.5313  0.0302 -0.9975
 1957TIP3   OH230065   3.856   0.529  18.340 -0.2462  0.9919 -0.6253
 1957TIP3    H130066   3.774   0.489  18.369 -0.3815  1.4470 -0.3798
 1957TIP3    H230067   3.850   0.528  18.245 -0.7269  1.4061 -0.6064
 1958TIP3   OH230068   5.323   5.684  20.729 -0.0584 -0.4775  0.8186
 1958TIP3    H130069   5.414   5.673  20.700 -0.5105  4.3215 -4.0810
 1958TIP3    H230070   5.327   5.755  20.793 -0.2823  0.5527 -0.2620
 1959TIP3   OH230071   2.126   6.685  17.378 -0.0981 -0.2541  0.1787
 1959TIP3    H130072   2.136   6.755  17.442 -1.5186 -0.3022  0.4860
 1959TIP3    H230073   2.187   6.707  17.307  0.9397  0.1969  1.1858
 1960TIP3   OH230074   6.685   3.007  18.063  0.1859  0.3520  0.0950
 1960TIP3    H130075   6.590   3.001  18.068  0.1207 -0.1680 -1.4861
 1960TIP3    H230076   6.710   3.060  18.140 -1.3381  0.2800  0.6594
 1961TIP3   OH230077   4.068   2.711  18.593 -0.3588 -0.1208  0.3851
 1961TIP3    H130078   4.131   2.651  18.632 -0.1812 -0.3843 -0.3075
 1961TIP3    H230079   4.006   2.730  18.664  0.1634 -0.3178  0.8960
 1962TIP3   OH230080   0.340   6.531  19.415 -0.5236  0.9479 -0.4886
 1962TIP3    H130081   0.278   6.600  19.390 -0.2311  1.2760 -0.3209
 1962TIP3    H230082   0.424   6.577  19.423  0.3444  0.0937 -3.4293
 1963TIP3   OH230083   1.272   4.097  17.597 -0.2798  0.1778 -0.0351
 1963TIP3    H130084   1.241   4.008  17.612  0.1785  0.0973  0.4461
 1963TIP3    H230085   1.255   4.142  17.680  0.8327  0.1510  0.2127
 1964TIP3   OH230086   3.615   5.453  20.364  0.3348 -0.0790  0.4465
 1964TIP3    H130087   3.574   5.381  20.412 -0.6203 -0.4011 -0.8143
 1964TIP3    H230088   3.688   5.480  20.420  0.0184 -1.2577  1.4786
 1965TIP3   OH230089   3.613   1.311  19.271 -0.1574  0.3829 -0.5499
 1965TIP3    H130090   3.605   1.376  19.340 -0.4026 -1.0424  0.8065
 1965TIP3    H230091   3.679   1.347  19.211 -1.2571  2.4832 -0.5902
 1966TIP3   OH230092   4.401   2.916  19.312 -0.3522 -0.1181 -0.1455
 1966TIP3    H130093   4.332   2.959  19.364 -0.1642 -0.2362  0.2096
 1966TIP3    H230094   4.483   2.955  19.344 -0.3014  0.6882 -1.2068
 1967TIP3   OH230095   6.384   2.753  17.738  0.4315 -0.3812  0.0146
 1967TIP3    H130096   6.383   2.790  17.650  2.1724  1.1598  0.5680
 1967TIP3    H230097   6.359   2.826  17.795 -1.1559 -1.4822  0.8033
 1968TIP3   OH230098   5.359   1.449  19.629  0.0867  0.5863 -0.3650
 1968TIP3    H130099   5.436   1.408  19.591  0.2307 -0.9501  1.4207
 1968TIP3    H230100   5.293   1.445  19.560  0.8824 -0.3570 -1.0959
 1969TIP3   OH230101   1.535   6.494  20.156  0.1130  0.2386  0.4840
 1969TIP3    H130102   1.628   6.489  20.132 -0.0821 -0.5081 -0.1437
 1969TIP3    H230103   1.491   6.521  20.076 -0.4657 -1.6010  0.1515
 1970TIP3   OH230104   6.203   2.148  19.213  0.3585 -0.1628 -0.0726
 1970TIP3    H130105   6.222   2.083  19.145  2.3111  0.8146 -0.5381
 1970TIP3    H230106   6.114   2.129  19.240  0.2159 -1.8243 -1.5348
 1971TIP3   OH230107   5.334   4.608  17.984 -0.5666  0.2419 -0.8139
 1971TIP3    H130108   5.269   4.561  17.932 -0.0999 -0.1435 -1.0503
 1971TIP3    H230109   5.313   4.700  17.970 -0.8330  0.1279 -1.1859
 1972TIP3   OH230110   0.730   5.583  17.090 -0.2948 -0.5864 -0.2550
 1972TIP3    H130111   0.735   5.549  17.179 -1.0793 -0.2516 -0.0716
 1972TIP3    H230112   0.664   5.528  17.047 -1.3036  0.4394 -0.0641
 1973TIP3   OH230113   2.537   5.605  19.147  0.3477  0.5003  0.5751
 1973TIP3    H130114   2.513   5.514  19.162  0.8234  0.1792 -0.5190
 1973TIP3    H230115   2.468   5.656  19.190 -0.8324 -0.3793 -0.2330
 1974TIP3   OH230116   5.361   4.297  19.730 -0.2752  0.1552  0.0817
 1974TIP3    H130117   5.435   4.240  19.750  0.8215  1.8725  1.1971
 1974TIP3    H230118   5.315   4.306  19.814  0.3223  1.8841  0.2612
 1975TIP3   OH230119   2.267   5.476  17.751  0.3140 -0.1100 -0.1641
 1975TIP3    H130120   2.217   5.403  17.714 -0.5427  0.1774  0.3840
 1975TIP3    H230121   2.287   5.448  17.840  2.9150 -1.0671 -0.9657
 1976TIP3   OH230122   3.981   6.198  19.682  0.2737  0.6600 -0.0578
 1976TIP3    H130123   3.931   6.161  19.754  0.0303 -2.2275 -1.5437
 1976TIP3    H230124   3.929   6.272  19.651 -2.0403 -0.8932 -0.1441
 1977TIP3   OH230125   4.516   2.211  17.376 -0.1237 -0.7638 -0.0615
 1977TIP3    H130126   4.456   2.252  17.314 -0.6955 -2.5374 -0.7441
 1977TIP3    H230127   4.600   2.208  17.329  0.0361 -0.0006  0.1640
 1978TIP3   OH230128   6.290   4.969  17.237 -0.3052 -0.4373  0.2788
 1978TIP3    H130129   6.230   4.963  17.311 -1.4982 -0.0151 -0.6292
 1978TIP3    H230130   6.311   4.878  17.216 -0.7556 -0.5999  0.5147
 1979TIP3   OH230131   0.605   3.031  18.613 -0.3782 -0.1502  0.3075
 1979TIP3    H130132   0.679   3.032  18.674  0.6720  1.2032 -0.9284
 1979TIP3    H230133   0.559   3.113  18.630  1.2364  1.3937 -2.1662
 1980TIP3   OH230134   5.611   5.843  16.700  0.9616 -0.1241  0.0404
 1980TIP3    H130135   5.534   5.898  16.683  0.8188  0.0163  1.0780
 1980TIP3    H230136   5.576   5.754  16.705  1.3156 -0.4941 -2.5600
 1981TIP3   OH230137   0.361   1.479  20.049  0.0347 -0.5898  0.2990
 1981TIP3    H130138   0.296   1.499  20.117  0.1850  1.1867 -0.0370
 1981TIP3    H230139   0.444   1.510  20.085  0.5470 -1.8251  0.2542
 1982TIP3   OH230140   4.453   2.338  19.286  0.6222 -0.3484 -0.1419
 1982TIP3    H130141   4.437   2.424  19.248  1.7063  0.5957  1.3947
 1982TIP3    H230142   4.482   2.357  19.375 -0.8465 -2.3996  0.8513
 1983TIP3   OH230143   5.593   0.486  18.336 -0.3345 -0.3154  0.6531
 1983TIP3    H130144   5.575   0.568  18.289 -0.0639 -0.6083  0.0307
 1983TIP3    H230145   5.530   0.423  18.300  0.3566 -0.7300  0.1634
 1984TIP3   OH230146   1.803   5.980  19.788  0.0503  0.1441 -0.0358
 1984TIP3    H130147   1.856   5.900  19.786 -0.0517  0.0911 -0.7965
 1984TIP3    H230148   1.715   5.949  19.810 -0.2943 -0.1487 -1.6870
 1985TIP3   OH230149   4.074   2.274  17.652  0.0282  0.1297 -0.0158
 1985TIP3    H130150   4.062   2.368  17.644  1.0956  0.2076 -1.0562
 1985TIP3    H230151   4.039   2.252  17.738  1.6163  1.7943  1.1104
 1986TIP3   OH230152   6.514   0.149  19.403  0.3741 -0.1387 -0.2704
 1986TIP3    H130153   6.541   0.211  19.471  2.8487 -0.1873 -1.0990
 1986TIP3    H230154   6.508   0.065  19.448 -1.1902  0.3474  0.4873
 1987TIP3   OH230155   2.179   6.671  18.583 -0.3133  0.0325  0.4825
 1987TIP3    H130156   2.115   6.617  18.630 -0.5624  1.1304  1.4618
 1987TIP3    H230157   2.220   6.612  18.520 -2.9537 -0.5150 -0.8602
 1988TIP3   OH230158   4.262   5.234  19.548  0.0047  0.4688  0.2803
 1988TIP3    H130159   4.192   5.204  19.607  0.5482 -1.1896  0.1400
 1988TIP3    H230160   4.285   5.320  19.582 -0.8909  0.2970  1.4296
 1989TIP3   OH230161   1.674   0.649  17.957  0.0298 -0.3786  0.4264
 1989TIP3    H130162   1.620   0.727  17.970  0.2323 -0.2380  0.4287
 1989TIP3    H230163   1.654   0.592  18.031 -0.4720 -0.5331  0.1738
 1990TIP3   OH230164   0.492   0.688  19.593 -0.1226  0.8246 -0.5744
 1990TIP3    H130165   0.412   0.670  19.643  0.5446 -1.4897 -0.2032
 1990TIP3    H230166   0.478   0.775  19.555 -3.0067  0.3210 -0.9090
 1991TIP3   OH230167   1.200   1.307  17.341 -0.1003  0.2926  0.1021
 1991TIP3    H130168   1.221   1.219  17.371 -0.1639  0.6517  1.2272
 1991TIP3    H230169   1.197   1.300  17.245 -1.1972 -1.1707  0.2158
 1992TIP3   OH230170   4.061   0.231  18.762 -0.4925 -0.0974 -0.0232
 1992TIP3    H130171   4.042   0.325  18.761  2.2416  0.5750  1.4624
 1992TIP3    H230172   3.987   0.192  18.808 -1.4646  1.3834 -0.2756
 1993TIP3   OH230173   1.909   4.666  18.464 -0.1987  0.2187 -0.2588
 1993TIP3    H130174   1.854   4.735  18.426  1.5383  0.9968 -1.4521
 1993TIP3    H230175   1.998   4.691  18.442  0.5608 -1.8605  0.2257
 1994TIP3   OH230176   4.433   0.338  18.146 -0.1127 -0.5794 -0.1909
 1994TIP3    H130177   4.359   0.354  18.205  0.2144  0.5191 -0.0482
 1994TIP3    H230178   4.477   0.423  18.140 -0.5774 -0.4572 -2.6486
 1995TIP3   OH230179   2.236   5.320  19.812 -0.0146  0.1511  0.6375
 1995TIP3    H130180   2.149   5.360  19.806  0.7430  1.8232  0.3049
 1995TIP3    H230181   2.256   5.292  19.723  0.1575  0.6032  0.5310
 1996TIP3   OH230182   0.808   5.439  19.602 -0.0550  0.6058 -0.2100
 1996TIP3    H130183   0.831   5.350  19.573 -2.3077  0.2006 -0.9626
 1996TIP3    H230184   0.890   5.476  19.634  1.0685 -1.5345 -0.4398
 1997TIP3   OH230185   2.444   1.893  19.241 -0.3639  0.1348 -0.3635
 1997TIP3    H130186   2.454   1.855  19.328 -0.0172  0.2804 -0.3354
 1997TIP3    H230187   2.353   1.877  19.217 -0.6543  0.7068  0.3222
 1998TIP3   OH230188   6.515   6.254  19.773  0.5467  0.1881  0.2796
 1998TIP3    H130189   6.584   6.234  19.837  0.1726 -0.9113  0.3567
 1998TIP3    H230190   6.442   6.286  19.825 -0.1570 -1.7582  0.5486
 1999TIP3   OH230191   4.909   3.044  19.719  0.2429 -0.1633  0.4792
 1999TIP3    H130192   4.882   3.023  19.630  0.9290  2.5652 -0.4752
 1999TIP3    H230193   4.827   3.061  19.766 -0.0459  0.5346 -0.2571
 2000TIP3   OH230194   5.298   2.821  19.387 -0.1714  0.4782 -0.0123
 2000TIP3    H130195   5.297   2.864  19.302  0.3990 -0.6062 -0.5865
 2000TIP3    H230196   5.391   2.807  19.406 -0.3499 -0.6360  0.0842
 2001TIP3   OH230197   1.098   6.583  17.986  0.2738  0.2937  0.3853
 2001TIP3    H130198   1.179   6.584  18.038  1.2123 -1.4606 -0.9231
 2001TIP3    H230199   1.118   6.637  17.910  0.6335 -0.9429 -0.4372
 2002TIP3   OH230200   5.053   5.310  17.805  0.0529  0.3643  0.1365
 2002TIP3    H130201   4.989   5.372  17.840 -1.1030 -0.9653  0.4760
 2002TIP3    H230202   5.126   5.314  17.867 -0.4291  0.6556  0.6968
 2003TIP3   OH230203   2.716   2.317  20.047  0.5328  0.2095  0.6507
 2003TIP3    H130204   2.691   2.404  20.014 -0.5418 -0.2355  0.2550
 2003TIP3    H230205   2.633   2.270  20.057  1.0485 -0.5521  1.5150
 2004TIP3   OH230206   4.915   3.429  19.322 -0.3264 -0.6238  0.1655
 2004TIP3    H130207   4.922   3.387  19.407  1.6807 -0.8611 -0.0589
 2004TIP3    H230208   4.989   3.489  19.319  0.2781 -1.3876 -1.8035
 2005TIP3   OH230209   1.019   0.192  20.294 -0.1156  0.0656 -0.2807
 2005TIP3    H130210   1.106   0.198  20.256  0.3778 -0.3947  0.7336
 2005TIP3    H230211   1.034   0.166  20.385 -1.2675  0.8731  0.1675
 2006TIP3   OH230212   2.171   3.259  18.520 -0.0373  0.2458  0.4399
 2006TIP3    H130213   2.240   3.206  18.480  0.2384  0.4696  0.6170
 2006TIP3    H230214   2.213   3.301  18.595  0.0156  1.4697 -0.2446
 2007TIP3   OH230215   5.686   2.970  19.505 -0.1970  0.4136 -0.3721
 2007TIP3    H130216   5.750   3.042  19.508  0.0601  0.1455  1.7090
 2007TIP3    H230217   5.610   3.008  19.461  1.0912  0.9374 -2.3001
 2008TIP3   OH230218   4.414   0.633  19.286 -0.6402 -0.3756  0.0267
 2008TIP3    H130219   4.407   0.543  19.319 -1.0484 -0.4419 -0.2379
 2008TIP3    H230220   4.468   0.625  19.207 -2.5841 -0.7551 -1.3455
 2009TIP3   OH230221   3.512   2.755  18.739 -0.5159  0.1490 -0.4049
 2009TIP3    H130222   3.538   2.714  18.656  1.4743 -0.1554  0.3073
 2009TIP3    H230223   3.566   2.834  18.744 -0.2724 -0.0801  0.8070
 2010TIP3   OH230224   0.527   2.357  19.277  0.0291  0.6988  0.0981
 2010TIP3    H130225   0.589   2.393  19.213 -1.6265 -1.7274 -3.2148
 2010TIP3    H230226   0.476   2.433  19.306 -0.0657  1.8402 -2.6596
 2011TIP3   OH230227   4.759   3.513  17.175 -0.1483  0.1154  0.0635
 2011TIP3    H130228   4.664   3.523  17.180 -0.2597 -0.9335  0.3508
 2011TIP3    H230229   4.779   3.444  17.239  0.5750 -0.9816 -1.3049
 2012TIP3   OH230230   5.820   4.767  17.227  0.4112  0.5087 -0.5775
 2012TIP3    H130231   5.840   4.853  17.263 -0.2398  1.2920 -2.0174
 2012TIP3    H230232   5.778   4.785  17.143 -0.8016 -1.1915 -0.3851
 2013TIP3   OH230233   5.532   6.695  17.770  0.1413  0.1227  0.4729
 2013TIP3    H130234   5.496   6.738  17.693  0.1363 -0.8450 -0.0850
 2013TIP3    H230235   5.513   6.755  17.843  1.9617  2.0367 -0.5274
 2014TIP3   OH230236   1.823   5.746  20.004 -0.2260 -0.2171 -0.0291
 2014TIP3    H130237   1.734   5.780  19.994  0.2545  1.2887  0.4574
 2014TIP3    H230238   1.865   5.807  20.065  0.9540 -1.2683  0.2523
 2015TIP3   OH230239   5.758   3.450  18.553 -0.4276  0.1526  0.5396
 2015TIP3    H130240   5.682   3.504  18.576  0.6320  1.1813  1.8158
 2015TIP3    H230241   5.822   3.513  18.519 -0.7420 -0.9184 -2.3343
 2016TIP3   OH230242   1.288   5.574  17.608 -0.4223 -0.3914  0.2644
 2016TIP3    H130243   1.311   5.554  17.698 -2.2248  1.1737  1.1352
 2016TIP3    H230244   1.311   5.666  17.597 -2.6159  0.1815  0.0166
 2017TIP3   OH230245   2.522   1.547  20.308  0.3380 -0.3713 -0.0598
 2017TIP3    H130246   2.478   1.469  20.276 -0.7987  0.1226  0.2543
 2017TIP3    H230247   2.506   1.548  20.402  0.9442 -0.1262  0.0496
 2018TIP3   OH230248   3.295   0.714  17.639  0.0416 -0.3564  0.2772
 2018TIP3    H130249   3.289   0.653  17.712  0.2737 -0.1846  0.4437
 2018TIP3    H230250   3.323   0.661  17.565 -1.8265 -0.8616 -0.1159
 2019TIP3   OH230251   4.878   2.476  20.291  0.3040 -0.0256 -0.0332
 2019TIP3    H130252   4.865   2.443  20.203 -0.5356 -0.4260  0.2337
 2019TIP3    H230253   4.969   2.505  20.293  0.7825 -1.4300 -0.5640
 2020TIP3   OH230254   3.700   0.710  19.398  0.1354 -0.2734 -0.7589
 2020TIP3    H130255   3.773   0.651  19.412 -0.7335 -1.4417 -1.0161
 2020TIP3    H230256   3.655   0.675  19.321 -1.2776 -0.2017 -0.0020
 2021TIP3   OH230257   5.989   3.494  18.111 -0.3292 -0.0153 -0.1025
 2021TIP3    H130258   5.959   3.487  18.020 -0.9961  0.1508  0.1003
 2021TIP3    H230259   5.909   3.509  18.162  0.1838  1.2074  0.3728
 2022TIP3   OH230260   4.963   4.654  17.704 -0.3712 -0.0939 -0.2197
 2022TIP3    H130261   4.976   4.737  17.659 -0.4512  0.3268  0.5242
 2022TIP3    H230262   4.887   4.615  17.662  0.3672 -0.3485 -1.3651
 2023TIP3   OH230263   2.963   5.652  17.390 -0.0906 -0.2148 -0.1512
 2023TIP3    H130264   2.973   5.694  17.475 -1.0472 -0.7549  0.2535
 2023TIP3    H230265   2.909   5.713  17.339  1.1947  0.5060 -0.6843
 2024TIP3   OH230266   5.572   0.048  19.617  0.2203  0.5594 -0.4265
 2024TIP3    H130267   5.621   0.085  19.544 -0.7193  0.4580 -1.1243
 2024TIP3    H230268   5.486   0.090  19.612  0.4339  1.2600  1.1939
 2025TIP3   OH230269   2.735   5.395  20.125  0.3051 -0.1368  0.1867
 2025TIP3    H130270   2.771   5.453  20.057 -2.3811  1.2239 -0.1879
 2025TIP3    H230271   2.684   5.330  20.077 -0.2747 -0.1518  0.8085
 2026TIP3   OH230272   4.793   1.584  20.352  0.5338  0.3474  0.3235
 2026TIP3    H130273   4.786   1.523  20.425  1.0442  1.0048  0.9369
 2026TIP3    H230274   4.886   1.605  20.347  0.8419 -1.1504 -1.7465
 2027TIP3   OH230275   2.233   0.941  17.536 -0.3621  0.3099  0.0083
 2027TIP3    H130276   2.305   0.890  17.500 -0.2132 -0.2829  1.0915
 2027TIP3    H230277   2.220   0.905  17.624 -1.0169  1.3856  0.3707
 2028TIP3   OH230278   0.532   1.533  16.806  0.6919 -0.1961 -0.4697
 2028TIP3    H130279   0.509   1.625  16.794  0.4041 -0.3822 -1.3554
 2028TIP3    H230280   0.451   1.492  16.836  1.1286  0.0549  1.1959
 2029TIP3   OH230281   3.884   1.479  17.783 -0.4063  0.4988  0.6505
 2029TIP3    H130282   3.972   1.517  17.782  0.2645 -0.9632 -1.3323
 2029TIP3    H230283   3.854   1.490  17.874  2.4031 -0.2393  1.7569
 2030TIP3   OH230284   0.079   1.629  19.933  0.0187  0.9510 -0.0103
 2030TIP3    H130285   0.056   1.638  20.026 -0.7880  2.7460 -0.3208
 2030TIP3    H230286   0.116   1.542  19.925 -2.5964 -0.4369  1.4677
 2031TIP3   OH230287   2.473   1.117  19.408  0.3527  0.7697 -0.2352
 2031TIP3    H130288   2.503   1.040  19.360 -0.3457 -0.1446  0.7499
 2031TIP3    H230289   2.461   1.184  19.340 -0.4085 -0.4096 -1.3184
 2032TIP3   OH230290   0.049   0.243  18.325 -0.0078 -0.2091  0.2161
 2032TIP3    H130291   0.096   0.322  18.349  0.6670 -0.5056 -0.1023
 2032TIP3    H230292  -0.040   0.273  18.305  0.3385  0.5258 -0.2685
 2033TIP3   OH230293   5.443   3.880  18.703 -0.2717 -0.2877  0.2139
 2033TIP3    H130294   5.368   3.885  18.644 -1.6026  3.0585  1.9166
 2033TIP3    H230295   5.406   3.856  18.788  1.2825 -2.7557  0.3018
 2034TIP3   OH230296   1.219   5.346  20.279  0.0643 -0.2624  0.6083
 2034TIP3    H130297   1.249   5.418  20.224 -1.3900  0.9088  1.2656
 2034TIP3    H230298   1.299   5.313  20.321  1.0756 -0.6042 -1.4602
 2035TIP3   OH230299   3.665   0.858  17.722 -0.3504 -0.1853  0.0406
 2035TIP3    H130300   3.581   0.903  17.711 -0.8792 -0.9656  0.7397
 2035TIP3    H230301   3.682   0.820  17.635  0.0969  1.3022 -0.5507
 2036TIP3   OH230302   5.922   1.240  19.914  0.2090  0.5325  0.0606
 2036TIP3    H130303   5.890   1.187  19.841  3.4415 -0.8481 -0.5016
 2036TIP3    H230304   5.910   1.184  19.991  2.3424 -0.6055 -0.3481
 2037TIP3   OH230305   1.390   3.499  17.604  0.1543 -0.3398 -0.0305
 2037TIP3    H130306   1.424   3.475  17.517 -0.8600 -1.9064 -0.0344
 2037TIP3    H230307   1.360   3.590  17.593 -0.2493 -0.6115 -1.4273
 2038TIP3   OH230308   1.314   6.433  19.559  0.2323 -0.1411 -0.3919
 2038TIP3    H130309   1.400   6.474  19.554  0.1081  0.2123  0.2912
 2038TIP3    H230310   1.254   6.497  19.522  0.4514 -1.0660 -2.5369
 2039TIP3   OH230311   5.460   3.052  20.006 -0.3589  0.2172 -0.0732
 2039TIP3    H130312   5.417   3.115  19.949  0.8952  1.5181  0.3521
 2039TIP3    H230313   5.539   3.097  20.037  0.4124 -1.4365  0.5242
 2040TIP3   OH230314   3.845   5.508  17.360 -0.1003 -0.6252 -0.1959
 2040TIP3    H130315   3.756   5.532  17.388  0.8067  1.3081  1.2431
 2040TIP3    H230316   3.838   5.501  17.264 -1.3095  2.0247 -0.4149
 2041TIP3   OH230317   2.979   3.682  19.244  0.1476 -0.2211 -0.8824
 2041TIP3    H130318   2.956   3.660  19.334  1.1133  0.9097 -0.3231
 2041TIP3    H230319   2.897   3.675  19.195 -0.3869 -0.8693  0.0773
 2042TIP3   OH230320   4.970   0.594  16.574 -0.3557 -0.8521 -0.1371
 2042TIP3    H130321   4.904   0.640  16.627 -0.7404  0.3361 -1.5732
 2042TIP3    H230322   4.920   0.528  16.526 -0.5493  0.0987 -1.2825
 2043TIP3   OH230323   2.183   1.907  19.104 -0.3055 -0.5839 -0.1544
 2043TIP3    H130324   2.166   1.998  19.128 -3.3555 -1.7025  2.4931
 2043TIP3    H230325   2.108   1.882  19.050  0.1656 -1.7630 -0.2901
 2044TIP3   OH230326   5.546   5.262  16.837 -0.7042  0.0856  0.4005
 2044TIP3    H130327   5.629   5.298  16.867  0.2863 -1.2466 -0.6337
 2044TIP3    H230328   5.551   5.169  16.859 -1.8421 -0.0486  0.1384
 2045TIP3   OH230329   3.392   6.248  18.751  0.5093  0.2516  0.3339
 2045TIP3    H130330   3.385   6.156  18.726 -1.5142 -0.2895  2.5181
 2045TIP3    H230331   3.338   6.295  18.686 -0.1160 -0.3752  0.3880
 2046TIP3   OH230332   4.506   5.777  18.500 -0.3590  0.8858 -0.0414
 2046TIP3    H130333   4.570   5.844  18.474  2.1307 -1.6797 -1.0113
 2046TIP3    H230334   4.429   5.795  18.447  0.9262  1.8747 -1.6733
 2047TIP3   OH230335   6.659   3.937  18.139  0.4538  0.1757  0.3121
 2047TIP3    H130336   6.697   4.021  18.117 -1.9498  0.7854 -2.1964
 2047TIP3    H230337   6.674   3.883  18.061 -1.3302 -0.3968  0.3158
 2048TIP3   OH230338   2.039   3.756  18.811  0.2042  0.4078  0.3404
 2048TIP3    H130339   1.964   3.766  18.869  0.9092 -1.6939  1.7671
 2048TIP3    H230340   2.115   3.778  18.865  0.7673  0.2195 -0.3503
 2049TIP3   OH230341   3.828   5.794  19.507 -0.3362 -0.0981 -0.1426
 2049TIP3    H130342   3.889   5.823  19.575  0.4724 -1.1478 -0.3861
 2049TIP3    H230343   3.812   5.702  19.527 -1.4019  0.0094 -0.4302
 2050TIP3   OH230344   5.990   4.311  18.843  0.2097 -0.0809  0.1474
 2050TIP3    H130345   5.976   4.403  18.863  1.5652  0.0757  0.4572
 2050TIP3    H230346   6.027   4.274  18.923 -0.9429 -1.0763  0.2693
 2051TIP3   OH230347   1.424   2.798  19.944  0.1669  0.1467  0.0067
 2051TIP3    H130348   1.499   2.807  20.004 -1.4623  0.1178  2.1831
 2051TIP3    H230349   1.461   2.755  19.867  2.9753  2.6605 -0.2639
 2052TIP3   OH230350   3.989   4.436  18.893  0.3806 -0.3929  0.1947
 2052TIP3    H130351   3.902   4.413  18.925  0.2425 -0.8317 -0.4917
 2052TIP3    H230352   3.999   4.529  18.915 -0.1172 -0.4301  0.5820
 2053TIP3   OH230353   2.079   2.578  18.291 -0.2765 -0.2321 -0.4075
 2053TIP3    H130354   2.005   2.528  18.325 -0.2908  1.4922  2.3861
 2053TIP3    H230355   2.043   2.664  18.268  0.3676 -0.3065 -1.8514
 2054TIP3   OH230356   2.489   4.673  18.604  0.3126 -0.1028 -0.3149
 2054TIP3    H130357   2.417   4.695  18.544 -2.5806 -1.2269  2.4133
 2054TIP3    H230358   2.510   4.582  18.585  2.4202  0.7184 -2.3065
 2055TIP3   OH230359   5.527   3.596  18.597  0.6542  0.0530 -0.7882
 2055TIP3    H130360   5.545   3.689  18.610  1.6018 -0.4039  1.8615
 2055TIP3    H230361   5.432   3.588  18.606  0.7442  0.5583  0.9016
 2056TIP3   OH230362   1.851   0.114  19.191  0.2636 -0.5678  0.5042
 2056TIP3    H130363   1.855   0.180  19.121  0.9929 -2.3191 -1.2039
 2056TIP3    H230364   1.806   0.040  19.150 -0.1418 -1.3089  2.2288
 2057TIP3   OH230365   5.128   5.101  17.364 -0.4500 -0.5574 -0.0931
 2057TIP3    H130366   5.135   5.013  17.329  0.2899 -0.0737 -1.2061
 2057TIP3    H230367   5.036   5.125  17.351 -0.3338 -0.6351 -1.1160
 2058TIP3   OH230368   3.955   5.866  18.576 -0.2992 -0.1492  0.4112
 2058TIP3    H130369   3.937   5.789  18.522 -1.4056  0.5899 -0.3346
 2058TIP3    H230370   3.888   5.930  18.549 -0.4312  0.5050  2.1494
 2059TIP3   OH230371   4.655   5.523  17.640 -0.3750  0.3602  0.2211
 2059TIP3    H130372   4.633   5.431  17.626  1.6514 -0.0136 -0.9538
 2059TIP3    H230373   4.749   5.528  17.623 -0.2081  2.4489  1.4142
 2060TIP3   OH230374   3.088   5.224  19.524  0.1020 -0.3090 -0.2813
 2060TIP3    H130375   3.118   5.228  19.614  1.0055  1.1969 -0.5991
 2060TIP3    H230376   3.104   5.133  19.497  1.9100 -0.2549  0.4175
 2061TIP3   OH230377   3.566   1.241  16.811 -0.1753  0.0148 -0.1393
 2061TIP3    H130378   3.657   1.218  16.795 -0.3846 -1.8188  1.0308
 2061TIP3    H230379   3.569   1.310  16.877  0.3533 -1.2755  1.2235
 2062TIP3   OH230380   3.674   4.999  20.322 -0.1831 -0.0772  0.4309
 2062TIP3    H130381   3.757   5.048  20.321 -0.4543  0.3745 -0.1052
 2062TIP3    H230382   3.662   4.970  20.232 -1.0380  0.5969  0.3110
 2063TIP3   OH230383   3.849   0.433  17.430 -0.4901 -0.0441 -0.1612
 2063TIP3    H130384   3.756   0.410  17.431 -0.5567 -0.0787 -2.2642
 2063TIP3    H230385   3.866   0.459  17.340  1.7174 -0.7582 -0.0163
 2064TIP3   OH230386   3.381   2.319  19.581 -0.4057  0.2229  0.3712
 2064TIP3    H130387   3.469   2.323  19.544 -0.2372 -1.7831  0.4277
 2064TIP3    H230388   3.329   2.379  19.528  1.0250  1.6498  0.5151
 2065TIP3   OH230389   2.462   4.641  18.158 -0.3318 -0.2127 -0.6343
 2065TIP3    H130390   2.385   4.655  18.213  0.2215  0.8052 -0.0872
 2065TIP3    H230391   2.533   4.684  18.205  0.0955  1.0502 -2.3333
 2066TIP3   OH230392   5.692   3.860  19.312 -0.0400  0.0589  0.2709
 2066TIP3    H130393   5.643   3.783  19.342  0.6981 -0.6444 -0.2814
 2066TIP3    H230394   5.771   3.861  19.365  0.1303  0.2142  0.0180
 2067TIP3   OH230395   0.303   4.747  17.671  0.7691 -0.4136  0.2216
 2067TIP3    H130396   0.297   4.651  17.668  0.1997 -0.3686 -0.2348
 2067TIP3    H230397   0.245   4.772  17.743 -2.0646 -0.2021 -1.9781
 2068TIP3   OH230398   1.163   0.714  17.363  0.2251  0.6669 -0.2720
 2068TIP3    H130399   1.229   0.645  17.358 -1.0667 -0.6018 -0.7262
 2068TIP3    H230400   1.096   0.678  17.421  1.7108  3.5573  3.6295
 2069TIP3   OH230401   5.987   5.977  16.865 -0.0487  0.2244 -0.0660
 2069TIP3    H130402   6.045   5.990  16.939  0.9970 -0.8993 -0.6522
 2069TIP3    H230403   5.973   5.883  16.860 -1.8785  0.4438 -0.0053
 2070TIP3   OH230404   4.860   0.439  17.337  0.1534 -0.4813 -0.1179
 2070TIP3    H130405   4.831   0.519  17.381 -1.8929 -1.1688 -0.1124
 2070TIP3    H230406   4.780   0.402  17.301  1.3482 -1.5095 -1.8496
 2071TIP3   OH230407   4.701   0.272  20.300 -0.2067 -0.1782  0.3163
 2071TIP3    H130408   4.606   0.271  20.284  0.2081 -0.4992 -2.7665
 2071TIP3    H230409   4.732   0.189  20.264  1.3152  0.1022  0.9159
 2072TIP3   OH230410   6.251   4.065  18.279 -0.9785  0.1748  0.2587
 2072TIP3    H130411   6.278   4.025  18.361  0.1134 -0.9991 -0.6437
 2072TIP3    H230412   6.328   4.111  18.246 -0.7807 -1.0443 -1.0774
 2073TIP3   OH230413   1.127   4.720  19.730  0.0579 -0.0565  0.2206
 2073TIP3    H130414   1.171   4.674  19.801  3.9412 -0.5772 -2.2303
 2073TIP3    H230415   1.134   4.813  19.753  2.0867 -0.1595  0.2186
 2074TIP3   OH230416   5.561   6.525  17.499  0.1483  0.1491 -0.2649
 2074TIP3    H130417   5.543   6.493  17.411  0.0333 -1.6085  0.3622
 2074TIP3    H230418   5.529   6.616  17.499  0.1731  0.1826 -2.0163
 2075TIP3   OH230419   4.009   5.760  17.822  0.1103 -0.3201  0.3262
 2075TIP3    H130420   4.063   5.730  17.749  0.3652  1.1897 -0.1442
 2075TIP3    H230421   3.919   5.756  17.789  0.2290  0.4248 -0.1172
 2076TIP3   OH230422   5.429   6.076  18.178  0.1032 -0.1527  0.0187
 2076TIP3    H130423   5.499   6.114  18.125  0.1079  1.2392  0.9854
 2076TIP3    H230424   5.357   6.062  18.116  0.3891  0.6839 -0.5221
 2077TIP3   OH230425   1.682   3.065  19.360 -0.6579  0.0205 -1.3322
 2077TIP3    H130426   1.673   2.970  19.373  0.2820  0.0705 -0.1246
 2077TIP3    H230427   1.768   3.085  19.397 -0.6511  1.2779 -2.0046
 2078TIP3   OH230428   5.936   2.868  19.724 -0.0359  0.1646 -0.3197
 2078TIP3    H130429   5.859   2.908  19.764 -0.0071 -0.4083  0.3259
 2078TIP3    H230430   5.910   2.850  19.634 -0.6847 -0.1018 -0.0831
 2079TIP3   OH230431   2.923   1.004  18.889  0.6183 -0.3957 -0.4008
 2079TIP3    H130432   2.838   1.030  18.924  0.0061 -2.3378 -0.2850
 2079TIP3    H230433   2.981   1.004  18.965 -0.3347 -3.0728  0.4748
 2080TIP3   OH230434   0.540   2.358  18.650  0.3258  0.3833 -0.5467
 2080TIP3    H130435   0.476   2.378  18.581 -1.3046  1.3491  1.1369
 2080TIP3    H230436   0.541   2.437  18.704  1.0127 -0.6014  0.9306
 2081TIP3   OH230437   5.397   0.533  18.545 -0.1736 -0.2724  0.2323
 2081TIP3    H130438   5.344   0.594  18.493  1.1080  0.8477  0.1771
 2081TIP3    H230439   5.479   0.523  18.496  0.6572  0.0068  1.4979
 2082TIP3   OH230440   3.253   1.542  18.655  0.7247  0.2991 -0.2880
 2082TIP3    H130441   3.217   1.573  18.572  1.3843  1.4452 -0.1723
 2082TIP3    H230442   3.201   1.465  18.678  0.4003  0.0998 -1.6502
 2083TIP3   OH230443   1.439   6.660  20.352 -0.3949  0.0495 -0.3351
 2083TIP3    H130444   1.368   6.618  20.401  0.4955 -0.6919  0.3408
 2083TIP3    H230445   1.464   6.596  20.285 -1.0490  0.7288 -1.2583
 2084TIP3   OH230446   6.584   6.501  17.906 -0.5200 -0.1189  0.3337
 2084TIP3    H130447   6.568   6.584  17.860  0.4661 -0.5227 -0.8048
 2084TIP3    H230448   6.517   6.442  17.872  0.0085 -0.3267 -0.3762
 2085TIP3   OH230449   5.097   1.237  19.761 -0.2854  0.4467  0.0208
 2085TIP3    H130450   5.034   1.234  19.689 -0.7065  0.2477  0.3964
 2085TIP3    H230451   5.093   1.327  19.793  0.3124  0.6891 -0.5621
 2086TIP3   OH230452   2.135   5.719  18.759 -0.5654 -0.6449 -0.8422
 2086TIP3    H130453   2.062   5.690  18.813 -0.8368  0.1026 -0.7928
 2086TIP3    H230454   2.191   5.768  18.818  0.3101 -1.7435 -0.7403
 2087TIP3   OH230455   6.419   1.641  19.113 -0.0499  0.1363 -0.2536
 2087TIP3    H130456   6.504   1.611  19.082 -0.3011  1.2665 -2.1649
 2087TIP3    H230457   6.399   1.718  19.060 -2.3264 -0.1604  0.0603
 2088TIP3   OH230458   4.876   4.336  18.977  0.2667  0.3519  0.5814
 2088TIP3    H130459   4.929   4.267  18.938 -1.0752 -0.2646 -0.2237
 2088TIP3    H230460   4.875   4.406  18.912 -1.6556 -0.5217 -0.4033
 2089TIP3   OH230461   2.356   4.559  20.247 -0.1915  0.2543  0.0333
 2089TIP3    H130462   2.440   4.575  20.204  0.7730 -3.0175  0.3570
 2089TIP3    H230463   2.368   4.593  20.335  1.4909 -1.5182  0.5754
 2090TIP3   OH230464   3.899   3.977  19.749  0.4850 -0.4496 -0.5652
 2090TIP3    H130465   3.892   3.968  19.654  0.9013 -2.6465 -0.4275
 2090TIP3    H230466   3.962   4.048  19.761  2.6638 -2.0212 -1.9863
 2091TIP3   OH230467   0.131   2.511  20.023  0.4591  0.9101  0.0087
 2091TIP3    H130468   0.184   2.447  19.975 -1.2731 -1.4287  0.9998
 2091TIP3    H230469   0.064   2.538  19.961  0.7683  1.2307 -0.1898
 2092TIP3   OH230470   4.616   6.093  18.716 -0.2536  0.0743 -0.0680
 2092TIP3    H130471   4.670   6.172  18.725  1.4180 -1.1343  0.8992
 2092TIP3    H230472   4.647   6.053  18.635 -0.8812  0.2174 -0.3874
 2093TIP3   OH230473   6.573   1.718  17.445  0.7723 -0.2842  0.7118
 2093TIP3    H130474   6.527   1.790  17.488  0.2842  0.9485 -1.6712
 2093TIP3    H230475   6.504   1.657  17.420  0.7171  0.2488 -0.4935
 2094TIP3   OH230476   4.777   6.653  19.587 -0.2157  0.1551  0.5841
 2094TIP3    H130477   4.740   6.629  19.671  0.4266  2.6619  1.6603
 2094TIP3    H230478   4.727   6.729  19.558  2.4210  2.1854  0.9771
 2095TIP3   OH230479   2.773   3.825  18.968  0.3246  0.4886  0.4340
 2095TIP3    H130480   2.728   3.787  19.044  0.8941  0.6852  0.8688
 2095TIP3    H230481   2.747   3.918  18.969 -0.3593  0.3172 -0.1218
 2096TIP3   OH230482   1.596   4.844  17.749 -0.1431  0.2483 -0.6342
 2096TIP3    H130483   1.510   4.806  17.732 -0.0320 -1.0447  1.2909
 2096TIP3    H230484   1.658   4.777  17.718  0.0713 -0.6628  1.5935
 2097TIP3   OH230485   6.206   4.664  19.845 -0.0606 -0.5069  0.0629
 2097TIP3    H130486   6.174   4.640  19.932 -0.6704 -0.1667 -0.0606
 2097TIP3    H230487   6.300   4.679  19.857  0.1868 -2.1046  0.3101
 2098TIP3   OH230488   6.397   3.896  18.049 -0.1015  0.0568 -0.0408
 2098TIP3    H130489   6.484   3.891  18.088  1.0134  1.7161 -2.0978
 2098TIP3    H230490   6.360   3.978  18.083  0.1685  0.6057 -1.0217
 2099TIP3   OH230491   6.289   6.276  19.257  0.3883  0.1379 -0.3583
 2099TIP3    H130492   6.246   6.201  19.216 -1.3198  0.5518  0.5759
 2099TIP3    H230493   6.295   6.253  19.350 -0.4788  1.2606  0.0020
 2100TIP3   OH230494   6.483   2.145  18.931 -0.7798 -0.4228 -0.5220
 2100TIP3    H130495   6.559   2.127  18.876  0.3650 -0.5607  1.0522
 2100TIP3    H230496   6.517   2.144  19.020 -2.7788 -1.3349  0.2957
 2101TIP3   OH230497   3.863   1.021  19.196 -0.0728 -0.3721  0.3917
 2101TIP3    H130498   3.859   0.937  19.149  3.4092  0.0846 -0.9997
 2101TIP3    H230499   3.882   0.997  19.287  0.6879 -1.1180  0.0487
 2102TIP3   OH230500   5.956   5.382  18.180  0.6951  0.2473 -0.8042
 2102TIP3    H130501   6.025   5.408  18.240  0.8137  0.9966 -1.2546
 2102TIP3    H230502   5.942   5.458  18.124  1.2040 -0.7151 -2.3134
 2103TIP3   OH230503   4.181   4.667  18.494 -0.5079 -0.4945  0.2829
 2103TIP3    H130504   4.190   4.637  18.585  0.4392 -1.7624 -0.2092
 2103TIP3    H230505   4.162   4.587  18.444  1.4497 -0.2325 -0.9838
 2104TIP3   OH230506   4.106   3.383  20.244  0.2882  0.2753  0.1941
 2104TIP3    H130507   4.014   3.365  20.261  0.7503 -0.9784  1.6247
 2104TIP3    H230508   4.107   3.470  20.205 -1.4515  0.5530  0.7036
 2105TIP3   OH230509   0.625   2.575  20.216  0.3536  0.3235 -0.0676
 2105TIP3    H130510   0.705   2.596  20.168  1.4993 -0.7044  1.3270
 2105TIP3    H230511   0.568   2.651  20.202  1.4796  0.9902 -1.2332
 2106TIP3   OH230512   5.856   1.670  19.894  0.3774 -0.8701  0.2048
 2106TIP3    H130513   5.864   1.671  19.989 -1.5043  0.6638  0.4043
 2106TIP3    H230514   5.762   1.663  19.878  0.5188  0.5251 -1.5122
 2107TIP3   OH230515   6.105   5.952  18.763 -0.0620  0.0384  0.2330
 2107TIP3    H130516   6.101   6.026  18.823  0.9397 -0.2441  0.6758
 2107TIP3    H230517   6.025   5.958  18.712 -0.4874  0.8253  0.9663
 2108TIP3   OH230518   6.485   2.165  17.738  0.1969 -0.5735 -0.1016
 2108TIP3    H130519   6.554   2.207  17.790 -0.2613  0.3074 -0.1900
 2108TIP3    H230520   6.482   2.215  17.657 -4.0393  2.9322  1.8546
 2109TIP3   OH230521   5.674   6.417  18.817  0.8575 -0.1308  0.1918
 2109TIP3    H130522   5.706   6.327  18.824  2.5040  0.4808  1.1975
 2109TIP3    H230523   5.742   6.462  18.766  0.1462  0.5878 -0.1371
 2110TIP3   OH230524   5.836   6.453  20.551 -1.0204  0.6579  0.2839
 2110TIP3    H130525   5.876   6.366  20.558  1.0561  1.5996  0.8284
 2110TIP3    H230526   5.900   6.512  20.591 -1.8990  2.5995 -1.0463
 2111TIP3   OH230527   4.412   0.754  20.145  0.2265 -0.3745  0.0644
 2111TIP3    H130528   4.493   0.778  20.101  0.4152 -0.7405  0.2147
 2111TIP3    H230529   4.344   0.773  20.080  0.3591  0.6126  0.1925
 2112TIP3   OH230530   5.865   1.606  17.750  0.6253  0.1380 -0.1558
 2112TIP3    H130531   5.789   1.662  17.732  0.0740 -0.7258 -0.5905
 2112TIP3    H230532   5.841   1.558  17.829  0.0766 -1.2062 -1.1004
 2113TIP3   OH230533   3.014   5.949  18.080 -0.1801 -0.1317  0.2330
 2113TIP3    H130534   2.922   5.934  18.102  0.0331 -1.1024  0.5028
 2113TIP3    H230535   3.038   5.873  18.028  0.4113  0.2362 -0.0335
 2114TIP3   OH230536   6.287   3.444  20.165 -0.1916 -0.1784  0.2523
 2114TIP3    H130537   6.310   3.391  20.242  0.1998 -1.7225 -0.8948
 2114TIP3    H230538   6.267   3.381  20.097 -0.6280  1.1692 -0.9116
 2115TIP3   OH230539   3.404   2.490  17.891 -0.1681  0.1020  0.4832
 2115TIP3    H130540   3.418   2.477  17.797 -0.1281 -1.8841  0.7079
 2115TIP3    H230541   3.445   2.413  17.932 -0.6969  0.6273  2.0881
 2116TIP3   OH230542   1.687   2.856  18.913  0.6955  0.1661 -0.0804
 2116TIP3    H130543   1.666   2.926  18.974  2.6988 -0.2686  1.2005
 2116TIP3    H230544   1.780   2.868  18.892  1.2504 -2.3425  0.5865
 2117TIP3   OH230545   6.292   2.412  17.247  0.2817  0.1921  0.4773
 2117TIP3    H130546   6.358   2.419  17.178 -1.3404 -2.4880 -1.5599
 2117TIP3    H230547   6.277   2.502  17.276  1.8848  1.2989 -1.8125
 2118TIP3   OH230548   1.307   6.224  18.191 -0.3935  0.1603 -0.0908
 2118TIP3    H130549   1.322   6.150  18.133 -1.5125  0.1419 -0.3909
 2118TIP3    H230550   1.276   6.185  18.272  1.2194  0.1836  0.5662
 2119TIP3   OH230551   1.848   1.246  17.484 -0.2318 -0.1247  0.4193
 2119TIP3    H130552   1.774   1.243  17.545  1.3489  1.2758  2.5641
 2119TIP3    H230553   1.918   1.290  17.533  0.6516  2.7323 -2.9601
 2120TIP3   OH230554   4.452   3.770  19.958 -0.4914 -0.2545  0.2258
 2120TIP3    H130555   4.422   3.822  20.033 -1.2820  0.0664 -0.3001
 2120TIP3    H230556   4.545   3.793  19.949 -1.0286  1.8140 -0.5653
 2121TIP3   OH230557   4.540   3.317  18.367  0.2634 -0.2046  0.2048
 2121TIP3    H130558   4.455   3.277  18.384  0.1668  0.5566  1.5966
 2121TIP3    H230559   4.587   3.311  18.449  0.9334  0.8753 -0.0775
 2122TIP3   OH230560   3.106   6.149  19.560 -0.0632  0.4559  0.0659
 2122TIP3    H130561   3.041   6.080  19.575 -2.2475  2.0492 -1.3792
 2122TIP3    H230562   3.153   6.120  19.481  1.1717 -0.7548  1.1774
 2123TIP3   OH230563   4.838   0.482  20.179 -0.2385  0.1574 -0.0603
 2123TIP3    H130564   4.819   0.563  20.226 -0.8603  0.3114 -0.5585
 2123TIP3    H230565   4.821   0.413  20.242 -0.1392  0.3969  0.2307
 2124TIP3   OH230566   5.053   2.512  19.463  0.0835  0.1656  0.0171
 2124TIP3    H130567   4.963   2.491  19.439 -0.6248  0.6958  1.9801
 2124TIP3    H230568   5.089   2.430  19.496  0.2186  0.0306 -0.4601
 2125TIP3   OH230569   2.845   1.932  19.995 -0.3527  0.6642 -0.4406
 2125TIP3    H130570   2.940   1.924  19.989 -0.2604  0.1377  1.0823
 2125TIP3    H230571   2.824   1.897  20.082 -2.2394 -2.0482 -1.8293
 2126TIP3   OH230572   2.059   1.719  19.445 -0.2660  0.2723 -0.1491
 2126TIP3    H130573   2.073   1.701  19.352 -1.1348  1.5634 -0.5685
 2126TIP3    H230574   2.090   1.641  19.490  0.2882 -0.3254 -1.5191
 2127TIP3   OH230575   0.717   5.467  18.095 -0.3535  0.2157 -0.1792
 2127TIP3    H130576   0.623   5.486  18.095 -0.5509 -0.7120 -0.2034
 2127TIP3    H230577   0.757   5.547  18.129 -1.0740  0.9576 -1.0232
 2128TIP3   OH230578   1.067   1.940  17.935  0.0009  0.8432 -0.0774
 2128TIP3    H130579   1.162   1.940  17.950  0.2560  0.0644 -1.5077
 2128TIP3    H230580   1.058   1.966  17.843 -1.2886  2.5865  0.4729
 2129TIP3   OH230581   5.315   4.879  18.640  0.5297 -0.8585  0.6771
 2129TIP3    H130582   5.372   4.815  18.597 -0.6473 -0.3991 -1.7041
 2129TIP3    H230583   5.348   4.964  18.612 -1.4053 -0.5869 -1.0018
 2130TIP3   OH230584   4.041   6.357  17.446  0.3295  0.1652 -0.3302
 2130TIP3    H130585   4.125   6.314  17.429 -0.1127 -1.7566  1.8627
 2130TIP3    H230586   3.998   6.360  17.360  2.4149  0.8079 -1.4182
 2131TIP3   OH230587   4.390   5.108  17.442  0.0254 -0.4411  0.4969
 2131TIP3    H130588   4.334   5.066  17.507  0.3803 -0.5025  0.7569
 2131TIP3    H230589   4.332   5.119  17.366 -0.6298  0.3766  1.0907
 2132TIP3   OH230590   4.783   6.328  19.890  0.0277  0.1039 -0.6076
 2132TIP3    H130591   4.792   6.252  19.947  0.1455  0.0335 -0.7169
 2132TIP3    H230592   4.782   6.292  19.801  3.1267  0.3738 -0.8946
 2133TIP3   OH230593   4.563   2.539  18.899  0.0750  0.0136  0.4397
 2133TIP3    H130594   4.519   2.563  18.817  0.1275  0.4447  0.5339
 2133TIP3    H230595   4.600   2.452  18.882 -3.0504 -1.6030  1.2211
 2134TIP3   OH230596   5.536   3.518  17.375  0.5007 -0.1399 -0.3355
 2134TIP3    H130597   5.600   3.518  17.304  1.3875  0.8959  0.4289
 2134TIP3    H230598   5.549   3.434  17.419 -0.2103 -0.8959 -1.4877
 2135TIP3   OH230599   3.394   5.768  19.674 -0.0925  0.4633 -1.0215
 2135TIP3    H130600   3.302   5.796  19.674 -0.4214 -0.5775 -0.5635
 2135TIP3    H230601   3.411   5.742  19.583 -1.4219 -2.9279 -0.4418
 2136TIP3   OH230602   4.016   4.869  19.854 -0.0218 -0.3828 -0.3772
 2136TIP3    H130603   4.107   4.860  19.882 -0.1946 -1.0524 -0.0157
 2136TIP3    H230604   4.018   4.856  19.760  0.0348 -2.1912 -0.1579
 2137TIP3   OH230605   3.226   6.486  19.690  0.0324 -0.2389  0.2846
 2137TIP3    H130606   3.138   6.459  19.663 -0.8513  1.4077  1.3473
 2137TIP3    H230607   3.259   6.412  19.741 -1.5996 -0.1214  1.6216
 2138TIP3   OH230608   3.445   3.135  18.921  0.3319 -0.2601 -0.0715
 2138TIP3    H130609   3.538   3.115  18.935  0.0678  0.0357  2.5170
 2138TIP3    H230610   3.416   3.173  19.004 -2.4490 -1.6110 -0.3227
 2139TIP3   OH230611   4.322   4.302  17.273  0.0312 -0.2621 -0.1808
 2139TIP3    H130612   4.264   4.364  17.317  1.9727  0.4714  1.5545
 2139TIP3    H230613   4.402   4.351  17.258  1.0457 -1.8740 -0.2794
 2140TIP3   OH230614   1.872   5.464  20.046  0.1124  0.3673 -0.5072
 2140TIP3    H130615   1.838   5.453  20.135  0.3571 -2.7719 -0.6744
 2140TIP3    H230616   1.858   5.556  20.026  0.6698  1.3541  3.0003
 2141TIP3   OH230617   6.269   0.691  16.963  0.7453  0.4724 -0.0693
 2141TIP3    H130618   6.340   0.723  17.018  0.3795  0.0776  0.6552
 2141TIP3    H230619   6.212   0.643  17.024  0.3429  0.0079 -0.7980
 2142TIP3   OH230620   6.698   0.649  20.111 -0.2516  0.1506 -0.1376
 2142TIP3    H130621   6.740   0.733  20.091 -0.2706  0.4450  0.9655
 2142TIP3    H230622   6.649   0.627  20.032 -1.4677  1.9379  0.0567
 2143TIP3   OH230623   5.128   0.135  18.714  0.0458  0.5278  0.3033
 2143TIP3    H130624   5.044   0.102  18.681  1.5925 -0.5165 -3.0274
 2143TIP3    H230625   5.138   0.221  18.671  0.5381  0.7831  0.9166
 2144TIP3   OH230626   0.131   3.060  17.559  0.0134  0.2986  0.4115
 2144TIP3    H130627   0.085   2.998  17.617  0.1426  0.3568  0.5766
 2144TIP3    H230628   0.071   3.071  17.485 -0.4690  0.7699  0.8670
 2145TIP3   OH230629   0.619   6.032  16.726 -0.1966  0.0271 -0.5353
 2145TIP3    H130630   0.635   6.057  16.817 -2.2305 -0.3844 -0.0101
 2145TIP3    H230631   0.533   6.068  16.705 -0.6814 -1.6178 -1.6129
 2146TIP3   OH230632   0.862   2.862  16.960 -0.1389 -0.1002  0.3384
 2146TIP3    H130633   0.847   2.926  16.891  0.2406  0.4332  0.7377
 2146TIP3    H230634   0.780   2.859  17.010 -0.0118  0.4176  0.5874
 2147TIP3   OH230635   1.748   0.998  18.112  0.2700 -0.9565 -0.0308
 2147TIP3    H130636   1.660   0.984  18.075 -0.0827  2.7399 -0.9891
 2147TIP3    H230637   1.806   0.997  18.035  0.5095  0.2429  0.1260
 2148TIP3   OH230638   5.768   3.410  18.251  1.0785  0.1851 -0.1392
 2148TIP3    H130639   5.741   3.328  18.209 -0.6277  0.3114  0.6260
 2148TIP3    H230640   5.699   3.472  18.229  1.3173  0.8631  0.9509
 2149TIP3   OH230641   1.002   2.561  17.646  0.8313 -0.2784  0.2012
 2149TIP3    H130642   1.095   2.539  17.649  1.2500  0.4301 -3.2449
 2149TIP3    H230643   0.972   2.528  17.562 -2.1927 -0.7923  1.3519
 2150TIP3   OH230644   2.075   6.033  17.969  0.0496 -0.6796  0.0051
 2150TIP3    H130645   1.997   5.983  17.993 -0.3800  0.3052  0.7332
 2150TIP3    H230646   2.041   6.121  17.949  0.9351 -0.3419 -0.0322
 2151TIP3   OH230647   5.992   0.169  19.656 -0.4046  0.1192  0.2470
 2151TIP3    H130648   5.979   0.078  19.628 -0.7026 -0.3651  1.8517
 2151TIP3    H230649   5.917   0.216  19.619  0.0101 -0.1647 -1.0109
 2152TIP3   OH230650   1.479   0.844  19.748  0.1433  0.2723 -0.1360
 2152TIP3    H130651   1.502   0.795  19.827 -0.2102  0.0472 -0.1702
 2152TIP3    H230652   1.451   0.929  19.780 -0.6860 -0.0567  0.0416
 2153TIP3   OH230653   2.813   2.062  17.796 -0.2082  0.1141 -0.5188
 2153TIP3    H130654   2.720   2.043  17.800 -0.1762  0.1309  0.5469
 2153TIP3    H230655   2.855   1.977  17.787 -0.2539 -0.0673  0.7376
 2154TIP3   OH230656   2.242   4.068  18.628 -0.1077 -0.0306  0.2598
 2154TIP3    H130657   2.271   4.157  18.606 -1.5178  0.9236  1.9828
 2154TIP3    H230658   2.265   4.058  18.720 -0.4416 -1.2583  0.2189
 2155TIP3   OH230659   5.906   3.124  19.565 -0.3749 -0.0483  0.1974
 2155TIP3    H130660   5.974   3.184  19.535  0.0447 -1.1379 -1.1475
 2155TIP3    H230661   5.951   3.066  19.627 -0.0498 -0.7382 -0.6545
 2156TIP3   OH230662   0.255   0.587  17.247  0.4977  0.1608  0.6953
 2156TIP3    H130663   0.216   0.563  17.164  2.8581 -0.5752 -0.2854
 2156TIP3    H230664   0.303   0.668  17.229  0.0827  0.6389  1.6537
 2157TIP3   OH230665   0.845   6.410  18.097  0.6975 -0.2857 -0.0544
 2157TIP3    H130666   0.810   6.475  18.158  0.1865 -1.4006  0.8933
 2157TIP3    H230667   0.842   6.453  18.012  2.2368  1.6290  0.7796
 2158TIP3   OH230668   2.193   1.641  18.958  0.2489 -0.1668  0.1326
 2158TIP3    H130669   2.233   1.667  18.875 -2.9645 -1.0572 -1.8897
 2158TIP3    H230670   2.138   1.716  18.982 -1.0997 -1.0215 -0.1887
 2159TIP3   OH230671   5.941   1.608  20.251 -0.6756  0.2253  0.5944
 2159TIP3    H130672   6.002   1.552  20.202 -1.1928  0.2332 -0.0784
 2159TIP3    H230673   5.977   1.696  20.244 -1.5263  0.4800 -1.0971
 2160TIP3   OH230674   3.662   0.994  17.290 -0.1421 -0.2710  0.2775
 2160TIP3    H130675   3.670   1.003  17.195 -0.1143 -0.0474  0.2997
 2160TIP3    H230676   3.574   0.958  17.303 -0.7943  1.2188  0.2439
 2161TIP3   OH230677   4.219   4.317  20.069  0.2672 -0.5256 -0.0735
 2161TIP3    H130678   4.291   4.266  20.034  0.7770 -0.1998  0.4738
 2161TIP3    H230679   4.259   4.374  20.134  0.0178  1.7956 -1.8152
 2162TIP3   OH230680   5.841   4.626  16.881 -0.2427 -0.3492  0.4320
 2162TIP3    H130681   5.906   4.673  16.829 -0.2678 -0.6061  0.1660
 2162TIP3    H230682   5.798   4.694  16.932  0.2443 -0.1794  0.6199
 2163TIP3   OH230683   2.177   2.874  18.331 -0.0195 -0.2036  0.2397
 2163TIP3    H130684   2.213   2.945  18.384  0.0361 -2.2167  3.0994
 2163TIP3    H230685   2.083   2.888  18.332  0.0180  0.0300  0.4504
 2164TIP3   OH230686   3.892   0.895  16.736  0.4386  0.0695  0.3852
 2164TIP3    H130687   3.925   0.981  16.708  2.3762 -1.4787 -2.7011
 2164TIP3    H230688   3.971   0.843  16.752 -0.5200 -2.1025 -1.3935
 2165TIP3   OH230689   5.646   0.768  18.831 -0.0923  0.8746 -0.5950
 2165TIP3    H130690   5.665   0.715  18.909  1.7530  1.4867 -0.5892
 2165TIP3    H230691   5.551   0.783  18.836 -0.3024 -0.5213  0.5935
 2166TIP3   OH230692   2.742   5.316  19.411  0.2945  0.3871 -0.2255
 2166TIP3    H130693   2.710   5.370  19.483 -3.0286  0.4279 -1.5724
 2166TIP3    H230694   2.769   5.378  19.344  1.7120  0.3365  0.2706
 2167TIP3   OH230695   3.718   2.363  20.241 -0.4575 -0.1247  0.8820
 2167TIP3    H130696   3.802   2.378  20.197 -1.7093  2.4157 -0.8689
 2167TIP3    H230697   3.731   2.281  20.289  1.9998 -1.5355 -1.8297
 2168TIP3   OH230698   0.802   1.825  19.906 -0.3418 -0.2806  0.1050
 2168TIP3    H130699   0.728   1.872  19.868  1.6316  2.5897 -0.5323
 2168TIP3    H230700   0.858   1.804  19.832  0.9371  0.4065  0.8568
 2169TIP3   OH230701   1.697   0.535  19.650 -0.0711 -0.8204 -0.0533
 2169TIP3    H130702   1.603   0.526  19.636 -0.1505 -0.6926  0.3855
 2169TIP3    H230703   1.725   0.601  19.588 -0.5889  0.4825  1.0534
 2170TIP3   OH230704   4.957   0.427  16.922  0.3847 -0.6921 -0.4334
 2170TIP3    H130705   4.945   0.333  16.910 -0.8014 -0.8061  1.1869
 2170TIP3    H230706   4.867   0.462  16.926  0.7615  0.2154  0.7652
 2171TIP3   OH230707   4.517   3.584  17.583  0.2049 -0.4003  0.4820
 2171TIP3    H130708   4.438   3.625  17.547  2.3421  1.5908 -2.3245
 2171TIP3    H230709   4.527   3.504  17.532  1.1043  0.4423 -0.7106
 2172TIP3   OH230710   6.172   4.687  18.225 -0.2895 -0.4660  0.2450
 2172TIP3    H130711   6.219   4.765  18.198  0.0939 -0.4633  0.9101
 2172TIP3    H230712   6.080   4.706  18.205 -0.1089 -0.1468 -0.2853
 2173TIP3   OH230713   4.083   0.029  19.900 -0.4879  0.1026  0.2797
 2173TIP3    H130714   4.168   0.071  19.884 -0.5771  0.4971  0.8218
 2173TIP3    H230715   4.020   0.085  19.856 -0.4934 -0.0797  0.0521
 2174TIP3   OH230716   6.535   6.248  18.452  0.0224 -0.1885  0.4975
 2174TIP3    H130717   6.475   6.265  18.379  0.1146  2.5380  0.9450
 2174TIP3    H230718   6.601   6.190  18.416 -1.0723 -0.5740 -0.9727
 2175TIP3   OH230719   4.038   2.983  17.827  0.0627  0.0283 -0.1999
 2175TIP3    H130720   4.052   3.061  17.774  0.1320 -0.1091 -0.3848
 2175TIP3    H230721   4.072   3.006  17.913  1.5381 -0.3231 -0.6505
 2176TIP3   OH230722   3.407   1.242  18.589  0.5624 -0.4383  0.1772
 2176TIP3    H130723   3.449   1.160  18.564  0.1468 -0.4442 -0.5502
 2176TIP3    H230724   3.370   1.275  18.507  0.1331  0.1272  0.5930
 2177TIP3   OH230725   4.358   4.224  19.425 -0.2723 -0.3445 -0.2146
 2177TIP3    H130726   4.418   4.291  19.458 -1.3069 -0.4096  1.9918
 2177TIP3    H230727   4.288   4.274  19.381  0.2318 -0.1460 -0.8051
 2178TIP3   OH230728   3.575   1.019  19.603  0.3263 -0.4491  0.5017
 2178TIP3    H130729   3.596   0.974  19.521 -0.3425 -0.5284  0.3611
 2178TIP3    H230730   3.497   1.070  19.582 -0.8710 -1.7777  1.5231
 2179TIP3   OH230731   1.221   6.601  19.809  0.0888 -0.3456  0.0807
 2179TIP3    H130732   1.259   6.550  19.738  1.5130  0.1305  0.4746
 2179TIP3    H230733   1.203   6.687  19.771  1.0332 -0.0291  0.3314
 2180TIP3   OH230734   2.241   0.841  18.830 -0.3053  0.3953 -0.9564
 2180TIP3    H130735   2.330   0.806  18.823 -0.6481 -0.9346  0.6378
 2180TIP3    H230736   2.249   0.914  18.891 -0.3566 -0.0515 -0.3978
 2181TIP3   OH230737   1.282   0.444  20.104 -0.4785  0.2459 -0.0685
 2181TIP3    H130738   1.289   0.377  20.171 -0.5884  0.0694 -0.2309
 2181TIP3    H230739   1.188   0.460  20.096 -0.7148 -1.6120 -2.0012
 2182TIP3   OH230740   4.070   1.822  17.796  0.4476 -0.1298 -0.3139
 2182TIP3    H130741   4.103   1.734  17.777 -1.0857 -0.6681 -0.7006
 2182TIP3    H230742   4.133   1.860  17.857  0.4225 -2.0134  0.9471
 2183TIP3   OH230743   2.540   6.016  17.678 -0.1842 -0.2436 -0.8265
 2183TIP3    H130744   2.505   5.981  17.760 -0.7768  1.3318 -0.3711
 2183TIP3    H230745   2.553   5.939  17.623 -0.9350 -1.2176  0.3081
 2184TIP3   OH230746   0.103   1.218  18.075  0.2558  0.3499  0.1344
 2184TIP3    H130747   0.124   1.155  18.145 -0.4449 -1.3843 -1.1323
 2184TIP3    H230748   0.075   1.297  18.122  0.4849 -0.5125  1.8147
 2185TIP3   OH230749   4.270   4.599  17.652  0.6746  0.3522 -0.4100
 2185TIP3    H130750   4.326   4.658  17.702 -0.2537  1.5572 -0.7332
 2185TIP3    H230751   4.299   4.609  17.561  1.1199 -0.4124 -0.3647
 2186TIP3   OH230752   0.341   6.266  17.279 -0.0615  0.0691  0.3890
 2186TIP3    H130753   0.336   6.336  17.344 -1.0513 -0.2466  0.6868
 2186TIP3    H230754   0.374   6.190  17.327  0.6038  0.2185  0.1712
 2187TIP3   OH230755   3.562   1.658  19.449 -0.7660 -0.6241  0.0124
 2187TIP3    H130756   3.613   1.650  19.530  1.1493  0.2094 -1.0336
 2187TIP3    H230757   3.513   1.576  19.443  1.1386 -1.8793  0.6796
 2188TIP3   OH230758   0.146   2.111  17.471  0.6148  0.1449 -0.5892
 2188TIP3    H130759   0.223   2.155  17.506  0.2821  1.1391 -1.0830
 2188TIP3    H230760   0.135   2.146  17.383 -0.6400  0.3299 -0.3782
 2189TIP3   OH230761   5.387   3.763  18.938  0.0101  0.1036  0.4815
 2189TIP3    H130762   5.359   3.687  18.990  0.0095  0.2491  0.6904
 2189TIP3    H230763   5.424   3.824  19.001  0.4409  0.0820  0.2519
 2190TIP3   OH230764   6.305   0.132  19.239  0.1229 -0.1479 -0.0914
 2190TIP3    H130765   6.378   0.157  19.295 -1.1991  1.2569  1.1005
 2190TIP3    H230766   6.342   0.068  19.178  1.4721 -2.3650  2.8515
 2191TIP3   OH230767   4.708   3.300  19.186  0.1276 -0.1569 -0.0294
 2191TIP3    H130768   4.778   3.343  19.235 -0.8144 -0.5202  1.7294
 2191TIP3    H230769   4.726   3.206  19.195 -1.3056 -0.3316  1.7149
 2192TIP3   OH230770   0.838   0.059  17.322  0.3871 -0.0597 -0.2398
 2192TIP3    H130771   0.831   0.155  17.321 -0.8290 -0.1204 -1.3917
 2192TIP3    H230772   0.847   0.036  17.229  0.8196 -1.0591  0.0434
 2193TIP3   OH230773   5.404   5.474  18.247  0.1180 -0.5257  0.2548
 2193TIP3    H130774   5.435   5.523  18.323 -1.8187  1.6817 -0.2762
 2193TIP3    H230775   5.421   5.531  18.172 -2.2033 -0.5866 -0.3909
 2194TIP3   OH230776   0.277   5.827  20.040 -0.7304  0.0287 -0.0212
 2194TIP3    H130777   0.274   5.797  19.949 -1.8924  1.3966 -0.4718
 2194TIP3    H230778   0.213   5.772  20.085 -0.5084 -0.3248 -0.1328
 2195TIP3   OH230779   6.557   0.070  18.051 -0.2967 -0.7437  0.0759
 2195TIP3    H130780   6.572   0.161  18.026  1.3246 -0.8921  0.3908
 2195TIP3    H230781   6.533   0.026  17.969  0.0684 -0.2554 -0.3020
 2196TIP3   OH230782   4.045   5.685  20.523  0.1855  0.1679  0.7743
 2196TIP3    H130783   4.132   5.723  20.525 -0.0891  0.8101  0.7144
 2196TIP3    H230784   3.987   5.759  20.504 -0.5960  0.1784  2.9151
 2197TIP3   OH230785   1.769   5.009  18.608  0.0227  0.0228  0.1607
 2197TIP3    H130786   1.737   4.961  18.685 -0.0238  0.4166  0.3896
 2197TIP3    H230787   1.730   5.096  18.616  1.9070  0.8273  0.9615
 2198TIP3   OH230788   4.124   4.342  18.205 -0.1693  0.2060 -0.5944
 2198TIP3    H130789   4.049   4.393  18.176  0.5591  1.1371 -0.8974
 2198TIP3    H230790   4.122   4.349  18.300  0.9392  2.3626 -0.6775
 2199TIP3   OH230791   3.840   3.945  20.394 -0.0412  0.3098  0.0619
 2199TIP3    H130792   3.768   3.924  20.334 -0.8993  0.5622  0.9820
 2199TIP3    H230793   3.899   3.870  20.387  0.1695  0.5919 -1.5226
 2200TIP3   OH230794   4.668   6.002  18.458 -0.0281  0.4497 -0.5533
 2200TIP3    H130795   4.650   6.091  18.427  1.9062  0.8606 -0.6589
 2200TIP3    H230796   4.746   5.975  18.409  0.0603 -0.8806  0.2619
 2201TIP3   OH230797   4.905   4.385  17.407  0.0583  0.4787  0.1858
 2201TIP3    H130798   4.972   4.374  17.340 -0.1767 -0.2397  0.0583
 2201TIP3    H230799   4.900   4.299  17.450 -2.2747 -0.1837 -1.2308
 2202TIP3   OH230800   6.197   3.862  17.894  0.6051 -0.2414 -0.4870
 2202TIP3    H130801   6.221   3.835  17.806  1.0067 -0.7946 -0.2097
 2202TIP3    H230802   6.272   3.840  17.948  0.6936  0.8526 -0.1359
 2203TIP3   OH230803   6.646   1.480  19.061 -0.1186  0.5419  0.3669
 2203TIP3    H130804   6.740   1.497  19.055 -0.2474  1.4080  0.6803
 2203TIP3    H230805   6.639   1.386  19.075  0.7581  0.6495  1.6618
 2204TIP3   OH230806   5.329   1.096  19.707 -0.1859  0.1063  0.0675
 2204TIP3    H130807   5.243   1.133  19.727 -0.4380 -0.2226 -0.3834
 2204TIP3    H230808   5.385   1.172  19.692 -0.4915  0.3159 -0.0234
 2205TIP3   OH230809   3.671   3.308  17.422  0.0043 -0.0861 -0.0724
 2205TIP3    H130810   3.721   3.229  17.399  2.1082  0.4697  2.1564
 2205TIP3    H230811   3.639   3.342  17.338  2.1671 -1.3179 -1.4822
 2206TIP3   OH230812   4.055   4.863  18.128 -0.6065 -0.6050 -0.2347
 2206TIP3    H130813   4.067   4.791  18.067  0.0620 -0.8078  0.1263
 2206TIP3    H230814   4.121   4.928  18.103 -1.4710  0.0783 -0.8246
 2207TIP3   OH230815   3.898   4.345  17.500 -0.2636  0.2752 -0.0713
 2207TIP3    H130816   3.976   4.395  17.478  0.3534 -0.2989  0.7776
 2207TIP3    H230817   3.876   4.297  17.420  2.6174 -2.6998  0.7158
 2208TIP3   OH230818   6.193   1.822  18.320  0.2528  0.0310  0.8089
 2208TIP3    H130819   6.209   1.863  18.235 -1.6583  0.3447  0.5603
 2208TIP3    H230820   6.196   1.894  18.382 -1.1163  0.2802  0.6228
 2209TIP3   OH230821   4.682   6.709  17.588  0.1925 -0.0119  0.4846
 2209TIP3    H130822   4.679   6.761  17.668  1.4673 -0.8450  1.1108
 2209TIP3    H230823   4.660   6.620  17.615  1.9083 -0.5655  0.1893
 2210TIP3   OH230824   4.699   1.085  18.189 -0.0668  0.2368 -0.1676
 2210TIP3    H130825   4.715   1.062  18.097 -0.3324 -0.9114  0.0566
 2210TIP3    H230826   4.635   1.020  18.219  0.7946 -0.0372  1.1288
 2211TIP3   OH230827   3.098   4.053  18.432  0.4576  0.0100  0.0084
 2211TIP3    H130828   3.161   3.989  18.397  1.4632  0.8253  0.2677
 2211TIP3    H230829   3.115   4.052  18.526  0.0535  0.2186  0.0820
 2212TIP3   OH230830   2.276   6.331  18.939  0.0563 -0.2953 -0.3458
 2212TIP3    H130831   2.305   6.411  18.982 -1.0681 -0.6746  1.2516
 2212TIP3    H230832   2.352   6.301  18.890  0.4340  1.8374 -1.1735
 2213TIP3   OH230833   3.313   4.473  20.331  0.2154 -0.2602  0.5710
 2213TIP3    H130834   3.360   4.491  20.249 -0.3736 -2.1042 -0.2283
 2213TIP3    H230835   3.355   4.530  20.395  1.1415  0.7539 -0.8640
 2214TIP3   OH230836   4.052   0.892  20.375 -0.0962 -0.8418 -0.3597
 2214TIP3    H130837   3.979   0.830  20.366  2.2090 -3.6420 -1.2448
 2214TIP3    H230838   4.082   0.906  20.285 -0.2567  1.3054 -0.1256
 2215TIP3   OH230839   2.013   6.564  19.890  0.5040 -0.4269  0.3313
 2215TIP3    H130840   2.101   6.539  19.920 -0.2638 -0.8897  2.3493
 2215TIP3    H230841   2.026   6.647  19.845  1.5506  1.4843  3.8187
 2216TIP3   OH230842   0.425   2.753  19.299 -0.0208  0.1197  0.2700
 2216TIP3    H130843   0.503   2.788  19.257  0.1936 -1.0735 -0.3592
 2216TIP3    H230844   0.440   2.764  19.393 -0.2324  2.2449  0.1041
 2217TIP3   OH230845   1.084   2.354  19.699  0.0550 -0.1123 -0.2304
 2217TIP3    H130846   1.093   2.273  19.749  0.2285  0.5048  0.7541
 2217TIP3    H230847   0.992   2.379  19.712  0.2642  0.3862  0.3172
 2218TIP3   OH230848   4.540   6.228  17.591  0.2504 -0.3263 -0.1719
 2218TIP3    H130849   4.452   6.202  17.618 -0.8158  2.4311 -0.6367
 2218TIP3    H230850   4.593   6.149  17.601 -2.0858 -1.8605  0.9065
 2219TIP3   OH230851   2.539   0.522  17.065  0.0284  0.4284 -0.6362
 2219TIP3    H130852   2.629   0.491  17.077 -0.5281 -0.9643  0.1155
 2219TIP3    H230853   2.534   0.601  17.118  0.5322 -0.0627  0.1686
 2220TIP3   OH230854   3.096   5.175  20.142 -0.0300  0.0624  0.0563
 2220TIP3    H130855   3.005   5.156  20.119  0.0802 -0.8744  0.3841
 2220TIP3    H230856   3.093   5.265  20.175 -0.6611  0.4099 -0.8874
 2221TIP3   OH230857   0.972   3.190  19.923  0.0967  0.7088 -0.2842
 2221TIP3    H130858   1.045   3.212  19.981  1.0029  1.7536 -1.7685
 2221TIP3    H230859   0.894   3.214  19.974  0.7055 -0.9526  1.5406
 2222TIP3   OH230860   6.017   3.970  18.406 -0.6317  0.1761  0.8173
 2222TIP3    H130861   5.934   4.011  18.381 -0.9035 -0.7904  0.0870
 2222TIP3    H230862   6.078   3.995  18.336 -1.8014 -3.8951 -1.9711
 2223TIP3   OH230863   4.595   3.482  16.893  0.2844  0.0573 -0.0851
 2223TIP3    H130864   4.539   3.521  16.961 -1.4559  0.0788 -1.4506
 2223TIP3    H230865   4.595   3.388  16.912 -2.6785 -0.3920 -1.6110
 2224TIP3   OH230866   0.856   1.927  18.195  0.5383 -0.0389 -0.2360
 2224TIP3    H130867   0.806   1.941  18.275  0.6777  0.6420 -0.2637
 2224TIP3    H230868   0.850   2.011  18.148  0.5236 -0.4024 -0.9006
 2225TIP3   OH230869   3.872   0.602  20.342  0.2513 -0.2296  0.0626
 2225TIP3    H130870   3.825   0.685  20.329 -1.5234 -1.1291  0.4681
 2225TIP3    H230871   3.884   0.567  20.254 -0.0089 -0.0871 -0.0301
 2226TIP3   OH230872   0.610   4.323  19.513  0.1342 -0.0929 -0.2300
 2226TIP3    H130873   0.546   4.393  19.504 -0.1701 -0.2535  0.6289
 2226TIP3    H230874   0.661   4.326  19.432  0.8385  1.8355  0.2272
 2227TIP3   OH230875   4.189   3.225  18.645  0.2251 -0.3683  0.2635
 2227TIP3    H130876   4.188   3.131  18.667  1.8294 -0.4189  0.2260
 2227TIP3    H230877   4.161   3.268  18.726 -0.1761 -0.8541  0.3938
 2228TIP3   OH230878   5.369   3.488  20.050 -0.3893  0.2406 -0.3171
 2228TIP3    H130879   5.416   3.505  19.968  0.2517 -0.0833 -0.0299
 2228TIP3    H230880   5.429   3.520  20.118 -0.8672  0.4046  0.0341
 2229TIP3   OH230881   0.240   0.112  19.668  0.4278 -0.2633 -0.2910
 2229TIP3    H130882   0.232   0.143  19.578  3.0454  0.8918 -0.2197
 2229TIP3    H230883   0.280   0.185  19.715 -0.2739 -1.0821  1.6739
 2230TIP3   OH230884   1.135   5.383  16.924 -0.7426 -0.4170 -0.1882
 2230TIP3    H130885   1.102   5.307  16.874  0.8736 -1.3332  0.0808
 2230TIP3    H230886   1.152   5.348  17.011  3.7805 -0.9043 -1.0221
 2231TIP3   OH230887   5.452   3.886  18.368 -0.1868 -0.3214 -0.0838
 2231TIP3    H130888   5.519   3.838  18.319  0.8359 -0.3971  1.3245
 2231TIP3    H230889   5.450   3.972  18.327 -1.8993 -1.3870 -2.5177
 2232TIP3   OH230890   1.091   0.954  19.356 -0.1099 -0.1748  0.2756
 2232TIP3    H130891   1.108   0.991  19.443  0.3116  1.4439 -0.4581
 2232TIP3    H230892   1.170   0.903  19.336 -0.3222 -0.7806  0.9310
 2233TIP3   OH230893   2.149   3.453  18.906 -0.2444  0.2310  0.4580
 2233TIP3    H130894   2.211   3.471  18.977 -1.5271 -1.3015  2.0593
 2233TIP3    H230895   2.194   3.391  18.849  0.6033  1.0653  0.2020
 2234TIP3   OH230896   4.217   5.870  18.627  0.2459  0.0290  0.5937
 2234TIP3    H130897   4.262   5.871  18.543 -0.8319 -1.0953 -0.0238
 2234TIP3    H230898   4.125   5.856  18.606 -0.0197 -0.5184  1.9544
 2235TIP3   OH230899   3.806   5.138  19.029 -0.1316  0.0352  0.2838
 2235TIP3    H130900   3.774   5.068  19.086  0.0904 -0.5454 -0.2805
 2235TIP3    H230901   3.741   5.208  19.037 -0.5836 -0.4071  0.5336
 2236TIP3   OH230902   4.286   3.581  19.886 -0.2466  0.8367  0.8946
 2236TIP3    H130903   4.221   3.629  19.835  0.0984 -0.6224 -1.0293
 2236TIP3    H230904   4.368   3.628  19.870  0.0932 -0.2793 -0.9936
 2237TIP3   OH230905   2.855   4.195  20.042  0.0078  0.2698 -1.0834
 2237TIP3    H130906   2.943   4.163  20.022  0.4746  1.5999 -1.2740
 2237TIP3    H230907   2.818   4.129  20.100  2.2894  1.1512  1.5845
 2238TIP3   OH230908   0.977   1.636  17.390  0.3487  0.3987  0.3773
 2238TIP3    H130909   1.071   1.653  17.402  0.5531  0.3180 -1.0286
 2238TIP3    H230910   0.964   1.549  17.428  0.7275  0.6275  1.0561
 2239TIP3   OH230911   6.185   3.651  19.397  0.2041  0.5154  0.2468
 2239TIP3    H130912   6.225   3.567  19.376  0.4091  0.6647  0.0318
 2239TIP3    H230913   6.233   3.681  19.474 -0.6186 -0.0802  1.0022
 2240TIP3   OH230914   1.618   0.047  19.911  0.4952 -0.7763  0.0664
 2240TIP3    H130915   1.684   0.042  19.981  0.9821  0.6394 -0.2769
 2240TIP3    H230916   1.538   0.073  19.957  1.1414  1.6433 -0.0303
 2241TIP3   OH230917   3.244   5.286  17.552 -0.0837 -0.5763  0.2278
 2241TIP3    H130918   3.199   5.206  17.525  0.1262 -0.8949  0.8110
 2241TIP3    H230919   3.272   5.269  17.642  0.7088 -0.1758  0.0665
 2242TIP3   OH230920   6.717   5.041  20.684  0.1648  0.8645  0.2600
 2242TIP3    H130921   6.766   4.968  20.645  0.2028  1.1216 -0.1824
 2242TIP3    H230922   6.625   5.017  20.670  0.1658  0.4502  0.9611
 2243TIP3   OH230923   6.011   6.104  19.343  0.1495 -0.9029 -0.3903
 2243TIP3    H130924   5.998   6.186  19.391 -3.0226 -0.4006 -1.8707
 2243TIP3    H230925   5.976   6.037  19.401  0.2335 -0.8706 -0.3004
 2244TIP3   OH230926   1.587   5.143  19.730  0.6790  0.6529  0.1070
 2244TIP3    H130927   1.567   5.065  19.678 -0.2591  1.0542 -0.1521
 2244TIP3    H230928   1.585   5.215  19.666  0.5710  1.0116  0.5105
 2245TIP3   OH230929   6.295   1.985  16.743  0.4372  0.2966 -0.1464
 2245TIP3    H130930   6.382   1.948  16.730 -0.1163 -0.6579 -1.3490
 2245TIP3    H230931   6.251   1.974  16.659 -0.4728  1.8159  0.0877
 2246TIP3   OH230932   2.284   5.013  20.194  0.4039  0.1719 -0.6631
 2246TIP3    H130933   2.203   4.962  20.185  0.6084 -0.2883  0.0882
 2246TIP3    H230934   2.299   5.049  20.106 -0.6287  0.2813 -0.8094
 2247TIP3   OH230935   2.403   3.096  18.447 -0.2427 -0.2932 -0.4011
 2247TIP3    H130936   2.498   3.101  18.444 -0.2798  0.6299 -0.5506
 2247TIP3    H230937   2.384   3.029  18.512  0.5105 -0.5553 -0.4456
 2248TIP3   OH230938   6.154   0.246  17.697 -0.1898  0.2799  0.7596
 2248TIP3    H130939   6.074   0.279  17.737 -1.6803 -0.9171 -1.0760
 2248TIP3    H230940   6.216   0.319  17.705 -1.7835  1.6546  1.2997
 2249TIP3   OH230941   3.757   0.963  18.076 -0.4994 -0.5542  0.0419
 2249TIP3    H130942   3.804   0.882  18.097 -1.5074 -0.7662  1.5752
 2249TIP3    H230943   3.825   1.020  18.039  1.2451 -0.5548  2.9252
 2250TIP3   OH230944   6.054   2.633  19.848  0.6754  0.5883 -0.3391
 2250TIP3    H130945   6.021   2.717  19.819 -1.2141  0.1572  0.4208
 2250TIP3    H230946   6.005   2.614  19.928  2.2619 -0.4710  0.4427
 2251TIP3   OH230947   3.411   2.975  17.760 -0.5455  0.0365  0.5897
 2251TIP3    H130948   3.352   2.902  17.781  1.5910 -1.7171  0.8203
 2251TIP3    H230949   3.366   3.022  17.689 -1.6642 -1.9584 -0.1173
 2252TIP3   OH230950   3.420   4.774  18.092  0.3253 -0.2731 -0.3846
 2252TIP3    H130951   3.458   4.815  18.169  0.0588 -0.2555 -0.2616
 2252TIP3    H230952   3.326   4.788  18.101  0.2143 -1.0215 -0.2793
 2253TIP3   OH230953   3.177   6.164  18.123 -0.1232  0.2410 -0.1873
 2253TIP3    H130954   3.126   6.087  18.099  0.3235  0.2353 -1.2044
 2253TIP3    H230955   3.179   6.164  18.219  0.0454 -1.1277 -0.1768
 2254TIP3   OH230956   6.248   5.742  18.668  0.1084  0.1125 -0.4234
 2254TIP3    H130957   6.196   5.822  18.679  1.5951  1.2555 -1.3067
 2254TIP3    H230958   6.305   5.739  18.745  1.3403  0.9524 -1.2650
 2255TIP3   OH230959   6.142   0.833  18.850  0.0869  0.0075 -0.0599
 2255TIP3    H130960   6.224   0.803  18.811 -0.4406 -1.0992 -0.3555
 2255TIP3    H230961   6.078   0.766  18.825 -0.6240  0.1562  1.2753
 2256TIP3   OH230962   1.585   3.994  19.129 -0.6512 -0.4175 -0.1099
 2256TIP3    H130963   1.609   4.077  19.088 -0.8134  0.2847  1.1627
 2256TIP3    H230964   1.538   3.946  19.061  1.0748 -0.2811 -1.4822
 2257TIP3   OH230965   0.810   5.436  17.344 -0.3018 -0.0713  0.6448
 2257TIP3    H130966   0.827   5.389  17.426 -3.3859 -0.0334  1.4175
 2257TIP3    H230967   0.813   5.368  17.277  2.6148 -0.0471  0.6231
 2258TIP3   OH230968   5.677   1.448  20.077  0.6553 -0.3275 -0.8043
 2258TIP3    H130969   5.659   1.532  20.119  1.5336 -1.1048  1.2862
 2258TIP3    H230970   5.699   1.471  19.987 -1.2298  1.4511 -0.9116
 2259TIP3   OH230971   2.129   3.099  18.891  0.7580  0.3437 -0.2982
 2259TIP3    H130972   2.209   3.143  18.863  0.0081  1.7653 -0.3406
 2259TIP3    H230973   2.063   3.128  18.827  0.1824 -0.6669 -0.1710
 2260TIP3   OH230974   4.163   0.466  17.720  0.4977  0.2086 -0.2558
 2260TIP3    H130975   4.178   0.504  17.806  0.4354 -2.1972  0.9182
 2260TIP3    H230976   4.067   0.461  17.713  0.5085 -0.6350  0.0656
 2261TIP3   OH230977   4.548   5.764  16.761  0.2512 -0.3813 -0.1071
 2261TIP3    H130978   4.488   5.724  16.699 -0.2362 -1.1390  0.8190
 2261TIP3    H230979   4.507   5.750  16.847  0.3373  1.6075  0.3136
 2262TIP3   OH230980   4.223   0.963  19.427 -0.2861 -0.0053  0.2137
 2262TIP3    H130981   4.173   1.029  19.379 -2.0026 -0.7433  0.9274
 2262TIP3    H230982   4.180   0.956  19.512  1.6089 -0.0181  1.2381
 2263TIP3   OH230983   4.014   5.756  17.425 -0.6551  0.2125  0.3287
 2263TIP3    H130984   3.960   5.684  17.393  0.6597 -0.4112 -0.5783
 2263TIP3    H230985   4.075   5.715  17.486  2.5726 -0.2826 -2.8771
 2264TIP3   OH230986   5.573   2.599  18.393 -0.1927 -0.0625  0.2014
 2264TIP3    H130987   5.526   2.662  18.338  0.7672 -0.5818 -1.2645
 2264TIP3    H230988   5.542   2.617  18.482 -0.5022  1.9532 -0.2763
 2265TIP3   OH230989   1.890   0.645  18.439  0.2579 -0.2935 -0.3936
 2265TIP3    H130990   1.838   0.723  18.454  0.2576  0.3046 -2.9999
 2265TIP3    H230991   1.830   0.572  18.455  0.4161  0.1290  2.6222
 2266TIP3   OH230992   5.492   2.690  17.622  0.2722  0.3135 -0.5144
 2266TIP3    H130993   5.473   2.617  17.563 -2.0730 -1.0274  1.6763
 2266TIP3    H230994   5.499   2.767  17.565 -0.0788 -1.1656 -2.6484
 2267TIP3   OH230995   5.755   6.637  18.467 -0.4119 -0.4254 -0.1562
 2267TIP3    H130996   5.811   6.589  18.406  0.6233  2.7369 -1.9222
 2267TIP3    H230997   5.682   6.668  18.413  0.1496  1.8267  0.2732
 2268TIP3   OH230998   2.046   3.580  17.200 -0.7926 -0.6906  0.2560
 2268TIP3    H130999   2.022   3.490  17.218 -0.3367 -0.6056  1.3977
 2268TIP3    H231000   2.119   3.574  17.138 -1.5537 -1.0439 -0.6300
 2269TIP3   OH231001   2.971   5.014  16.745 -0.6163 -0.2224 -0.5458
 2269TIP3    H131002   2.965   4.975  16.833 -0.9314  3.1606  1.1032
 2269TIP3    H231003   3.059   5.052  16.743 -1.4267  1.7070 -0.7271
 2270TIP3   OH231004   3.153   5.523  19.664  0.0140  0.1333  0.8457
 2270TIP3    H131005   3.112   5.520  19.578  3.5348  0.1889 -1.0401
 2270TIP3    H231006   3.140   5.435  19.700 -0.4419 -0.2710 -0.2875
 2271TIP3   OH231007   1.986   0.047  17.059  0.0935 -0.3140  1.1952
 2271TIP3    H131008   2.030  -0.036  17.041 -0.6866 -0.3479 -0.8909
 2271TIP3    H231009   1.919   0.053  16.991 -1.2720  1.0386  2.5871
 2272TIP3   OH231010   1.906   2.892  18.302  0.0672 -0.2063  0.5019
 2272TIP3    H131011   1.877   2.852  18.220  1.6254 -0.4557  0.0395
 2272TIP3    H231012   1.842   2.961  18.319  0.5281  0.8512 -1.7364
 2273TIP3   OH231013   0.483   3.326  18.921 -0.0200  0.8478 -0.0579
 2273TIP3    H131014   0.535   3.253  18.954 -1.7634 -0.7158 -0.6176
 2273TIP3    H231015   0.541   3.370  18.859  1.4845  0.7164  1.1888
 2274TIP3   OH231016   6.209   1.018  18.389 -0.0333  0.2651  0.2451
 2274TIP3    H131017   6.279   0.990  18.330  0.4397 -0.5879  1.1793
 2274TIP3    H231018   6.128   0.989  18.346  0.1134  1.7125 -1.0929
 2275TIP3   OH231019   0.801   4.801  20.183 -0.2380  0.2153  0.0058
 2275TIP3    H131020   0.789   4.717  20.137 -0.1200 -0.6062  1.4304
 2275TIP3    H231021   0.718   4.814  20.229 -0.4408  1.1581 -0.5930
 2276TIP3   OH231022   2.879   2.644  17.115 -0.4065  0.1778 -0.2973
 2276TIP3    H131023   2.938   2.568  17.124 -0.8544 -0.1755 -0.3165
 2276TIP3    H231024   2.938   2.719  17.115  0.0419 -0.1633 -0.1868
 2277TIP3   OH231025   6.384   2.999  17.890  0.2757  0.8404 -0.1332
 2277TIP3    H131026   6.386   3.020  17.984  0.5350 -1.3087  0.3940
 2277TIP3    H231027   6.441   3.065  17.850  0.5298  1.5164  1.2704
 2278TIP3   OH231028   1.712   6.317  19.474 -0.2096  0.0744  0.3225
 2278TIP3    H131029   1.772   6.249  19.441  0.9579  1.1389  0.1700
 2278TIP3    H231030   1.650   6.270  19.529 -0.7174 -1.4185 -1.4330
 2279TIP3   OH231031   0.576   1.423  17.422 -0.0823 -0.2195 -0.5126
 2279TIP3    H131032   0.658   1.414  17.372  0.3694  0.8031  0.0101
 2279TIP3    H231033   0.507   1.407  17.357  0.5117 -2.7508 -0.6187
 2280TIP3   OH231034   2.331   1.709  17.511  0.6255 -0.4863  0.2321
 2280TIP3    H131035   2.322   1.679  17.420 -0.5470 -2.3666  0.9051
 2280TIP3    H231036   2.252   1.761  17.526  0.3407 -0.9819  0.4565
 2281TIP3   OH231037   2.707   2.411  18.308 -0.1357  0.5976  0.0855
 2281TIP3    H131038   2.688   2.455  18.225 -1.6477  1.3630  0.8009
 2281TIP3    H231039   2.752   2.477  18.361  0.4586  0.2408  0.0364
 2282TIP3   OH231040   4.384   3.062  18.140  0.1442 -0.2150  0.6327
 2282TIP3    H131041   4.378   3.136  18.200 -0.8482 -1.3117  1.9641
 2282TIP3    H231042   4.326   3.084  18.068  2.7724  1.9685 -1.0003
 2283TIP3   OH231043   1.661   6.631  17.185 -0.0866 -0.3772 -0.9744
 2283TIP3    H131044   1.591   6.599  17.129 -1.1348 -0.1769  0.1601
 2283TIP3    H231045   1.664   6.725  17.169 -0.4371 -0.3086 -0.6468
 2284TIP3   OH231046   6.477   4.216  18.154  0.0403 -0.6901  0.5509
 2284TIP3    H131047   6.491   4.310  18.163 -1.1568 -0.2766 -1.3423
 2284TIP3    H231048   6.548   4.187  18.096 -1.9293 -0.0674 -2.4184
 2285TIP3   OH231049   4.192   4.829  17.411  0.0739 -0.1616  0.3267
 2285TIP3    H131050   4.244   4.749  17.405  0.8698  0.3687  0.0032
 2285TIP3    H231051   4.222   4.872  17.491  1.7411  1.2174 -0.9618
 2286TIP3   OH231052   1.617   4.621  20.193 -0.7200  0.1112 -0.2636
 2286TIP3    H131053   1.557   4.604  20.120 -1.6868  3.5040 -0.4212
 2286TIP3    H231054   1.704   4.625  20.152 -1.3159  2.6115 -1.4759
 2287TIP3   OH231055   4.797   3.593  19.724 -0.5202  0.3504 -0.4479
 2287TIP3    H131056   4.855   3.656  19.683 -1.3755  1.0020 -0.6925
 2287TIP3    H231057   4.849   3.553  19.794  0.0712  1.2367 -0.3691
 2288TIP3   OH231058   4.679   2.299  18.836 -0.2528  0.0725 -0.1830
 2288TIP3    H131059   4.708   2.322  18.748  1.0480  1.5503  0.5847
 2288TIP3    H231060   4.592   2.262  18.823  0.5921 -1.4462 -2.2553
 2289TIP3   OH231061   6.400   3.664  16.962 -0.5535  0.0896  0.1534
 2289TIP3    H131062   6.469   3.703  16.909 -0.1386  0.6589  1.0826
 2289TIP3    H231063   6.319   3.703  16.928 -0.6381 -1.7662 -2.0050
 2290TIP3   OH231064   1.310   5.980  18.024 -0.2489 -0.3416 -0.1386
 2290TIP3    H131065   1.305   6.005  17.932 -2.5768  0.4073  0.1132
 2290TIP3    H231066   1.282   5.889  18.026 -1.9177  0.1320 -0.0608
 2291TIP3   OH231067   1.289   2.943  17.640  0.5226 -0.2136 -0.7264
 2291TIP3    H131068   1.333   2.904  17.716 -1.3622 -1.3704 -0.1432
 2291TIP3    H231069   1.316   3.035  17.641  0.9088 -0.3000  1.0964
 2292TIP3   OH231070   3.076   3.474  19.696 -0.1689  0.2175  0.7303
 2292TIP3    H131071   3.163   3.500  19.726  0.7059 -0.7715 -0.7813
 2292TIP3    H231072   3.067   3.384  19.726 -0.2044 -0.0404 -0.0409
 2293TIP3   OH231073   3.595   1.896  19.634 -0.1969 -0.3587  0.3478
 2293TIP3    H131074   3.626   1.961  19.697  0.5846 -1.3383  1.0122
 2293TIP3    H231075   3.588   1.943  19.551  2.6064  0.0844  0.2549
 2294TIP3   OH231076   0.905   1.018  18.256  0.4021 -0.1217 -0.1525
 2294TIP3    H131077   0.998   0.995  18.261  0.3216 -0.7877 -1.4384
 2294TIP3    H231078   0.890   1.041  18.165 -0.6497  0.2315  0.0931
 2295TIP3   OH231079   4.376   1.190  20.184 -0.2439  0.1554 -0.5029
 2295TIP3    H131080   4.319   1.147  20.248 -0.3629  1.6408  0.4160
 2295TIP3    H231081   4.434   1.120  20.154 -2.1905 -1.2984 -1.1120
 2296TIP3   OH231082   5.146   4.197  19.553 -0.7810 -0.5858 -0.6923
 2296TIP3    H131083   5.182   4.117  19.515  0.6251 -0.0036 -0.6310
 2296TIP3    H231084   5.216   4.231  19.609 -0.9682  1.2177 -1.4749
 2297TIP3   OH231085   4.797   0.220  19.707  0.2437 -0.8909 -0.0860
 2297TIP3    H131086   4.752   0.213  19.791 -0.8366 -1.6990 -0.7057
 2297TIP3    H231087   4.751   0.159  19.650 -0.3863  1.0975 -1.8442
 2298TIP3   OH231088   0.544   0.421  19.679  0.3978  0.3875  0.1402
 2298TIP3    H131089   0.583   0.369  19.609 -0.0064 -1.6239  1.3181
 2298TIP3    H231090   0.552   0.512  19.649  1.7098 -0.2787 -1.7327
 2299TIP3   OH231091   2.689   5.488  17.377 -0.1545  0.4349 -0.0941
 2299TIP3    H131092   2.779   5.510  17.403  0.7178 -3.4770  0.8333
 2299TIP3    H231093   2.639   5.491  17.458 -0.0414 -0.7473  0.0289
 2300TIP3   OH231094   2.608   5.375  20.366  0.0665 -0.3654  0.0777
 2300TIP3    H131095   2.645   5.388  20.279  1.7810 -2.7389  0.3450
 2300TIP3    H231096   2.568   5.287  20.362  0.1854 -0.5206  1.6635
 2301TIP3   OH231097   5.565   6.229  17.999  0.2811 -0.4280  0.3437
 2301TIP3    H131098   5.603   6.303  18.046 -2.0044  0.4562  0.8942
 2301TIP3    H231099   5.564   6.256  17.908 -1.3800  0.6465  0.6515
 2302TIP3   OH231100   4.519   0.864  16.748 -0.4253 -0.1879 -0.0029
 2302TIP3    H131101   4.525   0.831  16.837 -1.1423 -0.5264 -0.0699
 2302TIP3    H231102   4.432   0.903  16.742  0.0878  0.9872 -0.1779
 2303TIP3   OH231103   1.240   2.210  19.490 -0.2094  0.2242  0.3976
 2303TIP3    H131104   1.180   2.211  19.415  0.1173  0.1986  0.1356
 2303TIP3    H231105   1.183   2.220  19.566 -0.5539  0.1427  0.1521
 2304TIP3   OH231106   1.584   0.193  20.343  0.0615 -0.4999  0.1195
 2304TIP3    H131107   1.569   0.207  20.437  0.6287 -1.2865  0.3276
 2304TIP3    H231108   1.562   0.101  20.329 -0.1613 -0.3466 -0.5560
 2305TIP3   OH231109   2.397   5.985  18.886  0.2703 -0.0742  0.2706
 2305TIP3    H131110   2.463   5.937  18.836  0.5206 -0.2179  0.7325
 2305TIP3    H231111   2.447   6.032  18.953 -0.1328 -0.5630  0.9271
 2306TIP3   OH231112   5.191   2.396  16.933 -0.0731 -0.3606 -0.8029
 2306TIP3    H131113   5.246   2.451  16.877 -1.3663  0.8114 -0.9921
 2306TIP3    H231114   5.175   2.317  16.880  1.6880 -0.8940 -0.5860
 2307TIP3   OH231115   4.519   2.531  18.280 -0.9094  0.1088  0.4264
 2307TIP3    H131116   4.518   2.519  18.185 -2.3983 -0.3500  0.4779
 2307TIP3    H231117   4.511   2.443  18.315  0.8676  0.1544  1.0228
 2308TIP3   OH231118   0.388   3.253  18.569  0.2357  0.6070  0.1329
 2308TIP3    H131119   0.359   3.311  18.499 -0.5125  1.7687  1.3732
 2308TIP3    H231120   0.426   3.311  18.635  1.2130 -0.4944  0.5747
 2309TIP3   OH231121   5.198   6.372  18.066  0.1333  0.2095 -0.2785
 2309TIP3    H131122   5.113   6.332  18.083  0.2660 -0.5576 -1.3193
 2309TIP3    H231123   5.235   6.320  17.994  1.1269  1.0429 -0.3930
 2310TIP3   OH231124   6.039   3.494  18.913 -0.1215  0.0233 -0.4068
 2310TIP3    H131125   6.061   3.475  18.822 -0.0674  0.9177 -0.5881
 2310TIP3    H231126   6.063   3.415  18.960 -0.8763 -0.7508 -1.2790
 2311TIP3   OH231127   5.388   1.770  19.951 -0.0785 -0.5287  0.0842
 2311TIP3    H131128   5.308   1.751  19.902 -0.2573 -1.0590  0.5704
 2311TIP3    H231129   5.436   1.831  19.895  0.5944 -2.5054 -1.6494
 2312TIP3   OH231130   2.049   5.172  17.179  0.1923  0.7080 -0.4415
 2312TIP3    H131131   1.989   5.134  17.114 -0.2172 -0.4457  0.5707
 2312TIP3    H231132   2.039   5.266  17.168 -1.2433  0.5337 -0.8273
 2313TIP3   OH231133   5.095   0.005  17.721 -0.8650 -0.8441 -0.3820
 2313TIP3    H131134   5.047  -0.017  17.641 -0.4563  0.5648 -1.0507
 2313TIP3    H231135   5.117   0.098  17.711  1.6638 -1.3249  0.0677
 2314TIP3   OH231136   1.446   5.384  16.858 -0.7826  0.2264 -0.0300
 2314TIP3    H131137   1.452   5.474  16.825  0.8022  0.3141  0.3959
 2314TIP3    H231138   1.352   5.366  16.863 -1.1312  1.8553 -0.1360
 2315TIP3   OH231139   4.329   0.132  17.039 -0.4699 -0.3084 -0.2265
 2315TIP3    H131140   4.388   0.057  17.039  1.4678  1.0255  2.4383
 2315TIP3    H231141   4.320   0.156  17.132 -1.3583  2.4470 -0.9074
 2316TIP3   OH231142   0.581   4.080  19.021 -0.1121 -0.0908  0.3649
 2316TIP3    H131143   0.517   4.151  19.029  2.4280  2.3042  1.2469
 2316TIP3    H231144   0.639   4.109  18.951  0.1095 -2.1276 -0.3443
 2317TIP3   OH231145   6.566   5.491  19.147  0.1654 -0.3274 -0.3670
 2317TIP3    H131146   6.494   5.428  19.147 -0.8167  0.7350  0.5252
 2317TIP3    H231147   6.641   5.442  19.178 -0.2447 -1.3769 -0.9628
 2318TIP3   OH231148   5.335   5.569  20.426 -0.5257 -0.1718 -0.1526
 2318TIP3    H131149   5.282   5.649  20.428 -3.0882 -1.7377 -0.3426
 2318TIP3    H231150   5.403   5.584  20.491 -1.8603  1.5770  0.9403
 2319TIP3   OH231151   3.462   2.230  20.217 -0.4021  0.1282 -0.3220
 2319TIP3    H131152   3.393   2.291  20.244 -1.6416 -1.4683  0.3262
 2319TIP3    H231153   3.542   2.282  20.218 -1.3941  1.7229  0.2120
 2320TIP3   OH231154   1.437   4.101  20.408  0.0759 -0.4714  0.2763
 2320TIP3    H131155   1.396   4.040  20.347 -0.0566  0.2436 -0.3544
 2320TIP3    H231156   1.467   4.045  20.480  0.6141 -1.3875 -0.6251
 2321TIP3   OH231157   5.977   2.356  20.339  0.1587  0.6565 -0.0646
 2321TIP3    H131158   6.071   2.374  20.333  1.3626 -3.4687  2.3365
 2321TIP3    H231159   5.963   2.283  20.279 -1.0868  0.0860  0.8692
 2322TIP3   OH231160   0.615   0.794  19.184 -0.7337 -0.3062  0.2466
 2322TIP3    H131161   0.566   0.825  19.108  0.9799  1.3415 -0.2827
 2322TIP3    H231162   0.550   0.790  19.254 -2.3207 -1.6785 -1.2026
 2323TIP3   OH231163   2.791   2.663  18.151 -0.0790 -0.3362  0.1655
 2323TIP3    H131164   2.762   2.737  18.205 -0.0070 -0.4742  0.3953
 2323TIP3    H231165   2.887   2.666  18.155 -0.0628 -1.7467  2.0004
 2324TIP3   OH231166   3.443   3.595  17.343  0.7050  0.0236  0.2989
 2324TIP3    H131167   3.492   3.671  17.375 -1.0280  0.7223  1.4631
 2324TIP3    H231168   3.391   3.566  17.419  1.3646 -2.4014 -0.0807
 2325TIP3   OH231169   2.685   4.288  19.029 -0.0004  0.2643  0.3689
 2325TIP3    H131170   2.608   4.344  19.032 -0.0632  0.3397 -1.6988
 2325TIP3    H231171   2.757   4.344  19.058 -0.0803  1.4093 -1.5267
 2326TIP3   OH231172   6.633   3.613  17.369  0.4411 -0.0902 -0.1337
 2326TIP3    H131173   6.617   3.583  17.280  2.3328  0.9556 -0.9007
 2326TIP3    H231174   6.683   3.694  17.359  0.2410  0.3549  1.8784
 2327TIP3   OH231175   3.420   0.009  19.846 -0.1344 -0.8339 -0.1015
 2327TIP3    H131176   3.447   0.001  19.937 -0.3632 -1.2476 -0.0685
 2327TIP3    H231177   3.422   0.103  19.828 -0.4085 -0.7253  0.4292
 2328TIP3   OH231178   6.688   4.756  20.177 -0.1227 -0.7846 -0.0437
 2328TIP3    H131179   6.720   4.843  20.202  0.8634 -0.5980 -1.7794
 2328TIP3    H231180   6.643   4.771  20.094  1.7378 -2.1815 -1.3863
 2329TIP3   OH231181   4.450   2.410  18.007 -0.4937 -0.2476  0.5497
 2329TIP3    H131182   4.440   2.447  17.919 -2.5558  0.1463  0.9036
 2329TIP3    H231183   4.525   2.351  17.999 -0.3689  0.0811 -1.3581
 2330TIP3   OH231184   5.337   2.841  17.346  0.5775 -0.3765 -0.0276
 2330TIP3    H131185   5.391   2.912  17.312 -2.5675  1.5146 -1.5010
 2330TIP3    H231186   5.338   2.774  17.278 -0.0240  0.2711 -0.6834
 2331TIP3   OH231187   2.788   2.587  17.880  0.3265  0.1346 -0.7514
 2331TIP3    H131188   2.771   2.608  17.972  0.1484 -1.5076 -0.3746
 2331TIP3    H231189   2.773   2.669  17.834 -2.6196  0.3196  0.3047
 2332TIP3   OH231190   1.738   2.587  18.944 -0.5892  0.4289 -0.2200
 2332TIP3    H131191   1.830   2.610  18.956 -0.4691 -0.4882  0.7968
 2332TIP3    H231192   1.692   2.671  18.943  0.2378  0.8839 -0.5652
 2333TIP3   OH231193   0.057   5.019  20.254  0.1544  0.4215  0.3342
 2333TIP3    H131194   0.058   5.074  20.332 -0.1679  0.5253  0.2673
 2333TIP3    H231195  -0.017   5.051  20.203  0.6587  0.6782 -0.2500
 2334TIP3   OH231196   2.844   1.079  17.050 -0.1169 -0.4687  0.1957
 2334TIP3    H131197   2.750   1.064  17.039 -0.3986  0.4134  1.1774
 2334TIP3    H231198   2.849   1.155  17.108  1.1916  1.1733 -1.9087
 2335TIP3   OH231199   4.795   5.211  18.631 -0.7218 -0.4119 -0.8033
 2335TIP3    H131200   4.704   5.239  18.641 -0.8681 -1.0982 -0.1661
 2335TIP3    H231201   4.819   5.175  18.717  0.0019 -0.6665 -1.1056
 2336TIP3   OH231202   5.189   6.654  17.140 -0.3149 -0.0192  0.1231
 2336TIP3    H131203   5.133   6.720  17.098  0.0465 -0.8278 -1.7344
 2336TIP3    H231204   5.233   6.701  17.210 -1.9315  1.0944  0.4510
 2337TIP3   OH231205   5.231   5.408  18.557  0.2403  0.4691 -0.0989
 2337TIP3    H131206   5.213   5.454  18.639 -0.8088 -0.2532  0.1011
 2337TIP3    H231207   5.160   5.435  18.498  0.8749  0.8276 -0.7045
 2338TIP3   OH231208   6.358   0.437  19.239 -0.2841 -0.3057 -0.4145
 2338TIP3    H131209   6.402   0.359  19.273 -0.2635  0.4393  1.3956
 2338TIP3    H231210   6.267   0.410  19.227 -0.2120 -0.7029 -0.1039
 2339TIP3   OH231211   5.489   6.623  17.198 -0.5505 -0.1872 -0.1209
 2339TIP3    H131212   5.557   6.669  17.245 -1.1367  1.3326 -0.7051
 2339TIP3    H231213   5.431   6.692  17.164  0.3932 -1.0437 -3.9861
 2340TIP3   OH231214   0.605   2.787  19.660 -0.3236 -0.0319  0.5663
 2340TIP3    H131215   0.665   2.798  19.734  0.2939 -1.1804  0.2656
 2340TIP3    H231216   0.578   2.695  19.665  0.7766 -0.5260 -1.3823
 2341TIP3   OH231217   1.701   1.010  17.670 -0.2806 -0.2841 -0.5648
 2341TIP3    H131218   1.661   0.931  17.634 -0.1940 -0.1485 -0.9714
 2341TIP3    H231219   1.630   1.074  17.672 -0.9469 -0.9731  1.8444
 2342TIP3   OH231220   6.621   0.980  18.095 -0.3710  0.2194 -0.2601
 2342TIP3    H131221   6.707   0.962  18.056 -0.2751  1.6563 -0.7708
 2342TIP3    H231222   6.641   1.026  18.177 -0.6319 -1.0278  0.5325
 2343TIP3   OH231223   0.606   5.317  19.369  0.1402 -0.6042 -0.1358
 2343TIP3    H131224   0.690   5.283  19.339 -0.1418 -0.1483 -1.4967
 2343TIP3    H231225   0.606   5.408  19.341 -0.5076 -0.4039  0.5082
 2344TIP3   OH231226   0.507   3.610  20.241 -0.2079  0.1930 -0.8819
 2344TIP3    H131227   0.414   3.598  20.223  0.0651 -2.3383 -0.9939
 2344TIP3    H231228   0.544   3.638  20.158 -0.8469  1.1828 -0.8471
 2345TIP3   OH231229   0.882   1.159  20.195  0.1938  0.0417 -0.5250
 2345TIP3    H131230   0.958   1.171  20.139 -0.2609  0.9819 -0.9663
 2345TIP3    H231231   0.895   1.220  20.268  0.9920 -1.4750  0.6602
 2346TIP3   OH231232   0.531   3.276  20.073  0.1701  0.2036  0.0031
 2346TIP3    H131233   0.436   3.260  20.070  0.2559 -0.1971 -0.9455
 2346TIP3    H231234   0.545   3.347  20.011  0.6567 -0.6713 -0.9135
 2347TIP3   OH231235   6.596   1.771  17.790 -0.5183  0.5437 -0.4453
 2347TIP3    H131236   6.651   1.787  17.867 -0.5251  2.4221 -0.7883
 2347TIP3    H231237   6.524   1.717  17.824 -1.5173  2.8241  1.3653
 2348TIP3   OH231238   1.245   2.751  18.991  0.2062 -0.1872  0.1803
 2348TIP3    H131239   1.292   2.815  18.937  2.5118 -0.7215  1.4114
 2348TIP3    H231240   1.243   2.672  18.938 -1.6651  0.5226 -0.8988
 2349TIP3   OH231241   6.707   6.175  19.972  1.0542  0.0684  0.8378
 2349TIP3    H131242   6.680   6.083  19.966  1.6720 -0.0535 -3.5944
 2349TIP3    H231243   6.786   6.172  20.027  1.1017 -2.0969  0.7745
 2350TIP3   OH231244   5.653   1.922  17.461  0.2237 -0.0958  0.0040
 2350TIP3    H131245   5.737   1.968  17.462  0.0980  0.1505 -0.3804
 2350TIP3    H231246   5.609   1.955  17.383 -0.6102  0.4652  0.6896
 2351TIP3   OH231247   1.950   2.845  18.858 -0.3314  0.2033 -0.1114
 2351TIP3    H131248   1.978   2.797  18.936 -2.7803  1.6818  1.8236
 2351TIP3    H231249   1.998   2.927  18.861  1.5010 -0.7304 -1.6883
 2352TIP3   OH231250   5.410   6.274  20.484  0.3732  0.1019 -0.3809
 2352TIP3    H131251   5.485   6.223  20.515  0.8494  0.1796 -1.3694
 2352TIP3    H231252   5.442   6.363  20.477  0.3219  0.0569 -1.2419
 2353TIP3   OH231253   5.255   0.901  19.018  0.0302  0.1822 -0.4611
 2353TIP3    H131254   5.201   0.980  19.026  0.0361  0.2268 -0.8279
 2353TIP3    H231255   5.237   0.851  19.097  0.3632  0.7613 -0.0065
 2354TIP3   OH231256   2.891   0.204  17.419 -0.4791 -0.1643  0.2869
 2354TIP3    H131257   2.800   0.190  17.393 -0.2253 -0.3083 -0.5643
 2354TIP3    H231258   2.900   0.299  17.421 -0.0548 -0.1166 -1.8941
 2355TIP3   OH231259   1.500   6.708  18.848 -0.1316 -0.3718  0.1609
 2355TIP3    H131260   1.505   6.659  18.766 -0.4268  1.0168 -0.7026
 2355TIP3    H231261   1.580   6.684  18.895 -0.7126 -2.4140  0.2082
 2356TIP3   OH231262   0.120   4.842  20.534  0.9240 -0.3476 -0.0943
 2356TIP3    H131263   0.158   4.845  20.446 -4.4891 -0.8299 -2.8765
 2356TIP3    H231264   0.135   4.753  20.564  1.3617 -0.7038 -1.3265
 2357TIP3   OH231265   6.484   1.363  20.197 -0.2954 -0.3796  0.0097
 2357TIP3    H131266   6.556   1.412  20.159  0.4375 -1.2231  0.2787
 2357TIP3    H231267   6.488   1.278  20.155  1.0054 -1.6163  2.4097
 2358TIP3   OH231268   0.887   1.513  20.022  0.2817 -0.4588 -0.0628
 2358TIP3    H131269   0.943   1.449  19.979 -0.5742 -0.9778 -0.4362
 2358TIP3    H231270   0.816   1.529  19.960 -0.1845 -0.0995  0.5426
 2359TIP3   OH231271   2.300   1.668  17.244 -0.1320  0.6166  0.0142
 2359TIP3    H131272   2.318   1.746  17.191 -1.1549 -0.4433 -2.0118
 2359TIP3    H231273   2.205   1.657  17.240  0.0047 -0.8517  0.0657
 2360TIP3   OH231274   2.830   0.558  19.179  0.0429 -0.0702 -0.5715
 2360TIP3    H131275   2.803   0.481  19.130 -1.2359  0.4227 -0.6702
 2360TIP3    H231276   2.822   0.532  19.271 -3.3701  0.8261 -0.4955
 2361TIP3   OH231277   3.153   4.562  18.753  0.7060 -0.5788  0.1033
 2361TIP3    H131278   3.204   4.631  18.796 -0.0872 -0.2296  0.4991
 2361TIP3    H231279   3.153   4.490  18.816  1.7113 -1.0344 -0.3969
 2362TIP3   OH231280   4.339   2.056  19.317  0.2380 -0.0477 -0.1055
 2362TIP3    H131281   4.376   1.969  19.301  0.8222  0.3210 -0.8385
 2362TIP3    H231282   4.398   2.116  19.271 -0.7385  0.6455 -0.4933
 2363TIP3   OH231283   1.299   5.006  17.123  0.8188 -0.2463  0.3896
 2363TIP3    H131284   1.373   5.062  17.101  1.2177 -1.4397 -1.5566
 2363TIP3    H231285   1.276   4.963  17.040 -1.1047 -1.0146  1.2650
 2364TIP3   OH231286   4.062   0.406  20.318  0.2272  0.5891  0.3918
 2364TIP3    H131287   4.011   0.330  20.348  0.4368  0.2106 -0.1797
 2364TIP3    H231288   4.017   0.481  20.355 -2.7512  0.5528 -2.6519
 2365TIP3   OH231289   5.363   0.416  19.554  0.1956 -0.0301 -0.2270
 2365TIP3    H131290   5.299   0.464  19.502 -1.3245 -0.6983  0.9411
 2365TIP3    H231291   5.379   0.335  19.505 -1.0559 -0.5548  0.1899
 2366TIP3   OH231292   4.058   4.275  19.496 -0.5296  0.1091 -0.6620
 2366TIP3    H131293   4.066   4.369  19.478  1.7103 -0.3127 -2.1897
 2366TIP3    H231294   4.110   4.262  19.576 -1.2175  0.1973 -0.1850
 2367TIP3   OH231295   5.967   0.348  20.164 -0.7307 -0.3433 -0.1495
 2367TIP3    H131296   6.040   0.387  20.213 -1.3083 -0.2814  0.6665
 2367TIP3    H231297   6.009   0.314  20.084  0.6398 -2.4117  1.3408
 2368TIP3   OH231298   0.144   5.066  19.466 -0.0070 -0.2106 -0.5003
 2368TIP3    H131299   0.179   4.980  19.489  0.0062  0.2261  1.2456
 2368TIP3    H231300   0.219   5.114  19.431  0.7145 -0.0008  1.2059
 2369TIP3   OH231301   1.933   0.191  18.706 -0.2074 -0.1365 -0.1983
 2369TIP3    H131302   1.837   0.193  18.705 -0.1971  0.2405 -0.6755
 2369TIP3    H231303   1.954   0.119  18.765 -0.7882  0.4797  0.8100
 2370TIP3   OH231304   2.104   1.988  19.525  0.4047  0.0541  0.5420
 2370TIP3    H131305   2.120   2.043  19.448 -0.2746  1.0079  1.0655
 2370TIP3    H231306   2.069   1.906  19.489  0.6346  0.2728 -0.1961
 2371TIP3   OH231307   2.580   3.727  19.510 -0.1069  0.2563  0.0042
 2371TIP3    H131308   2.631   3.748  19.432 -0.5219 -0.9393 -0.6126
 2371TIP3    H231309   2.627   3.770  19.582  0.9387  0.4031 -0.7461
 2372TIP3   OH231310   4.333   0.047  18.305  0.1667  0.2223 -0.0673
 2372TIP3    H131311   4.292   0.124  18.267  1.7880  1.1189 -0.0884
 2372TIP3    H231312   4.418   0.078  18.338 -0.0511 -1.0774  1.9215
 2373TIP3   OH231313   3.708   1.235  17.119 -0.5726 -0.4187  0.0752
 2373TIP3    H131314   3.617   1.264  17.109 -0.0799  0.8659 -0.9788
 2373TIP3    H231315   3.742   1.233  17.030  1.0846  1.3848  0.5921
 2374TIP3   OH231316   5.785   1.427  17.947  0.1191  0.8166 -0.2438
 2374TIP3    H131317   5.697   1.388  17.955 -0.7806  2.8598  0.6963
 2374TIP3    H231318   5.842   1.353  17.926 -1.6574 -0.7625  0.1584
 2375TIP3   OH231319   6.367   6.341  17.765  0.7986 -0.0076  0.1747
 2375TIP3    H131320   6.319   6.419  17.739 -1.3300 -0.9151  1.1234
 2375TIP3    H231321   6.366   6.285  17.687  2.0270  0.7315 -0.3985
 2376TIP3   OH231322   2.130   6.339  17.389  0.2381  0.2720  0.1950
 2376TIP3    H131323   2.062   6.396  17.353 -0.4203 -0.8131 -0.3130
 2376TIP3    H231324   2.181   6.311  17.312  0.7472  0.4066  0.4768
 2377TIP3   OH231325   5.802   4.971  20.250 -0.1097 -0.3088 -0.2910
 2377TIP3    H131326   5.716   4.973  20.209  0.4313 -1.1847 -1.5456
 2377TIP3    H231327   5.851   5.041  20.206  0.6205 -1.5587 -1.5417
 2378TIP3   OH231328   0.963   1.722  19.684  0.3699 -1.0224  0.3619
 2378TIP3    H131329   0.886   1.721  19.628  0.3229 -1.1305  0.4263
 2378TIP3    H231330   0.970   1.632  19.717  0.5953 -1.0434  0.2582
 2379TIP3   OH231331   3.452   2.805  17.196 -0.1992 -0.0588  0.1207
 2379TIP3    H131332   3.431   2.837  17.108  3.4462 -0.5229 -1.1130
 2379TIP3    H231333   3.449   2.884  17.250 -0.0177  0.7550 -0.9950
 2380TIP3   OH231334   2.902   3.580  19.502 -0.2083 -0.2607  0.2019
 2380TIP3    H131335   2.819   3.590  19.548 -0.1257 -0.9850  0.5158
 2380TIP3    H231336   2.965   3.559  19.571  0.4746  1.4301  0.1288
 2381TIP3   OH231337   6.310   4.971  18.599  0.9187  0.0119 -0.3375
 2381TIP3    H131338   6.240   5.036  18.593 -0.0861 -0.8897  1.1783
 2381TIP3    H231339   6.312   4.930  18.512  0.1223  0.6092 -0.6515
 2382TIP3   OH231340   3.675   1.140  17.851 -0.6765 -0.4294  0.6257
 2382TIP3    H131341   3.761   1.146  17.892 -0.8461 -0.7703  1.0395
 2382TIP3    H231342   3.685   1.073  17.783 -0.9214 -1.3829  1.4928
 2383TIP3   OH231343   5.282   5.203  17.959  0.1160  0.5459 -0.1602
 2383TIP3    H131344   5.249   5.114  17.962  1.9307 -0.1759 -0.3827
 2383TIP3    H231345   5.330   5.209  17.876  0.4891  1.5518  0.1054
 2384TIP3   OH231346   3.446   0.676  20.499  0.5221 -0.1249  0.1319
 2384TIP3    H131347   3.381   0.732  20.458  0.9790 -1.0249 -1.9662
 2384TIP3    H231348   3.397   0.623  20.562 -0.1732  1.4375  0.9702
 2385TIP3   OH231349   4.245   3.222  17.245  0.2658 -0.2626 -0.1552
 2385TIP3    H131350   4.265   3.313  17.269 -0.5000  0.4342 -1.9415
 2385TIP3    H231351   4.160   3.204  17.285  1.1419 -0.8127  1.5799
 2386TIP3   OH231352   3.450   3.794  19.074  0.2157 -0.7768 -0.4026
 2386TIP3    H131353   3.388   3.722  19.087  1.0996 -1.5326 -0.2342
 2386TIP3    H231354   3.403   3.872  19.103 -0.9667 -1.1951 -1.1505
 2387TIP3   OH231355   1.938   5.130  19.296 -0.5919 -0.2273  0.7163
 2387TIP3    H131356   2.022   5.167  19.269 -0.9875 -0.7822 -1.3974
 2387TIP3    H231357   1.894   5.202  19.341  0.3533  0.5558  0.4321
 2388TIP3   OH231358   0.591   5.066  19.505  0.2578 -0.0351 -0.3061
 2388TIP3    H131359   0.599   5.087  19.412  0.3520  0.4322 -0.1910
 2388TIP3    H231360   0.679   5.077  19.541  0.2414 -0.3049 -0.1795
 2389TIP3   OH231361   0.671   4.776  16.625  0.2584  0.1859 -0.0917
 2389TIP3    H131362   0.730   4.701  16.627 -1.0389 -0.9026  2.9825
 2389TIP3    H231363   0.695   4.823  16.545  3.6032 -1.4579 -0.2271
 2390TIP3   OH231364   0.395   1.780  17.218  0.4632  0.5864 -0.2909
 2390TIP3    H131365   0.466   1.736  17.171  0.1477 -0.3357  0.0690
 2390TIP3    H231366   0.330   1.711  17.232  0.9894  0.5269  2.3874
 2391TIP3   OH231367   0.010   0.801  19.885 -0.2197 -0.0530 -0.5813
 2391TIP3    H131368  -0.004   0.734  19.818  2.1902 -0.5019 -0.7393
 2391TIP3    H231369  -0.053   0.870  19.864  0.0120 -0.4811 -2.9186
 2392TIP3   OH231370   5.764   3.359  19.525 -0.1941  0.1979 -0.0766
 2392TIP3    H131371   5.840   3.376  19.470 -0.4442  1.1707 -0.1454
 2392TIP3    H231372   5.799   3.314  19.602  0.3385  0.0056 -0.4243
 2393TIP3   OH231373   1.877   2.643  17.660  0.4643  0.0702  0.3453
 2393TIP3    H131374   1.901   2.650  17.568 -0.3072  1.4552  0.2186
 2393TIP3    H231375   1.942   2.697  17.706  0.1910  0.2972  0.4733
 2394TIP3   OH231376   3.240   0.278  16.662  0.0024 -0.7174 -0.2342
 2394TIP3    H131377   3.238   0.201  16.604 -0.2645 -1.4090  0.6635
 2394TIP3    H231378   3.321   0.268  16.712  0.6888  0.3488 -1.0821
 2395TIP3   OH231379   5.093   5.853  18.197  0.8616 -0.1646  0.6600
 2395TIP3    H131380   5.128   5.931  18.153  1.0628 -0.3868  0.4275
 2395TIP3    H231381   5.156   5.834  18.266  0.1589  0.6363  1.5442
 2396TIP3   OH231382   2.343   0.544  18.941  0.0039  0.0177  0.2444
 2396TIP3    H131383   2.402   0.553  19.016  2.2086  2.9035 -1.6188
 2396TIP3    H231384   2.398   0.506  18.872 -0.7540  1.2314 -1.0811
 2397TIP3   OH231385   1.072   2.220  17.808  0.3947  0.2043 -0.3262
 2397TIP3    H131386   1.018   2.197  17.732  0.5040  0.1006 -0.3732
 2397TIP3    H231387   1.017   2.280  17.859 -0.9236 -2.0676  1.0870
 2398TIP3   OH231388   0.219   1.751  19.310 -0.1119 -0.5535  0.6018
 2398TIP3    H131389   0.287   1.806  19.347  0.1738 -0.2840 -0.3092
 2398TIP3    H231390   0.264   1.671  19.282  0.0273  0.0313 -0.9201
 2399TIP3   OH231391   1.346   4.414  18.176 -0.0316 -0.2541 -0.0842
 2399TIP3    H131392   1.370   4.321  18.186 -0.8908 -0.6260 -1.2650
 2399TIP3    H231393   1.419   4.452  18.127  1.1265  0.1167  1.8202
 2400TIP3   OH231394   6.487   0.599  19.054 -0.2095  0.5018  0.3580
 2400TIP3    H131395   6.425   0.575  18.986  2.4932 -3.3140 -1.1004
 2400TIP3    H231396   6.461   0.546  19.130  1.9534 -2.4479 -0.7818
 2401TIP3   OH231397   4.088   2.019  19.371 -0.3266  0.2152 -0.5323
 2401TIP3    H131398   4.169   2.062  19.400 -0.3711  1.0679 -1.5856
 2401TIP3    H231399   4.112   1.977  19.289 -0.7523 -0.2616 -0.4141
 2402TIP3   OH231400   0.887   2.329  18.828 -0.3817 -0.2322 -0.0834
 2402TIP3    H131401   0.951   2.259  18.814  1.1730  0.8084  1.3207
 2402TIP3    H231402   0.937   2.409  18.815 -1.5431  0.6245  0.5821
 2403TIP3   OH231403   1.601   0.151  19.301 -0.4932 -0.2710  0.0637
 2403TIP3    H131404   1.690   0.127  19.275 -0.6624 -0.8389  0.0043
 2403TIP3    H231405   1.604   0.150  19.397 -0.2974  0.2494  0.0705
 2404TIP3   OH231406   0.828   0.149  18.473 -0.0387  0.7816  0.3722
 2404TIP3    H131407   0.833   0.214  18.403 -3.0563  0.0699 -0.6316
 2404TIP3    H231408   0.892   0.082  18.449  0.6796  1.7157 -0.3905
 2405TIP3   OH231409   4.355   5.681  17.284  0.1193 -0.0959 -0.5601
 2405TIP3    H131410   4.300   5.608  17.258 -0.9475  0.4140  0.2167
 2405TIP3    H231411   4.361   5.675  17.379 -1.0072  1.4957 -0.3345
 2406TIP3   OH231412   5.868   5.804  16.441  0.2036  0.1693  0.1411
 2406TIP3    H131413   5.793   5.843  16.396 -0.8672 -0.1226  1.6157
 2406TIP3    H231414   5.836   5.720  16.473  1.4461 -0.3715  0.0271
 2407TIP3   OH231415   4.370   5.526  18.510 -0.1766 -0.0503  0.1627
 2407TIP3    H131416   4.401   5.617  18.512 -0.6679  0.2005 -1.6523
 2407TIP3    H231417   4.441   5.478  18.468 -1.0733  0.0440 -1.5399
 2408TIP3   OH231418   5.268   3.538  18.587 -0.2525 -0.1272 -0.0816
 2408TIP3    H131419   5.301   3.477  18.522 -0.8730 -1.0780  0.4579
 2408TIP3    H231420   5.174   3.518  18.593 -0.3926  0.6149  0.3922
 2409TIP3   OH231421   2.356   1.620  19.351  0.3341  0.9468 -0.4824
 2409TIP3    H131422   2.268   1.605  19.315 -0.3139  0.9647  1.0079
 2409TIP3    H231423   2.412   1.558  19.304 -0.2503  1.7357 -2.2625
 2410TIP3   OH231424   1.502   2.028  16.733 -0.3983 -0.3607  0.3592
 2410TIP3    H131425   1.576   2.008  16.790  1.3041  0.5027 -1.4041
 2410TIP3    H231426   1.501   1.956  16.670 -0.5832  0.0125 -0.0708
 2411TIP3   OH231427   5.026   0.328  19.486  0.2198  0.7064  0.2431
 2411TIP3    H131428   4.975   0.384  19.544  1.7521  1.7510  0.6368
 2411TIP3    H231429   5.060   0.258  19.543 -0.6636  0.0542 -0.0035
 2412TIP3   OH231430   1.059   5.842  17.911 -0.0410  0.3619 -0.2061
 2412TIP3    H131431   0.965   5.856  17.920 -0.7554 -2.0050 -2.7048
 2412TIP3    H231432   1.091   5.922  17.869 -0.9406  1.1292  0.5384
 2413TIP3   OH231433   5.372   2.554  19.073 -0.2315 -0.3561 -0.1117
 2413TIP3    H131434   5.293   2.517  19.113 -0.4171  0.3656  0.2033
 2413TIP3    H231435   5.376   2.513  18.987 -0.0045 -1.6850  0.5016
 2414TIP3   OH231436   1.096   0.266  19.466  0.0252 -0.1120  0.2830
 2414TIP3    H131437   1.115   0.195  19.404 -2.0537  0.6456 -1.3312
 2414TIP3    H231438   1.101   0.224  19.552  1.9490 -1.4522 -0.4169
 2415TIP3   OH231439   0.697   2.029  19.021 -0.0339  0.6986  0.1245
 2415TIP3    H131440   0.602   2.023  19.032  0.2223  0.7364  3.2450
 2415TIP3    H231441   0.709   2.078  18.940 -2.5710 -1.9867 -2.0931
 2416TIP3   OH231442   6.061   2.911  20.007  0.3552  0.0949  0.3456
 2416TIP3    H131443   6.097   2.925  19.919 -0.1222  0.6677  0.2329
 2416TIP3    H231444   5.969   2.937  20.000  0.7350  1.9299  1.4450
 2417TIP3   OH231445   5.212   4.069  20.166  0.4355 -0.0314  0.2536
 2417TIP3    H131446   5.243   4.054  20.255  2.1804  1.5933 -0.0080
 2417TIP3    H231447   5.127   4.111  20.177  0.3628 -0.3867  1.1263
 2418TIP3   OH231448   1.659   0.732  19.063 -0.0673 -0.0034 -0.3243
 2418TIP3    H131449   1.623   0.806  19.014 -2.8617 -1.2462 -0.3179
 2418TIP3    H231450   1.629   0.654  19.016 -0.5445 -1.1856  1.7990
 2419TIP3   OH231451   5.121   3.639  19.295 -0.1406 -0.0760 -0.1256
 2419TIP3    H131452   5.140   3.596  19.212 -1.4416  0.5342 -0.7655
 2419TIP3    H231453   5.065   3.713  19.272 -0.6812  0.0053  1.3190
 2420TIP3   OH231454   4.886   5.807  16.601 -0.0562  0.0030 -0.1891
 2420TIP3    H131455   4.972   5.805  16.558 -0.8721  0.5668 -1.9334
 2420TIP3    H231456   4.829   5.756  16.543 -0.8064 -0.8220  1.2249
 2421TIP3   OH231457   5.380   4.499  19.948 -0.5105  0.5899 -0.1770
 2421TIP3    H131458   5.394   4.414  19.989 -3.3042  0.5676  0.9336
 2421TIP3    H231459   5.439   4.558  19.993 -0.7990 -0.1818  1.2578
 2422TIP3   OH231460   4.627   1.248  19.273  0.5173 -0.3658 -0.6204
 2422TIP3    H131461   4.684   1.240  19.197 -1.5022 -1.1653 -2.1573
 2422TIP3    H231462   4.637   1.165  19.319 -0.2470 -1.0041 -1.5554
 2423TIP3   OH231463   2.356   3.752  18.259 -0.1136  0.2584  0.3009
 2423TIP3    H131464   2.354   3.809  18.337 -0.5591 -0.6954  1.0036
 2423TIP3    H231465   2.447   3.725  18.251  0.3278  1.8887 -0.6712
 2424TIP3   OH231466   4.224   6.508  17.005 -0.2543 -0.2822  0.2038
 2424TIP3    H131467   4.300   6.549  16.963 -0.6512  0.3759  0.1330
 2424TIP3    H231468   4.255   6.419  17.026 -0.1206 -0.7405 -1.7048
 2425TIP3   OH231469   3.344   6.648  18.313 -0.2610 -0.5636  0.2927
 2425TIP3    H131470   3.258   6.616  18.284 -0.5938 -0.0866  0.7488
 2425TIP3    H231471   3.403   6.620  18.243 -0.9418 -0.0489 -0.5164
 2426TIP3   OH231472   3.696   5.822  20.461 -0.4749  0.1172 -0.2815
 2426TIP3    H131473   3.637   5.752  20.489 -0.6468 -0.3670 -1.7535
 2426TIP3    H231474   3.740   5.786  20.384 -0.1760  1.4437 -0.7603
 2427TIP3   OH231475   1.295   6.526  17.552 -0.3278  0.0392 -0.0119
 2427TIP3    H131476   1.323   6.560  17.637 -0.9677 -1.6378  0.9185
 2427TIP3    H231477   1.226   6.586  17.524 -2.1383 -0.9454  2.0646
 2428TIP3   OH231478   4.328   0.570  20.588 -0.2499  0.1017  0.0901
 2428TIP3    H131479   4.282   0.489  20.611  0.0812 -0.4390 -1.0765
 2428TIP3    H231480   4.399   0.541  20.531 -0.3420  1.2515 -0.6284
 2429TIP3   OH231481   6.378   4.690  17.406  0.7854 -0.9395  0.6877
 2429TIP3    H131482   6.318   4.634  17.357 -0.5994  1.5122 -0.6731
 2429TIP3    H231483   6.321   4.741  17.465  1.6358  0.5082  0.3216
 2430TIP3   OH231484   1.199   6.147  20.342  0.0789  0.4645 -0.3055
 2430TIP3    H131485   1.204   6.070  20.398  1.5760  0.7024 -0.0713
 2430TIP3    H231486   1.135   6.124  20.275  0.1998 -0.8273 -0.0005
 2431TIP3   OH231487   2.203   1.995  20.552 -0.5260  0.1823  0.9043
 2431TIP3    H131488   2.156   2.042  20.483 -0.4337  0.0057  0.7206
 2431TIP3    H231489   2.268   2.058  20.584 -0.3070  0.1380  0.5609
 2432TIP3   OH231490   4.647   6.477  18.496 -0.3002  0.5456 -0.6524
 2432TIP3    H131491   4.569   6.509  18.541 -0.7832 -0.3462 -0.8253
 2432TIP3    H231492   4.681   6.553  18.448 -0.8182  1.0441 -0.2347
 2433TIP3   OH231493   0.944   3.067  19.217 -0.2224 -0.0156 -0.3036
 2433TIP3    H131494   1.025   3.118  19.213  0.6740 -1.4484 -3.7455
 2433TIP3    H231495   0.972   2.976  19.212 -1.9894 -0.5255 -2.9007
 2434TIP3   OH231496   5.487   2.749  18.178  0.0947  0.0134  0.2795
 2434TIP3    H131497   5.547   2.689  18.136 -0.1755 -0.1577  0.1388
 2434TIP3    H231498   5.448   2.800  18.107 -1.9232 -1.6848  0.0877
 2435TIP3   OH231499   3.134   6.590  17.178  0.0849 -0.3273 -0.3380
 2435TIP3    H131500   3.133   6.504  17.137 -0.6199 -0.3074 -0.3745
 2435TIP3    H231501   3.043   6.606  17.204  0.2751  0.2388  0.0147
 2436TIP3   OH231502   6.325   4.822  18.014  0.8020  0.0881  0.1759
 2436TIP3    H131503   6.415   4.838  18.041  1.1930  1.0023 -1.4837
 2436TIP3    H231504   6.330   4.744  17.959  0.6479  0.3224 -0.1768
 2437TIP3   OH231505   4.131   4.206  19.765  0.2321  0.1043  0.0995
 2437TIP3    H131506   4.154   4.226  19.856 -0.6708 -0.0629  0.3696
 2437TIP3    H231507   4.160   4.116  19.752  1.9107  0.6598 -0.3168
 2438TIP3   OH231508   1.339   4.749  17.716 -0.3066  0.2348  0.3522
 2438TIP3    H131509   1.309   4.800  17.641 -3.7091 -0.7233  0.9008
 2438TIP3    H231510   1.370   4.667  17.678  0.0923  0.6067 -0.1409
 2439TIP3   OH231511   1.210   5.155  19.514  0.1628 -0.4587  0.6026
 2439TIP3    H131512   1.256   5.091  19.569  2.9164  0.4488 -0.4625
 2439TIP3    H231513   1.269   5.170  19.440 -0.3327  3.2388  0.7455
 2440TIP3   OH231514   1.463   0.310  19.951 -0.2523  0.5981  0.0019
 2440TIP3    H131515   1.542   0.361  19.966  0.1826 -0.4986  1.7087
 2440TIP3    H231516   1.398   0.346  20.012 -0.1826 -0.3225  0.6434
 2441TIP3   OH231517   1.032   1.416  18.523  0.4895 -0.2640  0.2769
 2441TIP3    H131518   1.003   1.506  18.514  1.1231 -0.1126 -0.3298
 2441TIP3    H231519   0.964   1.364  18.480 -0.4552 -0.1872  1.6281
 2442TIP3   OH231520   6.273   5.146  19.758  0.2965 -0.2837 -0.3045
 2442TIP3    H131521   6.258   5.215  19.822 -2.2264 -1.6467  0.6957
 2442TIP3    H231522   6.350   5.099  19.791  0.6013  0.6091  0.2879
 2443TIP3   OH231523   3.745   1.360  19.664 -0.1379 -0.3703 -0.3536
 2443TIP3    H131524   3.769   1.452  19.668 -2.6998  0.4251 -1.3333
 2443TIP3    H231525   3.810   1.321  19.606  0.6684  0.9157 -0.3589
 2444TIP3   OH231526   5.455   1.449  19.296 -0.0557 -0.2547  0.6561
 2444TIP3    H131527   5.478   1.387  19.227  0.5189 -0.0881  0.6928
 2444TIP3    H231528   5.366   1.424  19.322  0.2245 -1.1573  0.7731
 2445TIP3   OH231529   1.490   5.182  17.030  0.8390 -0.3865 -0.0548
 2445TIP3    H131530   1.475   5.267  16.988  0.1469 -0.4885 -0.0285
 2445TIP3    H231531   1.573   5.152  16.994  1.7733  0.9052  0.9304
 2446TIP3   OH231532   4.206   4.471  18.731  0.0849  0.3527 -0.1244
 2446TIP3    H131533   4.151   4.440  18.803  0.6467 -1.8749 -0.5852
 2446TIP3    H231534   4.255   4.544  18.769 -1.9702  1.3729  0.7568
 2447TIP3   OH231535   3.050   5.103  19.065 -0.2072  0.4453 -0.0272
 2447TIP3    H131536   3.062   5.163  19.138  0.9263 -0.7918  0.8595
 2447TIP3    H231537   3.075   5.153  18.988 -0.1736  1.3744  0.5710
 2448TIP3   OH231538   0.384   6.118  17.063 -0.6518  0.4959  0.2537
 2448TIP3    H131539   0.321   6.129  16.992 -1.2682  0.4524  0.7909
 2448TIP3    H231540   0.353   6.175  17.133 -2.2676 -2.2669  1.9683
 2449TIP3   OH231541   4.005   0.326  18.451 -0.2378  0.1504  0.0590
 2449TIP3    H131542   3.940   0.259  18.428 -2.4485  1.6687  1.5730
 2449TIP3    H231543   3.964   0.409  18.428  0.8776  1.2083  1.6741
 2450TIP3   OH231544   1.650   3.296  19.919  0.1169  0.0530 -0.4002
 2450TIP3    H131545   1.691   3.344  19.991 -0.6840  0.2521 -0.0631
 2450TIP3    H231546   1.685   3.207  19.926  0.7304  0.2955 -0.3214
 2451TIP3   OH231547   2.703   4.468  19.638  0.2276  0.1416  0.8037
 2451TIP3    H131548   2.678   4.395  19.695  1.0115 -0.8819 -0.1018
 2451TIP3    H231549   2.642   4.462  19.564 -0.3708  1.0644  1.2067
 2452TIP3   OH231550   5.234   0.323  17.136 -0.2923 -0.6055  0.2103
 2452TIP3    H131551   5.321   0.300  17.171  1.0589 -1.3933 -3.2238
 2452TIP3    H231552   5.184   0.242  17.140 -0.6067 -0.3808  1.3259
 2453TIP3   OH231553   0.838   4.270  20.105  0.0960  0.0349  0.1286
 2453TIP3    H131554   0.918   4.318  20.083  0.0454  0.2980  0.5088
 2453TIP3    H231555   0.768   4.334  20.095 -0.3884 -0.8069 -2.5933
 2454TIP3   OH231556   4.160   3.655  20.106 -0.3926 -0.5867 -0.5004
 2454TIP3    H131557   4.194   3.617  20.024 -0.2392  0.6878 -1.0531
 2454TIP3    H231558   4.147   3.747  20.085 -1.4400 -0.4733  0.5930
 2455TIP3   OH231559   4.785   5.631  18.394 -0.2125  0.1205 -0.5766
 2455TIP3    H131560   4.744   5.698  18.339 -0.1182 -1.3231 -2.5157
 2455TIP3    H231561   4.865   5.671  18.427  1.1161  0.2595 -3.6743
 2456TIP3   OH231562   0.207   6.263  18.615  0.0182  0.0074 -0.3514
 2456TIP3    H131563   0.141   6.201  18.643 -0.2600  0.0535 -0.8811
 2456TIP3    H231564   0.197   6.266  18.520 -1.2659  2.2569 -0.2235
 2457TIP3   OH231565   5.900   3.303  20.331 -0.1681  0.1611  0.1776
 2457TIP3    H131566   5.925   3.212  20.346 -1.7701 -0.0132  2.3373
 2457TIP3    H231567   5.956   3.353  20.389 -0.6007  0.3494  0.4353
 2458TIP3   OH231568   3.981   2.203  17.910 -0.2385 -0.3747 -0.2880
 2458TIP3    H131569   3.919   2.197  17.982 -0.1813 -0.5389 -0.2528
 2458TIP3    H231570   4.067   2.205  17.952 -0.1599 -1.2928 -0.3839
 2459TIP3   OH231571   3.144   5.806  19.743 -0.0916 -0.3111  0.3981
 2459TIP3    H131572   3.153   5.711  19.734 -0.8240 -0.2432 -1.4731
 2459TIP3    H231573   3.076   5.830  19.680 -0.4115  1.3883  1.3174
 2460TIP3   OH231574   3.435   6.494  16.856 -0.0012  0.2510 -0.0090
 2460TIP3    H131575   3.415   6.442  16.778  0.7913 -1.3366  0.7908
 2460TIP3    H231576   3.420   6.585  16.830 -2.6700 -0.4152 -1.1031
 2461TIP3   OH231577   6.424   1.376  18.561 -0.1583 -0.1843  0.3977
 2461TIP3    H131578   6.370   1.306  18.597  2.5390 -2.2524  0.7859
 2461TIP3    H231579   6.459   1.421  18.637 -0.4709  0.4277  0.1825
 2462TIP3   OH231580   0.180   0.159  19.398  0.0850 -0.6167 -0.2349
 2462TIP3    H131581   0.183   0.249  19.366  2.6432  0.0852  1.5725
 2462TIP3    H231582   0.098   0.124  19.366 -1.1798  2.4861 -0.7167
 2463TIP3   OH231583   2.505   2.526  18.569  0.0751 -1.0581 -0.7256
 2463TIP3    H131584   2.495   2.525  18.474 -0.1903 -2.7477 -0.7032
 2463TIP3    H231585   2.540   2.613  18.588 -3.0091  0.6329 -2.0086
 2464TIP3   OH231586   1.469   4.855  18.987  0.3583 -0.1829 -0.1535
 2464TIP3    H131587   1.533   4.836  18.919  1.4009  1.2109  0.3858
 2464TIP3    H231588   1.457   4.772  19.033  1.7133 -0.5017 -0.3367
 2465TIP3   OH231589   1.712   2.985  19.902 -0.0743 -0.1177  0.0164
 2465TIP3    H131590   1.687   2.909  19.954 -0.1051  0.0841  0.2968
 2465TIP3    H231591   1.676   2.967  19.815  3.2622 -2.3218 -1.1244
 2466TIP3   OH231592   4.358   4.670  18.274  0.7785  0.2297 -0.5776
 2466TIP3    H131593   4.333   4.652  18.365  0.4042  2.6526 -0.1380
 2466TIP3    H231594   4.449   4.700  18.280  0.2944  1.8142 -0.7720
 2467TIP3   OH231595   4.671   2.708  19.432 -0.2673  0.0917  0.1451
 2467TIP3    H131596   4.710   2.640  19.378  0.6247  0.4854  0.2798
 2467TIP3    H231597   4.688   2.680  19.522  1.6047  1.2827  0.2232
 2468TIP3   OH231598   5.095   5.487  16.780 -0.2373  0.1528 -0.0240
 2468TIP3    H131599   5.166   5.435  16.743 -0.7232  0.5627 -1.6241
 2468TIP3    H231600   5.045   5.425  16.833  0.4596 -0.4902 -0.1030
 2469TIP3   OH231601   0.348   6.427  19.681  0.1273 -0.2667 -0.7992
 2469TIP3    H131602   0.351   6.447  19.587 -0.1195 -0.6075 -0.8818
 2469TIP3    H231603   0.265   6.463  19.710  0.9672  1.4280 -0.3292
 2470TIP3   OH231604   1.110   2.524  19.265  0.6280 -0.2913  0.0621
 2470TIP3    H131605   1.151   2.528  19.352  0.2972 -0.7717  0.2450
 2470TIP3    H231606   1.047   2.452  19.272 -0.0325  0.2425 -0.3079
 2471TIP3   OH231607   3.207   3.404  18.157 -0.0434  0.2630  0.1502
 2471TIP3    H131608   3.272   3.429  18.092  0.0295  2.6128  1.0013
 2471TIP3    H231609   3.149   3.480  18.163 -1.8917 -1.1177  0.6150
 2472TIP3   OH231610   2.158   6.521  16.990 -0.0762  0.1234  0.2743
 2472TIP3    H131611   2.158   6.433  17.028 -0.5641 -0.5025 -1.1221
 2472TIP3    H231612   2.111   6.512  16.907  1.4742  1.2943 -0.8039
 2473TIP3   OH231613   5.769   4.317  18.643  0.1890  0.1739 -0.7074
 2473TIP3    H131614   5.762   4.223  18.657 -2.3429  0.1594 -1.5955
 2473TIP3    H231615   5.827   4.347  18.713 -0.0144 -1.8483  0.4132
 2474TIP3   OH231616   1.832   2.691  19.659 -0.2877  0.1757 -0.6975
 2474TIP3    H131617   1.893   2.649  19.598 -0.4362 -1.3683  0.1656
 2474TIP3    H231618   1.786   2.756  19.605  0.4577 -0.2712 -1.9269
 2475TIP3   OH231619   0.568   2.615  19.911  0.5898  0.0911  0.0618
 2475TIP3    H131620   0.602   2.546  19.968  0.7994  0.6527  0.6273
 2475TIP3    H231621   0.545   2.569  19.830  1.2918 -0.5506  0.2034
 2476TIP3   OH231622   1.744   2.008  20.128  0.0505  0.2610  0.6532
 2476TIP3    H131623   1.688   2.042  20.058  0.3268 -0.5641  0.0236
 2476TIP3    H231624   1.721   2.061  20.205  0.9098  2.3496 -0.4188
 2477TIP3   OH231625   4.287   6.104  18.413 -0.3065  0.3095 -0.0867
 2477TIP3    H131626   4.374   6.129  18.382 -0.3061  0.0618 -0.2855
 2477TIP3    H231627   4.265   6.171  18.478 -0.3247  0.8663 -0.6539
 2478TIP3   OH231628   1.306   4.805  19.523  0.4567  0.7407  0.2123
 2478TIP3    H131629   1.299   4.771  19.434  1.6470 -1.1246  0.7654
 2478TIP3    H231630   1.227   4.772  19.567  1.7394 -1.7472  0.8220
 2479TIP3   OH231631   5.875   1.255  20.207  0.2203 -0.1902  0.1232
 2479TIP3    H131632   5.812   1.224  20.273 -0.6737 -0.7997 -0.9842
 2479TIP3    H231633   5.831   1.330  20.166  0.4791 -0.2355 -0.2392
 2480TIP3   OH231634   0.201   3.030  18.660 -0.5776 -0.1700  0.5699
 2480TIP3    H131635   0.246   2.969  18.718 -0.4583  0.1471  0.8133
 2480TIP3    H231636   0.222   3.117  18.695 -1.1745 -0.0065  0.5406
 2481TIP3   OH231637   2.621   5.722  18.122 -0.0574  0.2828  0.1750
 2481TIP3    H131638   2.663   5.651  18.074  0.7590  0.7682  0.1563
 2481TIP3    H231639   2.664   5.721  18.208  0.0685  0.8514  0.1187
 2482TIP3   OH231640   1.742   3.662  17.541 -0.6059 -0.4124  0.2042
 2482TIP3    H131641   1.732   3.690  17.632  0.4642 -3.1938  1.2910
 2482TIP3    H231642   1.732   3.567  17.544 -1.0822 -0.5291 -2.7073
 2483TIP3   OH231643   5.065   2.435  18.736 -0.3035  0.3571 -0.3207
 2483TIP3    H131644   5.069   2.453  18.830 -2.4733  2.0253 -0.4890
 2483TIP3    H231645   5.075   2.340  18.730  1.4489  0.3539  1.4221
 2484TIP3   OH231646   5.028   0.160  17.062  0.8426  0.4872  0.2792
 2484TIP3    H131647   5.036   0.157  16.967  0.8281  2.3705  0.1876
 2484TIP3    H231648   4.935   0.144  17.079  1.0158 -0.8754  0.0712
 2485TIP3   OH231649   6.389   3.578  18.200  0.5690 -0.8163 -0.7594
 2485TIP3    H131650   6.440   3.656  18.222 -0.2577 -0.3470 -0.4595
 2485TIP3    H231651   6.315   3.580  18.261  1.3733 -2.7222  0.3753
 2486TIP3   OH231652   0.891   1.378  19.338 -0.3966 -0.8803 -0.3703
 2486TIP3    H131653   0.932   1.305  19.385  0.3023 -0.1874  0.1176
 2486TIP3    H231654   0.952   1.399  19.268 -0.6770 -0.8681 -0.6143
 2487TIP3   OH231655   6.416   2.932  19.475  0.6781 -0.3574 -0.4261
 2487TIP3    H131656   6.385   3.023  19.480  0.8690 -0.3344  0.7135
 2487TIP3    H231657   6.350   2.882  19.523  2.3259 -0.2929  2.1511
 2488TIP3   OH231658   1.786   3.528  17.951  0.0014 -0.2622 -0.2246
 2488TIP3    H131659   1.851   3.481  18.004  0.4437 -0.8328 -1.2570
 2488TIP3    H231660   1.713   3.467  17.942 -0.1877 -0.0639 -0.0579
 2489TIP3   OH231661   0.349   1.364  17.939  0.3766 -0.0484  0.0320
 2489TIP3    H131662   0.279   1.413  17.896 -0.6195 -0.4282  1.1737
 2489TIP3    H231663   0.304   1.296  17.989  1.2694  1.5024  3.2279
 2490TIP3   OH231664   4.749   4.742  19.400  0.1995  0.6260  0.1176
 2490TIP3    H131665   4.702   4.672  19.447  2.6638 -1.2455 -0.0415
 2490TIP3    H231666   4.769   4.704  19.315  2.2322  1.2222  0.2957
 2491TIP3   OH231667   0.511   1.300  19.401 -0.0558 -0.1866  0.5164
 2491TIP3    H131668   0.579   1.307  19.469  0.9855 -1.2362 -0.3733
 2491TIP3    H231669   0.473   1.213  19.415  0.5981 -0.6625 -0.6283
 2492TIP3   OH231670   3.987   4.950  19.026  0.3618 -0.4511 -0.2837
 2492TIP3    H131671   3.942   5.017  18.974  0.6004  1.7153  2.0700
 2492TIP3    H231672   4.067   4.993  19.055  1.5893 -2.5562 -0.3827
 2493TIP3   OH231673   5.412   5.101  20.036  0.2516 -0.2626  0.2614
 2493TIP3    H131674   5.450   5.186  20.058  0.4097 -0.7046  1.7737
 2493TIP3    H231675   5.420   5.049  20.116 -1.7081 -1.0370  0.0158
 2494TIP3   OH231676   5.712   0.885  18.413  0.2627  0.0936  0.4151
 2494TIP3    H131677   5.791   0.936  18.396  0.5867 -0.4759  0.1774
 2494TIP3    H231678   5.741   0.816  18.473 -0.2389  0.3732  0.9882
 2495TIP3   OH231679   0.439   3.541  17.960 -0.4252 -0.3516 -0.0383
 2495TIP3    H131680   0.352   3.514  17.991 -1.2354 -0.5454 -2.2620
 2495TIP3    H231681   0.456   3.485  17.884  2.8901 -2.1511  1.8243
 2496TIP3   OH231682   1.589   1.741  17.310  0.1286  0.2854  0.3611
 2496TIP3    H131683   1.624   1.789  17.235 -0.9689  0.6595  0.0774
 2496TIP3    H231684   1.611   1.650  17.293  0.3556  0.4326 -0.1495
 2497TIP3   OH231685   1.691   6.020  17.582  0.0922  0.3307 -0.4684
 2497TIP3    H131686   1.622   6.085  17.568  0.3817  1.3907  2.4865
 2497TIP3    H231687   1.772   6.066  17.560  0.0806 -0.0907 -1.4412
 2498TIP3   OH231688   4.639   1.953  19.194  0.1306 -0.2227 -0.3669
 2498TIP3    H131689   4.630   1.934  19.101  0.9284 -1.0875 -0.2823
 2498TIP3    H231690   4.665   1.869  19.233 -1.0139 -0.0777  0.7618
 2499TIP3   OH231691   5.718   6.466  19.916 -0.9089  0.3485 -0.9909
 2499TIP3    H131692   5.637   6.500  19.878 -1.2162  1.6376  0.7404
 2499TIP3    H231693   5.703   6.467  20.010  0.6662 -0.6418 -0.6962
 2500TIP3   OH231694   3.976   0.487  18.855  0.1586 -0.2056  0.0350
 2500TIP3    H131695   4.055   0.532  18.823 -0.5425  1.8126  0.9394
 2500TIP3    H231696   3.906   0.552  18.844 -1.1952 -1.6050  0.1424
 2501TIP3   OH231697   1.057   2.058  17.410  0.1856 -0.2542  0.3099
 2501TIP3    H131698   1.137   2.006  17.408  0.1302 -0.3150 -1.0201
 2501TIP3    H231699   1.087   2.148  17.396  0.3135  0.1805  2.8914
 2502TIP3   OH231700   5.562   5.834  20.434 -0.0468  0.1933  0.0327
 2502TIP3    H131701   5.534   5.789  20.354 -2.1285  0.1462  0.7131
 2502TIP3    H231702   5.599   5.765  20.488 -0.9808 -0.2824  0.0932
 2503TIP3   OH231703   3.426   0.753  20.168  0.0272 -0.1890 -0.3466
 2503TIP3    H131704   3.375   0.833  20.181  0.4954 -0.1529  1.6005
 2503TIP3    H231705   3.449   0.725  20.256  2.4561 -0.8142 -1.0958
 2504TIP3   OH231706   4.405   6.486  20.254 -0.4455  0.1592 -0.4013
 2504TIP3    H131707   4.479   6.436  20.222  0.4395  0.9915  0.2947
 2504TIP3    H231708   4.431   6.516  20.341 -1.2949  1.0759 -0.4326
 2505TIP3   OH231709   4.115   2.576  17.660  0.0365  0.2344  0.2536
 2505TIP3    H131710   4.175   2.613  17.595 -1.0592  1.7411  0.0589
 2505TIP3    H231711   4.138   2.621  17.742 -0.8449  0.8757  0.1620
 2506TIP3   OH231712   6.497   2.186  19.924 -0.2529  0.2183 -0.1353
 2506TIP3    H131713   6.463   2.219  19.841  0.0589 -0.3162 -0.4845
 2506TIP3    H231714   6.487   2.259  19.985  0.5364  1.0010 -0.9172
 2507TIP3   OH231715   1.915   5.414  17.196  0.6040 -0.0069 -0.2445
 2507TIP3    H131716   1.821   5.428  17.209  0.8035  0.6075  0.6527
 2507TIP3    H231717   1.956   5.487  17.243  1.5112  0.0923 -1.1706
 2508TIP3   OH231718   0.908   6.609  18.621  0.2016  0.0781  0.1102
 2508TIP3    H131719   0.841   6.595  18.687  1.1756  0.5296  1.2280
 2508TIP3    H231720   0.902   6.532  18.565  0.2410 -0.9870  1.5191
 2509TIP3   OH231721   0.322   5.684  19.804  0.0156  0.0677 -0.1705
 2509TIP3    H131722   0.318   5.606  19.750 -1.4385  0.4662 -0.6886
 2509TIP3    H231723   0.232   5.718  19.804  0.7068  2.0415 -0.4259
 2510TIP3   OH231724   4.902   5.305  20.600 -0.3791  0.1900 -0.3226
 2510TIP3    H131725   4.996   5.309  20.619 -0.8179  1.3786  1.9911
 2510TIP3    H231726   4.884   5.386  20.551 -0.5841  1.3131  1.5231
 2511TIP3   OH231727   2.519   1.425  18.400  0.1629 -0.1168 -0.1444
 2511TIP3    H131728   2.499   1.510  18.361 -0.0750 -0.7334 -1.4157
 2511TIP3    H231729   2.505   1.362  18.330  1.2055 -1.1316  0.5053
 2512TIP3   OH231730   0.604   5.511  19.151  0.0688  0.3654  0.0679
 2512TIP3    H131731   0.643   5.499  19.064 -1.1742  2.0042 -0.7646
 2512TIP3    H231732   0.666   5.569  19.196 -1.3508  3.1428 -1.3267
 2513TIP3   OH231733   4.108   5.367  18.401 -0.1989  0.3169 -0.1712
 2513TIP3    H131734   4.123   5.336  18.312 -0.1512 -0.2827  0.0410
 2513TIP3    H231735   4.195   5.383  18.436 -0.1257 -1.0235  0.3126
 2514TIP3   OH231736   0.079   0.954  17.509  0.0220  0.2592  0.4401
 2514TIP3    H131737   0.100   0.971  17.417 -2.3586  2.3543  0.1678
 2514TIP3    H231738   0.011   0.886  17.506  0.8456 -0.6063  0.7812
 2515TIP3   OH231739   4.148   4.529  19.799 -0.4244 -0.2995  0.0760
 2515TIP3    H131740   4.232   4.507  19.760  0.0600  1.6101 -0.0494
 2515TIP3    H231741   4.094   4.558  19.725 -0.7781 -0.3154  0.3211
 2516TIP3   OH231742   4.915   4.654  18.429  0.1342  0.1991  0.1197
 2516TIP3    H131743   4.975   4.727  18.415 -0.2808  0.8744  1.5883
 2516TIP3    H231744   4.963   4.576  18.401  1.8803  0.6641  1.6298
 2517TIP3   OH231745   2.348   5.085  17.161  0.2023 -0.3707  0.1667
 2517TIP3    H131746   2.377   5.068  17.071  1.0104  0.2747  0.3002
 2517TIP3    H231747   2.257   5.114  17.152  0.4805  0.3217 -0.5078
 2518TIP3   OH231748   1.133   1.679  20.516 -0.3570  0.6625  0.1379
 2518TIP3    H131749   1.102   1.692  20.426 -0.1617 -0.6038 -0.1214
 2518TIP3    H231750   1.058   1.640  20.562  0.2669 -0.8205 -0.0633
 2519TIP3   OH231751   1.805   1.451  19.014 -0.3033  0.2858  0.8658
 2519TIP3    H131752   1.829   1.410  19.097  0.5978 -1.6238 -0.2533
 2519TIP3    H231753   1.788   1.377  18.955  1.7805  1.4406 -1.3937
 2520TIP3   OH231754   3.763   0.339  17.093  0.3780  0.0093  0.3034
 2520TIP3    H131755   3.835   0.284  17.124  1.6822  1.3993 -0.1396
 2520TIP3    H231756   3.726   0.290  17.019  1.1434 -0.5381  0.2719
 2521TIP3   OH231757   3.848   2.971  19.202  0.2695 -0.3247  0.0035
 2521TIP3    H131758   3.939   2.992  19.178 -0.1571  0.9877 -0.5595
 2521TIP3    H231759   3.842   2.995  19.295  0.0069  1.4612 -0.4303
 2522TIP3   OH231760   4.047   2.515  19.674  0.1180  0.0292  0.0055
 2522TIP3    H131761   4.125   2.569  19.663 -0.0490  0.2525 -0.0819
 2522TIP3    H231762   4.002   2.520  19.590  0.5456 -0.9461 -0.2943
 2523TIP3   OH231763   4.287   0.924  18.793 -0.1341  0.3125 -0.3382
 2523TIP3    H131764   4.380   0.907  18.810  0.2376  0.6029 -1.9536
 2523TIP3    H231765   4.275   0.903  18.700 -1.7018  0.2560 -0.1466
 2524TIP3   OH231766   5.479   4.958  17.624 -0.3441  0.1313 -0.5752
 2524TIP3    H131767   5.478   5.039  17.675 -0.3517 -0.3300  0.1721
 2524TIP3    H231768   5.547   4.904  17.665 -1.1086 -0.6905 -0.3474
 2525TIP3   OH231769   5.978   4.827  17.908 -0.1714 -0.8304 -0.0389
 2525TIP3    H131770   5.920   4.851  17.981 -0.3597 -1.6773  0.0989
 2525TIP3    H231771   6.036   4.902  17.898  0.1551 -0.8774  1.2896
 2526TIP3   OH231772   5.105   4.765  17.351 -0.1894  0.3317  0.3227
 2526TIP3    H131773   5.014   4.735  17.346 -1.1470  2.6918  1.9595
 2526TIP3    H231774   5.125   4.797  17.263 -1.4427  1.0435  0.2794
 2527TIP3   OH231775   6.663   4.199  17.752  0.5877 -0.5465  0.5581
 2527TIP3    H131776   6.635   4.280  17.710  2.3875  0.3549  0.9778
 2527TIP3    H231777   6.585   4.143  17.751 -1.4905  2.0475  2.4528
 2528TIP3   OH231778   1.537   6.527  18.638  0.4818  0.0842  0.4468
 2528TIP3    H131779   1.446   6.539  18.613 -0.4755  1.9443  4.0921
 2528TIP3    H231780   1.587   6.569  18.568 -1.5051  0.1088 -1.0342
 2529TIP3   OH231781   4.325   4.745  20.163 -0.5808 -0.0151 -0.5085
 2529TIP3    H131782   4.305   4.743  20.070 -0.2105  0.5021 -0.6036
 2529TIP3    H231783   4.340   4.654  20.186 -0.7444 -0.1546 -0.9355
 2530TIP3   OH231784   2.405   4.070  19.862  0.5626 -0.2521 -0.4199
 2530TIP3    H131785   2.406   4.028  19.948  2.7472 -0.0103 -0.2788
 2530TIP3    H231786   2.355   4.151  19.876  0.0641 -0.6748  0.3652
 2531TIP3   OH231787   6.283   6.122  17.605  0.2358  0.5519 -1.1549
 2531TIP3    H131788   6.256   6.050  17.662  0.1773  1.2805 -0.2351
 2531TIP3    H231789   6.354   6.086  17.552  2.1210  0.5531  1.2047
 2532TIP3   OH231790   0.341   2.614  20.158  0.0614  0.0678 -0.3357
 2532TIP3    H131791   0.326   2.654  20.072 -1.0062  0.3282 -0.0436
 2532TIP3    H231792   0.254   2.606  20.196  0.6161  1.0867  1.2365
 2533TIP3   OH231793   5.154   4.505  17.801 -0.1196 -0.3894 -0.3940
 2533TIP3    H131794   5.100   4.580  17.774 -1.4627 -1.5747 -1.1589
 2533TIP3    H231795   5.188   4.469  17.719  2.0712  0.4366  0.0855
 2534TIP3   OH231796   5.864   3.388  19.803  0.1450 -0.4851  0.5884
 2534TIP3    H131797   5.914   3.340  19.869  0.7093 -1.1800 -0.3212
 2534TIP3    H231798   5.772   3.375  19.827  0.3413 -0.9323  1.0872
 2535TIP3   OH231799   6.288   5.621  17.622  0.5317 -0.4468 -0.2499
 2535TIP3    H131800   6.363   5.621  17.682 -0.1076 -0.5324  0.5749
 2535TIP3    H231801   6.325   5.644  17.537  1.6089 -1.2105 -0.0093
 2536TIP3   OH231802   5.038   5.650  17.200  0.3277  0.1629 -0.4438
 2536TIP3    H131803   5.125   5.688  17.214  1.2351 -1.7360 -0.5599
 2536TIP3    H231804   4.977   5.714  17.235  1.9266  0.2609  2.4427
 2537TIP3   OH231805   4.440   0.251  19.040  0.2474 -0.1052 -0.1920
 2537TIP3    H131806   4.430   0.164  19.001  0.2282  0.0020 -0.4260
 2537TIP3    H231807   4.375   0.305  18.995 -0.9971 -0.3848  1.2128
 2538TIP3   OH231808   4.080   4.178  19.227  0.0372 -0.0381 -0.1606
 2538TIP3    H131809   4.119   4.247  19.175  1.0937 -0.7535 -0.3606
 2538TIP3    H231810   4.037   4.223  19.300  0.2135  0.8464 -0.5975
 2539TIP3   OH231811   5.202   2.335  17.859  0.8545 -0.0566  0.4696
 2539TIP3    H131812   5.155   2.377  17.932  0.0326  0.0468 -0.1017
 2539TIP3    H231813   5.133   2.313  17.796  1.4619 -0.8670  0.0768
 2540TIP3   OH231814   5.823   0.777  19.796  0.8681  0.3160 -0.6063
 2540TIP3    H131815   5.814   0.690  19.835 -0.6683  1.1449  1.0761
 2540TIP3    H231816   5.812   0.763  19.702 -0.6454 -1.1818 -0.2563
 2541TIP3   OH231817   1.930   3.567  19.514  0.8526  0.4200  0.4110
 2541TIP3    H131818   1.926   3.636  19.581  2.9103  1.3329 -0.3403
 2541TIP3    H231819   1.915   3.486  19.563 -1.4894  1.3360  1.3358
 2542TIP3   OH231820   6.185   1.473  19.544 -0.3233 -0.0925 -0.4140
 2542TIP3    H131821   6.229   1.521  19.474 -0.9250 -1.1014 -1.5443
 2542TIP3    H231822   6.253   1.457  19.609  0.7643 -0.7509 -1.6487
 2543TIP3   OH231823   0.448   3.348  17.728  0.4029  0.2557  0.1642
 2543TIP3    H131824   0.481   3.279  17.785  0.5578  0.9383  0.9116
 2543TIP3    H231825   0.361   3.318  17.701  1.5640 -1.6127 -1.8891
 2544TIP3   OH231826   5.606   0.443  17.452  0.3926 -0.5231  0.3473
 2544TIP3    H131827   5.604   0.392  17.534  0.2780 -0.5532  0.3254
 2544TIP3    H231828   5.552   0.520  17.470 -1.9572 -1.8552 -0.5858
 2545TIP3   OH231829   5.644   5.488  19.266  0.5639 -0.1836  0.8815
 2545TIP3    H131830   5.581   5.418  19.281  0.7146 -0.6897 -0.6759
 2545TIP3    H231831   5.610   5.537  19.192  0.9417  0.8353  1.3585
 2546TIP3   OH231832   4.640   6.567  18.875 -0.2336 -0.2716  0.0728
 2546TIP3    H131833   4.648   6.476  18.844  0.6930 -0.9490  2.1320
 2546TIP3    H231834   4.693   6.570  18.954 -2.2340  1.4084  1.4652
 2547TIP3   OH231835   4.567   0.078  19.489 -0.9756 -0.4723 -0.1518
 2547TIP3    H131836   4.520   0.086  19.406 -0.6542 -1.4672 -0.4495
 2547TIP3    H231837   4.502   0.041  19.549 -0.8790 -0.8642 -0.2844
 2548TIP3   OH231838   2.983   1.977  18.094  0.2774 -0.4196  0.0310
 2548TIP3    H131839   2.941   1.906  18.142  1.1204 -0.3811  0.8698
 2548TIP3    H231840   3.049   2.010  18.155  0.0766  0.9093 -0.4424
 2549TIP3   OH231841   3.835   4.611  19.164 -0.4519 -0.3272 -0.0319
 2549TIP3    H131842   3.900   4.611  19.234  0.4829  0.1104 -0.8769
 2549TIP3    H231843   3.821   4.518  19.145 -0.5073 -0.4397  0.5508
 2550TIP3   OH231844   3.638   2.704  19.824 -0.0850  0.0345 -0.4143
 2550TIP3    H131845   3.689   2.628  19.851 -2.2635 -1.5241 -0.4511
 2550TIP3    H231846   3.701   2.760  19.780  1.7445 -1.3961  0.2301
 2551TIP3   OH231847   2.362   5.575  18.635 -0.0304 -0.0238 -0.5049
 2551TIP3    H131848   2.390   5.500  18.688  2.7408  0.6234 -0.9099
 2551TIP3    H231849   2.311   5.629  18.695 -0.8148 -1.4701  0.1917
 2552TIP3   OH231850   2.189   5.660  17.558 -0.2155 -0.3462 -0.0425
 2552TIP3    H131851   2.104   5.626  17.532 -1.9027  2.1635  1.7710
 2552TIP3    H231852   2.211   5.612  17.637  0.0828 -0.9979 -0.5130
 2553TIP3   OH231853   0.119   0.939  19.601  0.0252 -0.5158 -0.5319
 2553TIP3    H131854   0.046   0.877  19.594 -1.6673  1.1581  0.8674
 2553TIP3    H231855   0.099   1.006  19.535  0.9748 -0.6410 -0.9593
 2554TIP3   OH231856   6.277   4.466  17.619 -0.1744 -0.6131 -0.0850
 2554TIP3    H131857   6.195   4.465  17.668 -1.2032  0.9625 -1.6587
 2554TIP3    H231858   6.254   4.433  17.532  1.0351 -0.9016 -0.3173
 2555TIP3   OH231859   0.820   5.768  17.373 -0.8307 -0.2835  0.4133
 2555TIP3    H131860   0.790   5.679  17.391  0.0579 -0.7088 -0.1125
 2555TIP3    H231861   0.915   5.759  17.363 -0.5531  0.9450  1.6657
 2556TIP3   OH231862   2.973   1.809  17.471 -0.9152  0.2738  0.6587
 2556TIP3    H131863   3.035   1.831  17.401 -0.3698 -0.7265  0.8051
 2556TIP3    H231864   3.022   1.751  17.529 -1.4462  0.8602  1.7395
 2557TIP3   OH231865   0.851   5.476  16.816  0.4614 -0.3286  0.1779
 2557TIP3    H131866   0.885   5.563  16.838 -1.5961  0.3976  0.7038
 2557TIP3    H231867   0.826   5.483  16.724 -1.0463  0.1236  0.6044
 2558TIP3   OH231868   0.687   5.807  18.853 -0.2897 -0.4510 -0.1676
 2558TIP3    H131869   0.670   5.728  18.801 -1.4503  1.2703 -2.5958
 2558TIP3    H231870   0.605   5.823  18.899 -1.4085  1.2366 -2.5350
 2559TIP3   OH231871   1.371   3.063  17.288  0.8027 -0.3901 -0.0774
 2559TIP3    H131872   1.318   3.126  17.238  2.2208 -0.8074 -2.2203
 2559TIP3    H231873   1.396   2.997  17.224  2.1244 -1.3594  1.3754
 2560TIP3   OH231874   6.192   2.761  19.584 -0.8964  0.0034  0.5353
 2560TIP3    H131875   6.186   2.832  19.648 -0.9033 -0.1803  0.7367
 2560TIP3    H231876   6.136   2.692  19.619 -1.0751 -0.0106  0.2221
 2561TIP3   OH231877   5.027   4.013  20.506  0.2873 -0.1621 -0.2930
 2561TIP3    H131878   4.963   4.075  20.541 -0.3678 -1.0388  0.0924
 2561TIP3    H231879   4.975   3.948  20.460  0.6643 -2.1584  1.9165
 2562TIP3   OH231880   3.400   4.410  18.281  0.0750  0.6803 -0.0682
 2562TIP3    H131881   3.483   4.391  18.324 -1.1351  0.8951  2.5161
 2562TIP3    H231882   3.338   4.425  18.352 -1.7916  2.3627 -1.9062
 2563TIP3   OH231883   1.973   4.942  19.098  0.3122 -0.2860  0.3966
 2563TIP3    H131884   1.937   4.987  19.174  0.2722  1.0761 -0.3851
 2563TIP3    H231885   1.919   4.864  19.088 -0.0268 -0.1959  1.4296
 2564TIP3   OH231886   6.592   1.380  18.254  0.7459 -0.2399 -0.3065
 2564TIP3    H131887   6.605   1.296  18.298  1.0647 -0.1633 -0.2574
 2564TIP3    H231888   6.669   1.432  18.277  0.8417 -0.1471 -0.8341
 2565TIP3   OH231889   2.828   5.119  20.078  0.0817 -0.0296 -0.2184
 2565TIP3    H131890   2.754   5.126  20.018 -1.6899 -1.7294  1.6040
 2565TIP3    H231891   2.796   5.158  20.160  1.4142 -0.2576  0.4444
 2566TIP3   OH231892   3.344   5.056  20.099  0.3745  0.6546 -0.0794
 2566TIP3    H131893   3.256   5.082  20.125 -0.1650 -0.1675 -0.9881
 2566TIP3    H231894   3.401   5.124  20.134 -0.7841  2.0948 -0.9027
 2567TIP3   OH231895   4.998   5.699  18.750  0.1099  0.1694  0.5488
 2567TIP3    H131896   4.907   5.671  18.747  0.3551 -0.5213 -1.7199
 2567TIP3    H231897   4.997   5.774  18.809 -1.9985  0.4408  0.2620
 2568TIP3   OH231898   0.388   1.030  17.513  0.0784 -0.0155  0.0361
 2568TIP3    H131899   0.397   1.024  17.418 -0.1423  1.5605 -0.1031
 2568TIP3    H231900   0.307   1.080  17.527 -2.5223 -4.0321  1.1356
 2569TIP3   OH231901   0.966   5.578  17.725 -0.2297  0.3508  0.2277
 2569TIP3    H131902   0.925   5.494  17.702  0.4395 -0.0534  0.4745
 2569TIP3    H231903   1.013   5.560  17.807  1.1437  0.5512 -0.4838
 2570TIP3   OH231904   2.851   2.908  20.259 -0.1247  0.0071 -0.9853
 2570TIP3    H131905   2.806   2.823  20.255  0.3945 -0.2918 -0.6273
 2570TIP3    H231906   2.939   2.890  20.228 -0.1679  0.5348 -1.4199
 2571TIP3   OH231907   3.210   1.254  18.383  0.2923 -0.1987  0.2824
 2571TIP3    H131908   3.146   1.183  18.377  0.4739 -0.5915  2.2171
 2571TIP3    H231909   3.159   1.333  18.369 -0.3965 -0.5733  0.6265
 2572TIP3   OH231910   6.024   3.520  17.766  0.2541 -0.0024 -0.5396
 2572TIP3    H131911   6.077   3.445  17.740 -0.6929 -0.9364  0.1621
 2572TIP3    H231912   5.951   3.483  17.816 -0.3555  1.3611 -0.3562
 2573TIP3   OH231913   4.125   5.836  20.169  0.4162 -0.0158  0.1960
 2573TIP3    H131914   4.059   5.866  20.107 -0.8982 -2.1624  0.4417
 2573TIP3    H231915   4.130   5.905  20.235  1.3515  2.0011 -1.8751
 2574TIP3   OH231916   6.078   4.513  17.025  0.4568  0.5647 -0.2593
 2574TIP3    H131917   6.020   4.523  16.949  0.7617  0.1257 -0.5527
 2574TIP3    H231918   6.133   4.438  17.004  0.3773  0.2819  0.5094
 2575TIP3   OH231919   5.844   0.588  16.916 -0.3436  0.3888 -0.8664
 2575TIP3    H131920   5.810   0.653  16.854  1.2590  1.7425 -0.3992
 2575TIP3    H231921   5.766   0.540  16.945 -2.2300  4.2175  1.2415
 2576TIP3   OH231922   6.713   1.699  18.815 -0.2662  0.4594 -0.3294
 2576TIP3    H131923   6.684   1.759  18.746 -1.4431  1.0321  0.6298
 2576TIP3    H231924   6.730   1.756  18.891 -2.2572 -0.4553  0.8858
 2577TIP3   OH231925   1.219   3.294  17.203  0.4476 -0.0683  0.1437
 2577TIP3    H131926   1.153   3.279  17.270  0.4184 -0.2467  0.0756
 2577TIP3    H231927   1.169   3.311  17.123  0.4816 -0.1701  0.0995
 2578TIP3   OH231928   3.231   3.119  20.154  0.0436  0.2686  0.0455
 2578TIP3    H131929   3.265   3.198  20.113 -0.8007  0.8283  0.3872
 2578TIP3    H231930   3.299   3.093  20.217  1.3111 -0.5570 -1.5857
 2579TIP3   OH231931   6.651   3.885  19.242  0.3968  0.2410 -0.5118
 2579TIP3    H131932   6.557   3.901  19.253  0.7265  1.5667  0.5682
 2579TIP3    H231933   6.687   3.969  19.216  1.7101  0.5653  2.0480
 2580TIP3   OH231934   1.949   5.085  17.922 -0.2963 -0.0091  0.2417
 2580TIP3    H131935   1.944   5.049  18.010 -1.2445  0.2211  0.2945
 2580TIP3    H231936   1.979   5.175  17.934 -2.0445  0.5737  0.5043
 2581TIP3   OH231937   0.376   4.878  19.147 -0.1416  0.5433  0.5693
 2581TIP3    H131938   0.365   4.824  19.226 -0.1014 -0.1818  0.0910
 2581TIP3    H231939   0.465   4.861  19.118 -0.0663  1.0180  0.5163
 2582TIP3   OH231940   3.528   3.034  17.364  0.3101 -0.0348 -0.2337
 2582TIP3    H131941   3.470   3.094  17.318 -1.0594 -1.6438 -0.7269
 2582TIP3    H231942   3.616   3.067  17.347 -0.4154  2.3972  0.3985
 2583TIP3   OH231943   3.283   0.563  18.664 -0.3265  0.2824  0.2278
 2583TIP3    H131944   3.295   0.493  18.600 -3.0820 -0.4703  0.4085
 2583TIP3    H231945   3.270   0.642  18.612  1.1888  0.4235  0.0017
 2584TIP3   OH231946   1.584   4.573  17.447  0.0462 -0.3998  0.1540
 2584TIP3    H131947   1.497   4.613  17.441  0.0357 -0.4760 -0.1839
 2584TIP3    H231948   1.605   4.546  17.358  0.1811 -0.8746  0.3278
 2585TIP3   OH231949   4.052   4.932  19.337  0.2207  0.1732  0.0153
 2585TIP3    H131950   4.073   4.857  19.281  0.5480  1.0418 -1.0576
 2585TIP3    H231951   4.052   4.896  19.426  1.1806 -0.9309 -0.4072
 2586TIP3   OH231952   4.229   1.694  19.372 -0.4820  0.1165 -0.5593
 2586TIP3    H131953   4.233   1.630  19.301 -2.5080 -0.2554 -0.4235
 2586TIP3    H231954   4.150   1.745  19.353 -1.2628 -0.2004  1.5438
 2587TIP3   OH231955   2.167   4.866  19.512  0.1314  0.2192 -0.3769
 2587TIP3    H131956   2.243   4.828  19.556 -0.7953 -0.3837  0.7920
 2587TIP3    H231957   2.193   4.874  19.421  1.5582 -0.0517 -0.0169
 2588TIP3   OH231958   0.026   3.254  19.766  0.2925  0.4081  0.5300
 2588TIP3    H131959   0.111   3.294  19.746  0.7923 -0.1368  1.4806
 2588TIP3    H231960   0.027   3.172  19.716  0.0941  0.6578  0.1148
 2589TIP3   OH231961   4.778   0.687  16.757 -0.1324 -0.1549 -0.0201
 2589TIP3    H131962   4.695   0.731  16.742 -0.4668 -1.1477 -1.2669
 2589TIP3    H231963   4.762   0.630  16.832 -1.5485 -2.5304 -1.9815
 2590TIP3   OH231964   3.821   4.305  17.227 -0.1362  0.2494  0.0658
 2590TIP3    H131965   3.744   4.316  17.171  0.2292  2.8983 -0.0641
 2590TIP3    H231966   3.893   4.342  17.176  0.5802  0.8776  1.4700
 2591TIP3   OH231967   6.649   3.612  19.779 -0.4189  0.3710 -0.2285
 2591TIP3    H131968   6.721   3.551  19.799  1.4765  2.4339 -0.4340
 2591TIP3    H231969   6.619   3.643  19.865 -0.3575  0.2907 -0.1772
 2592TIP3   OH231970   1.340   3.142  18.368 -0.1248 -0.3722 -0.1631
 2592TIP3    H131971   1.379   3.229  18.377 -0.8792  0.1216 -1.3313
 2592TIP3    H231972   1.267   3.143  18.431 -1.8828  0.9466 -2.0577
 2593TIP3   OH231973   1.431   1.976  18.436  0.1222 -0.1980 -0.3601
 2593TIP3    H131974   1.506   2.015  18.481 -0.6072  1.2483 -0.3176
 2593TIP3    H231975   1.465   1.951  18.350  0.7630  0.0303 -0.1754
 2594TIP3   OH231976   5.816   5.822  18.100 -0.4477 -0.3413 -0.6463
 2594TIP3    H131977   5.850   5.902  18.139  0.0643  0.1562 -2.0274
 2594TIP3    H231978   5.747   5.851  18.040 -0.4068 -0.9469 -1.0049
 2595TIP3   OH231979   4.798   0.889  18.555 -0.0317 -0.1415 -0.6926
 2595TIP3    H131980   4.832   0.867  18.469 -0.6898 -0.8339 -0.7848
 2595TIP3    H231981   4.872   0.930  18.600  0.1497  0.7594 -1.7755
 2596TIP3   OH231982   4.117   0.619  19.246  0.7569 -0.1630  0.2865
 2596TIP3    H131983   4.054   0.635  19.316 -0.9334 -0.7412 -1.0249
 2596TIP3    H231984   4.134   0.706  19.209 -0.4232 -0.1519 -0.2669
 2597TIP3   OH231985   2.478   2.075  19.553  0.6008 -0.2583 -0.3672
 2597TIP3    H131986   2.393   2.096  19.590  0.3118 -0.4925 -0.8806
 2597TIP3    H231987   2.470   1.985  19.522  1.1066 -0.3584 -0.2146
 2598TIP3   OH231988   2.709   3.822  19.742  0.6299 -0.0295  0.6601
 2598TIP3    H131989   2.782   3.835  19.682  0.3034  0.1297  0.2895
 2598TIP3    H231990   2.675   3.910  19.758 -0.3235 -0.2177 -0.2458
 2599TIP3   OH231991   6.383   0.959  18.610 -0.3722  0.6751  0.5459
 2599TIP3    H131992   6.460   1.015  18.617  0.3077 -0.3930  1.9090
 2599TIP3    H231993   6.323   1.009  18.553  1.0715  1.7650 -0.0864
 2600TIP3   OH231994   1.928   5.297  19.847  0.3159 -0.4899 -0.1252
 2600TIP3    H131995   1.880   5.215  19.859  1.3134 -1.1749 -0.6363
 2600TIP3    H231996   1.911   5.346  19.927 -0.0952 -1.3122  0.3135
 2601TIP3   OH231997   6.223   0.027  18.617 -0.6197 -0.4944  0.4094
 2601TIP3    H131998   6.184   0.034  18.530  0.5210 -1.5659 -0.2133
 2601TIP3    H231999   6.316   0.042  18.603 -0.2122 -2.1368  1.2002
 2602TIP3   OH232000   0.137   0.499  17.505 -0.3131 -0.2465  0.0741
 2602TIP3    H132001   0.193   0.535  17.436  3.2094 -0.7520  2.4045
 2602TIP3    H232002   0.132   0.406  17.486 -0.1962 -0.2277 -0.0493
 2603TIP3   OH232003   2.542   1.843  17.686  0.3042 -0.1816  0.0216
 2603TIP3    H132004   2.457   1.817  17.650  0.8268 -1.5144 -0.3123
 2603TIP3    H232005   2.527   1.930  17.723 -0.6275  0.6556 -2.1575
 2604TIP3   OH232006   0.099   1.002  17.239 -0.6420 -0.0273 -0.5379
 2604TIP3    H132007   0.193   1.011  17.223 -0.8738  0.8055 -1.5639
 2604TIP3    H232008   0.062   0.992  17.151 -1.4031 -1.6443 -0.0693
 2605TIP3   OH232009   2.017   4.230  18.501  0.2938 -0.1858 -0.0638
 2605TIP3    H132010   1.967   4.155  18.533  1.7969 -1.6248 -0.9428
 2605TIP3    H232011   2.013   4.294  18.573 -0.3348 -1.4212  1.0442
 2606TIP3   OH232012   6.014   0.260  19.904  0.0515 -0.0384  0.1824
 2606TIP3    H132013   6.089   0.307  19.868  0.6291 -0.0974  1.2731
 2606TIP3    H232014   5.987   0.201  19.833  1.8275 -0.9352  0.1836
 2607TIP3   OH232015   5.351   3.233  19.781  0.2197  0.0778 -0.0802
 2607TIP3    H132016   5.398   3.244  19.699  0.3299 -1.1168 -0.1950
 2607TIP3    H232017   5.293   3.158  19.766  0.2755 -0.1889  0.9448
 2608TIP3   OH232018   2.914   6.246  19.282  0.7911  0.3139 -0.1381
 2608TIP3    H132019   2.899   6.339  19.271  2.1212  0.5369 -0.2695
 2608TIP3    H232020   3.003   6.232  19.248  1.1302 -0.7489  1.1042
 2609TIP3   OH232021   6.575   3.119  17.697 -0.3512  0.0270  0.3089
 2609TIP3    H132022   6.508   3.117  17.629  0.4803 -1.1599 -0.5186
 2609TIP3    H232023   6.593   3.027  17.716 -1.5460  0.2861  3.1883
 2610TIP3   OH232024   1.372   2.127  16.961 -0.0894 -0.0910  0.1579
 2610TIP3    H132025   1.453   2.134  17.012  0.3877  1.2916 -0.7309
 2610TIP3    H232026   1.401   2.100  16.874 -0.6306  0.0492 -0.0685
 2611TIP3   OH232027   6.509   4.580  19.350 -0.1107  0.2990 -0.0459
 2611TIP3    H132028   6.496   4.562  19.257  0.1652 -1.3570  0.2052
 2611TIP3    H232029   6.423   4.611  19.380 -0.3476  0.3196 -0.7228
 2612TIP3   OH232030   1.516   0.262  18.175 -0.2151  0.2703  0.2440
 2612TIP3    H132031   1.561   0.194  18.225 -0.4024  0.8939  1.3174
 2612TIP3    H232032   1.504   0.225  18.088 -0.0786 -0.9611  0.7267
 2613TIP3   OH232033   3.155   5.244  17.283  0.0684  0.1369  0.3058
 2613TIP3    H132034   3.134   5.236  17.190  1.0214  0.0063  0.0866
 2613TIP3    H232035   3.237   5.293  17.284  0.7881 -1.0364  1.0028
 2614TIP3   OH232036   3.071   3.345  19.046  0.4374  0.0599 -0.4126
 2614TIP3    H132037   3.047   3.256  19.070  2.3594 -0.0211  1.5805
 2614TIP3    H232038   3.144   3.335  18.985 -0.4638  0.2944 -1.5544
 2615TIP3   OH232039   3.040   1.947  18.473  0.4871  0.5343  0.0345
 2615TIP3    H132040   3.011   2.036  18.495  1.6311  1.2933 -1.3877
 2615TIP3    H232041   3.014   1.895  18.549 -1.8722  1.6904  0.1297
 2616TIP3   OH232042   0.813   2.506  19.789 -0.4493  0.3350 -0.1925
 2616TIP3    H132043   0.775   2.515  19.702 -0.5185  0.2738 -0.1693
 2616TIP3    H232044   0.859   2.589  19.804  3.1001 -1.1202 -1.9383
 2617TIP3   OH232045   5.479   1.671  18.120  0.2725 -0.5491  0.4182
 2617TIP3    H132046   5.476   1.608  18.048  1.4616  0.3385 -0.4325
 2617TIP3    H232047   5.559   1.720  18.106 -0.5531  1.0730  1.1382
 2618TIP3   OH232048   1.696   3.660  19.808  0.1082  0.0680  0.1395
 2618TIP3    H132049   1.780   3.628  19.777 -0.7215 -0.6584 -1.4420
 2618TIP3    H232050   1.681   3.741  19.759  1.0173  1.6414  2.2799
 2619TIP3   OH232051   2.612   3.440  17.501  0.0882 -0.2647 -0.0087
 2619TIP3    H132052   2.572   3.368  17.550 -1.1211  0.1295 -0.3586
 2619TIP3    H232053   2.670   3.397  17.438 -0.2844 -0.9110  0.0791
 2620TIP3   OH232054   4.836   2.133  20.008  0.4489  0.0412 -0.2250
 2620TIP3    H132055   4.825   2.043  19.978 -2.6988  0.0073  0.6182
 2620TIP3    H232056   4.925   2.157  19.981  0.5130 -2.4381 -2.6921
 2621TIP3   OH232057   4.675   2.291  16.942  0.1725  0.0756 -0.2916
 2621TIP3    H132058   4.587   2.271  16.972  0.4526  2.1146  2.2839
 2621TIP3    H232059   4.669   2.378  16.903  1.1350  0.5707  0.5989
 2622TIP3   OH232060   6.185   5.333  20.276 -0.6166  0.1318  0.1911
 2622TIP3    H132061   6.238   5.295  20.346  1.1661  0.0950 -1.0827
 2622TIP3    H232062   6.235   5.410  20.248 -1.0722 -0.0763 -1.2790
 2623TIP3   OH232063   5.538   0.676  19.906 -0.1527  0.1151  0.0334
 2623TIP3    H132064   5.524   0.766  19.936  0.2688  0.6092 -1.1888
 2623TIP3    H232065   5.548   0.683  19.812 -2.1681 -1.4831 -0.3711
 2624TIP3   OH232066   4.948   2.668  18.640  0.2725  0.2678  0.2554
 2624TIP3    H132067   4.968   2.578  18.667 -1.1928 -0.0150  0.5316
 2624TIP3    H232068   4.878   2.657  18.575 -0.0676  1.2189  0.4519
 2625TIP3   OH232069   6.529   5.317  17.338  0.4474  0.4875  0.1401
 2625TIP3    H132070   6.594   5.377  17.372  0.8021 -0.6533  1.5817
 2625TIP3    H232071   6.448   5.339  17.385  0.3038  0.5566 -0.1364
 2626TIP3   OH232072   6.262   3.127  18.837 -0.5803  0.1037  0.5533
 2626TIP3    H132073   6.197   3.107  18.770  0.8509  0.3637 -0.9926
 2626TIP3    H232074   6.287   3.041  18.871 -0.7157 -0.1071  0.1406
 2627TIP3   OH232075   1.053   4.087  19.190  0.1993 -0.4774  0.3758
 2627TIP3    H132076   0.968   4.050  19.164  1.1298 -0.9363 -2.2477
 2627TIP3    H232077   1.083   4.029  19.261 -1.6484 -0.2765  1.3909
 2628TIP3   OH232078   6.266   1.234  19.411 -0.3570 -0.3161 -0.8311
 2628TIP3    H132079   6.248   1.299  19.479 -3.2619 -1.4252 -0.3720
 2628TIP3    H232080   6.282   1.286  19.332 -0.2036  0.9693  0.0135
 2629TIP3   OH232081   2.101   5.205  18.370 -0.0158  0.6227  0.0686
 2629TIP3    H132082   2.144   5.136  18.319 -0.4628  0.8057 -0.5590
 2629TIP3    H232083   2.106   5.173  18.461  0.1432 -0.0400 -0.1655
 2630TIP3   OH232084   5.455   4.409  20.303 -0.2296  0.5010 -0.2801
 2630TIP3    H132085   5.438   4.354  20.379  1.4025 -1.5707 -1.3182
 2630TIP3    H232086   5.517   4.475  20.334 -0.1863  0.1513  0.3751
 2631TIP3   OH232087   6.273   0.284  16.656 -0.8164 -0.3936  0.0488
 2631TIP3    H132088   6.195   0.318  16.701 -1.0946  2.0639 -2.0302
 2631TIP3    H232089   6.239   0.215  16.599 -1.3365 -0.0019 -0.1274
 2632TIP3   OH232090   6.300   4.024  19.402 -0.1404  0.4177  0.0779
 2632TIP3    H132091   6.370   4.089  19.396 -0.5137  0.8746  0.6743
 2632TIP3    H232092   6.310   3.971  19.322 -1.6710  3.0414 -2.0203
 2633TIP3   OH232093   2.640   4.126  18.220  0.5802 -0.1600  0.3925
 2633TIP3    H132094   2.696   4.098  18.148 -1.1695 -0.5336 -0.8790
 2633TIP3    H232095   2.688   4.101  18.299  1.0003 -2.9353 -0.6387
 2634TIP3   OH232096   1.260   5.228  18.548  0.6041 -0.1636  0.0288
 2634TIP3    H132097   1.293   5.295  18.488  0.0871  0.5110  0.4689
 2634TIP3    H232098   1.321   5.230  18.622  1.0916 -0.8097 -0.3489
 2635TIP3   OH232099   6.677   0.476  20.337  0.4455 -0.9173 -0.1747
 2635TIP3    H132100   6.686   0.522  20.254  1.1624 -2.6564 -1.1062
 2635TIP3    H232101   6.765   0.474  20.374  0.2787 -0.8486  0.2303
 2636TIP3   OH232102   0.233   4.224  17.735  0.9057 -0.1078  1.0278
 2636TIP3    H132103   0.137   4.215  17.740  0.9231 -0.9512  0.2406
 2636TIP3    H232104   0.267   4.154  17.790  1.0409 -1.5076 -0.7145
 2637TIP3   OH232105   3.125   5.606  18.950  0.0637 -0.3913 -0.2370
 2637TIP3    H132106   3.201   5.637  19.000  0.6678  0.2011 -1.4889
 2637TIP3    H232107   3.162   5.544  18.887 -0.8637 -2.1287  0.8598
 2638TIP3   OH232108   3.146   1.272  20.208 -0.1008  0.0837 -0.1013
 2638TIP3    H132109   3.168   1.365  20.210 -0.4634  0.1612  0.4121
 2638TIP3    H232110   3.123   1.254  20.117  0.4429  0.3845 -0.3004
 2639TIP3   OH232111   1.068   5.022  17.287  0.0595  0.3944  0.3740
 2639TIP3    H132112   1.146   5.012  17.232  0.1501 -1.9564  0.8192
 2639TIP3    H232113   0.996   4.994  17.231 -0.4725  2.2523  0.0714
 2640TIP3   OH232114   0.432   2.185  19.472  0.5449 -0.2267  0.1388
 2640TIP3    H132115   0.489   2.191  19.548  0.7640  0.5297 -0.0743
 2640TIP3    H232116   0.471   2.245  19.408 -0.7059  0.6324  0.1381
 2641TIP3   OH232117   6.688   3.271  18.989  0.3456 -0.0856  0.1627
 2641TIP3    H132118   6.671   3.182  19.020  0.8868 -0.5429 -0.8172
 2641TIP3    H232119   6.680   3.266  18.894  0.0287  0.9998  0.1104
 2642TIP3   OH232120   1.650   1.738  16.926 -0.0875 -0.1601 -0.4607
 2642TIP3    H132121   1.695   1.667  16.972  1.6710  0.6753 -0.7999
 2642TIP3    H232122   1.681   1.817  16.969  0.6392  0.5762 -2.2412
 2643TIP3   OH232123   5.962   4.203  16.955  0.0079 -0.3182  0.3112
 2643TIP3    H132124   6.038   4.260  16.944 -0.1714 -0.1618 -0.1720
 2643TIP3    H232125   5.894   4.244  16.901 -0.0479 -1.1241 -0.2485
 2644TIP3   OH232126   1.145   1.638  19.094  0.4213 -0.0157  0.1262
 2644TIP3    H132127   1.081   1.707  19.115  0.5755 -0.3598  1.8763
 2644TIP3    H232128   1.092   1.558  19.087  0.2527  0.2205 -1.8289
 2645TIP3   OH232129   2.269   0.003  17.143  0.3475 -0.1376  0.0659
 2645TIP3    H132130   2.231  -0.067  17.090 -0.8704  0.4278  0.1494
 2645TIP3    H232131   2.275   0.078  17.084  1.2349 -0.1738  0.0932
 2646TIP3   OH232132   0.071   5.778  19.816  0.3043 -0.5683  0.2595
 2646TIP3    H132133   0.002   5.823  19.866  0.6312 -0.7004  0.8362
 2646TIP3    H232134   0.072   5.824  19.732  0.7704  0.6611  0.9056
 2647TIP3   OH232135   3.858   6.161  20.322 -0.2135  0.0971 -0.4122
 2647TIP3    H132136   3.848   6.229  20.255  0.6072  2.3735  1.6029
 2647TIP3    H232137   3.769   6.133  20.341 -0.6346  0.9941 -0.9634
 2648TIP3   OH232138   1.594   5.974  18.037 -0.0681  0.3145  0.2677
 2648TIP3    H132139   1.506   6.000  18.062  0.4461  0.1222  2.4713
 2648TIP3    H232140   1.629   5.929  18.114  1.7971 -0.0442 -0.7170
 2649TIP3   OH232141   5.064   2.899  20.028 -0.2384  0.5491  0.4196
 2649TIP3    H132142   5.024   2.814  20.009  2.1109 -0.5565  0.0835
 2649TIP3    H232143   5.001   2.942  20.086 -1.0090 -1.8814  1.5563
 2650TIP3   OH232144   5.968   0.975  17.692  0.3997  0.0340 -0.1695
 2650TIP3    H132145   5.896   0.949  17.635  0.4400 -1.8647  0.5593
 2650TIP3    H232146   6.037   1.004  17.633  0.1044 -1.0090 -1.0453
 2651TIP3   OH232147   5.176   6.627  18.885  0.0840 -0.3119 -0.4173
 2651TIP3    H132148   5.165   6.704  18.830 -0.2183 -0.0803 -0.0308
 2651TIP3    H232149   5.253   6.582  18.848  0.0057 -0.0524 -0.8981
 2652TIP3   OH232150   1.387   0.454  18.349 -0.0471  0.3998 -0.3170
 2652TIP3    H132151   1.446   0.484  18.417 -1.8406 -0.2375  1.6255
 2652TIP3    H232152   1.420   0.367  18.325  0.7168  0.7139 -0.4286
 2653TIP3   OH232153   1.112   4.815  19.117 -0.3730 -0.3603 -0.2681
 2653TIP3    H132154   1.084   4.897  19.077 -0.9149 -1.6272 -2.6965
 2653TIP3    H232155   1.139   4.760  19.043  0.7315 -2.1055  1.3259
 2654TIP3   OH232156   4.477   6.205  18.039 -0.1535  0.0192 -0.2940
 2654TIP3    H132157   4.402   6.148  18.055  0.7656 -1.1798 -0.0814
 2654TIP3    H232158   4.440   6.285  18.003 -1.5330 -0.5067 -0.0880
 2655TIP3   OH232159   5.169   4.896  18.865  0.5329  0.2527 -0.1677
 2655TIP3    H132160   5.146   4.803  18.865  0.0775  0.2213 -3.4882
 2655TIP3    H232161   5.223   4.908  18.787 -0.6054  2.9959 -0.6810
 2656TIP3   OH232162   6.401   1.043  18.923  0.4040  0.1036 -0.2449
 2656TIP3    H132163   6.385   0.995  18.841 -1.7341 -0.1011  0.2380
 2656TIP3    H232164   6.316   1.082  18.945  1.3596  1.5876  0.9898
 2657TIP3   OH232165   0.586   3.118  17.935  0.2588  0.5320  0.4001
 2657TIP3    H132166   0.621   3.056  17.999  0.7832 -0.5879 -0.9177
 2657TIP3    H232167   0.538   3.063  17.873  0.8056  1.4287 -0.8505
 2658TIP3   OH232168   5.190   0.402  18.638  0.4142  0.1898 -0.4067
 2658TIP3    H132169   5.281   0.431  18.627  0.0709  1.5941  0.1562
 2658TIP3    H232170   5.147   0.429  18.557  0.3443  0.2256 -0.3580
 2659TIP3   OH232171   2.509   1.273  19.782 -0.6540 -0.0569 -0.0853
 2659TIP3    H132172   2.587   1.218  19.779  0.3020  1.2312  0.0911
 2659TIP3    H232173   2.537   1.352  19.828 -1.6241  1.1306 -1.4332
 2660TIP3   OH232174   1.790   4.374  18.737 -1.0074 -0.4988  0.6769
 2660TIP3    H132175   1.851   4.321  18.788 -2.2167 -0.3134  2.3960
 2660TIP3    H232176   1.722   4.398  18.799 -1.3839  1.6584 -0.4762
 2661TIP3   OH232177   3.807   2.688  20.269 -0.2251  0.0164 -0.0658
 2661TIP3    H132178   3.766   2.615  20.221 -0.5983  0.7392 -0.8710
 2661TIP3    H232179   3.885   2.650  20.307 -1.3620 -1.2855  1.0961
 2662TIP3   OH232180   4.775   3.475  18.532 -0.3441 -0.0901 -0.2738
 2662TIP3    H132181   4.778   3.443  18.622  0.2626 -0.7362 -0.5174
 2662TIP3    H232182   4.787   3.570  18.540  0.6391 -0.2447  0.2662
 2663TIP3   OH232183   1.117   4.170  17.859 -0.3781 -0.4160 -0.7047
 2663TIP3    H132184   1.031   4.183  17.898 -0.1968 -0.0488 -0.4259
 2663TIP3    H232185   1.163   4.253  17.873 -0.2824 -0.2958 -1.6264
 2664TIP3   OH232186   5.167   6.390  19.026 -0.1182  0.3242  0.0729
 2664TIP3    H132187   5.222   6.406  18.949 -0.3289 -0.6741 -0.3095
 2664TIP3    H232188   5.134   6.476  19.050  0.0637  0.6796 -0.8812
 2665TIP3   OH232189   2.912   4.430  19.149 -0.2601 -0.2694  0.2136
 2665TIP3    H132190   2.986   4.490  19.146 -0.6291  0.1657 -0.3374
 2665TIP3    H232191   2.842   4.479  19.192  0.5955 -1.6362  3.4393
 2666TIP3   OH232192   3.814   1.585  18.416  0.2174 -0.5107  0.2315
 2666TIP3    H132193   3.805   1.509  18.474  0.9158 -0.5398  0.3134
 2666TIP3    H232194   3.890   1.564  18.361 -1.0265 -0.9291 -1.3915
 2667TIP3   OH232195   2.448   5.714  16.924 -0.2345 -0.1939  0.1724
 2667TIP3    H132196   2.460   5.652  16.996  3.1565  0.1515  0.0523
 2667TIP3    H232197   2.417   5.794  16.967 -2.0706 -1.1070  0.6585
 2668TIP3   OH232198   0.778   6.567  19.828  0.4256  0.5303  0.1750
 2668TIP3    H132199   0.817   6.653  19.847  0.4269  0.0157  2.9537
 2668TIP3    H232200   0.684   6.583  19.826  0.4972  0.8832 -1.2372
 2669TIP3   OH232201   2.533   0.166  16.912  0.2250 -0.5434 -0.8530
 2669TIP3    H132202   2.486   0.221  16.974  0.7263 -1.8675  0.7915
 2669TIP3    H232203   2.491   0.182  16.828 -3.1871 -1.6129  0.4837
 2670TIP3   OH232204   1.002   3.454  19.292  0.6732 -0.2819  0.3156
 2670TIP3    H132205   1.085   3.424  19.255  1.3147  0.4833  1.0788
 2670TIP3    H232206   0.966   3.378  19.336  1.2403 -0.4937  0.4260
 2671TIP3   OH232207   3.225   0.984  19.261 -0.2839 -0.0121  0.3159
 2671TIP3    H132208   3.266   0.960  19.344 -2.1417 -3.6865  0.4247
 2671TIP3    H232209   3.284   0.949  19.194  0.2116  1.1308  0.1376
 2672TIP3   OH232210   0.112   5.546  18.558  0.0077 -0.4843  0.2578
 2672TIP3    H132211   0.152   5.605  18.494  1.0576 -0.9797  0.4283
 2672TIP3    H232212   0.040   5.504  18.511 -0.8709  1.0384  0.1847
 2673TIP3   OH232213   6.318   5.470  19.397  0.7910  0.5121  0.6022
 2673TIP3    H132214   6.274   5.471  19.312  1.1807 -0.8762  0.3564
 2673TIP3    H232215   6.392   5.529  19.386  0.7681  0.4413  0.0194
 2674TIP3   OH232216   0.159   0.621  17.749 -0.1516 -0.6876 -0.4062
 2674TIP3    H132217   0.152   0.600  17.656 -1.3235  4.7372 -1.8718
 2674TIP3    H232218   0.233   0.681  17.754  0.2604 -1.3119  2.3424
 2675TIP3   OH232219   5.052   3.582  18.870  0.5754 -0.0446 -0.7789
 2675TIP3    H132220   4.971   3.563  18.918  1.0532 -1.8409 -0.6237
 2675TIP3    H232221   5.041   3.537  18.787  2.4426 -2.5876  0.2439
 2676TIP3   OH232222   5.112   5.260  18.991  0.0200 -0.1665 -0.0053
 2676TIP3    H132223   5.131   5.270  19.084 -0.2034  0.3784 -0.0161
 2676TIP3    H232224   5.135   5.344  18.952 -1.1589  0.0794 -0.2209
 2677TIP3   OH232225   5.199   6.544  18.354 -0.4003 -0.2114  0.5532
 2677TIP3    H132226   5.279   6.556  18.303  0.2620  0.7267  1.7648
 2677TIP3    H232227   5.194   6.450  18.369 -0.1152 -0.3954 -0.4398
 2678TIP3   OH232228   1.925   4.744  16.576 -0.6896 -0.5427 -0.3279
 2678TIP3    H132229   1.876   4.694  16.641 -1.4092  0.3553 -0.1564
 2678TIP3    H232230   1.864   4.812  16.547  0.8578  1.4934  0.8940
 2679TIP3   OH232231   1.616   0.214  18.599  0.4830 -0.1349 -0.3057
 2679TIP3    H132232   1.583   0.263  18.675  1.5365 -0.3471  0.3172
 2679TIP3    H232233   1.665   0.278  18.548 -0.4992  0.0847 -1.0121
 2680TIP3   OH232234   5.563   4.105  19.791  0.1662 -0.2180  0.0269
 2680TIP3    H132235   5.565   4.021  19.745  0.5268  0.0891 -0.5252
 2680TIP3    H232236   5.612   4.090  19.871  1.9260 -0.0290 -0.9622
 2681TIP3   OH232237   0.309   5.197  20.202  0.1410  0.3698  0.0600
 2681TIP3    H132238   0.283   5.112  20.167  0.9312  0.2708 -0.3242
 2681TIP3    H232239   0.269   5.202  20.288  1.5003 -1.1557  0.8315
 2682TIP3   OH232240   3.155   2.112  20.001  0.1601 -0.0782  0.1924
 2682TIP3    H132241   3.197   2.177  19.945  0.7772  1.3927  2.2656
 2682TIP3    H232242   3.086   2.161  20.046  0.4808 -0.8942  1.6229
 2683TIP3   OH232243   0.184   4.502  17.718 -0.0737  0.1084 -0.7569
 2683TIP3    H132244   0.177   4.532  17.627 -1.9447 -1.4197 -1.1788
 2683TIP3    H232245   0.195   4.407  17.712 -2.2884 -0.3031  0.5941
 2684TIP3   OH232246   6.236   2.982  19.755  0.2324  0.3579 -0.3152
 2684TIP3    H132247   6.277   2.969  19.840  1.1418  1.3592 -0.5892
 2684TIP3    H232248   6.235   3.077  19.742 -0.6609  0.2680 -1.0626
 2685TIP3   OH232249   0.603   2.938  19.193  0.0379  0.7140 -0.2011
 2685TIP3    H132250   0.654   2.874  19.143 -0.8410 -0.0098 -0.1839
 2685TIP3    H232251   0.661   2.963  19.265  0.6895  0.5397 -0.6560
 2686TIP3   OH232252   1.418   0.448  18.705  0.3583  0.2851  0.1830
 2686TIP3    H132253   1.368   0.373  18.735  0.6055  0.7427  1.8731
 2686TIP3    H232254   1.352   0.512  18.677  0.1499 -0.5192 -1.2361
 2687TIP3   OH232255   5.895   1.681  18.496 -0.2309  0.5686 -0.0406
 2687TIP3    H132256   5.814   1.673  18.446  0.0663  0.8403 -0.5669
 2687TIP3    H232257   5.907   1.775  18.509  0.5309  0.5959 -0.8540
 2688TIP3   OH232258   6.065   4.660  17.383  0.0607  0.3386  0.0053
 2688TIP3    H132259   5.985   4.675  17.333 -0.7684 -0.8968  0.8937
 2688TIP3    H232260   6.049   4.703  17.467 -0.7360 -1.9415  1.1051
 2689TIP3   OH232261   3.387   0.172  19.457  0.2548 -0.3014 -0.0648
 2689TIP3    H132262   3.381   0.096  19.514 -1.5654  1.1367  1.7692
 2689TIP3    H232263   3.467   0.216  19.484  0.7798 -0.9740 -0.4606
 2690TIP3   OH232264   1.188   4.419  17.497  0.8327 -0.0124  0.1668
 2690TIP3    H132265   1.227   4.421  17.410  0.8929 -2.2023  0.0861
 2690TIP3    H232266   1.255   4.453  17.555  2.3993 -2.2660 -0.1713
 2691TIP3   OH232267   3.683   0.032  17.553  0.5659  0.0076 -0.0665
 2691TIP3    H132268   3.693  -0.054  17.514  0.4016 -0.5954  1.1729
 2691TIP3    H232269   3.772   0.067  17.557  0.7060 -0.3512 -0.0254
 2692TIP3   OH232270   4.627   4.160  18.744 -0.1439 -0.1995 -0.2173
 2692TIP3    H132271   4.669   4.211  18.675 -0.8046  0.2667 -0.2866
 2692TIP3    H232272   4.533   4.177  18.733 -0.2219  0.4850  1.2777
 2693TIP3   OH232273   3.592   4.690  18.928  0.8013  0.4815 -0.1256
 2693TIP3    H132274   3.649   4.764  18.906 -0.1266  0.9715 -0.9708
 2693TIP3    H232275   3.605   4.627  18.857  0.9829  0.1946  0.1633
 2694TIP3   OH232276   4.529   5.954  19.719  0.1549  0.1181  0.0380
 2694TIP3    H132277   4.586   6.031  19.721  2.0221 -1.1616 -1.0977
 2694TIP3    H232278   4.482   5.962  19.636  0.3873  0.0009 -0.1051
 2695TIP3   OH232279   0.499   3.486  19.548  0.6363  0.5212  0.1895
 2695TIP3    H132280   0.530   3.568  19.587  0.8701  0.5743 -0.1066
 2695TIP3    H232281   0.507   3.499  19.454 -1.6778  1.1054  0.0081
 2696TIP3   OH232282   6.027   5.094  19.642 -0.3422 -0.3922  0.0236
 2696TIP3    H132283   6.042   5.000  19.633 -0.9096 -0.4674 -0.1880
 2696TIP3    H232284   6.104   5.126  19.689 -0.4489 -1.0608  0.6655
 2697TIP3   OH232285   5.975   4.034  18.825  0.2942  0.3871  0.1295
 2697TIP3    H132286   5.914   4.105  18.804 -0.9283 -0.3439  1.0230
 2697TIP3    H232287   5.974   4.029  18.920  2.6297  1.0412  0.2353
 2698TIP3   OH232288   5.739   2.300  19.977 -0.2187  0.7311  0.3325
 2698TIP3    H132289   5.671   2.327  19.914 -0.6354  0.1438  0.5161
 2698TIP3    H232290   5.819   2.340  19.945 -0.7545  1.9308  0.4279
 2699TIP3   OH232291   1.027   3.334  18.924  0.5479  0.4977  0.0415
 2699TIP3    H132292   1.082   3.345  19.001  1.3418  1.5607 -0.6319
 2699TIP3    H232293   1.075   3.272  18.869  0.6591  0.7721 -0.1749
 2700TIP3   OH232294   2.459   0.724  19.691 -0.0586 -0.0039  0.2628
 2700TIP3    H132295   2.447   0.630  19.701 -0.5381 -0.0735 -0.8742
 2700TIP3    H232296   2.548   0.740  19.722  0.3146 -0.9522 -0.2929
 2701TIP3   OH232297   5.852   6.016  20.545  0.2076 -0.1650  0.5602
 2701TIP3    H132298   5.924   6.065  20.584  0.3201 -0.8919  1.2848
 2701TIP3    H232299   5.812   5.969  20.618  0.3928 -1.5108 -0.1748
 2702TIP3   OH232300   3.501   4.833  19.206  0.7268 -0.2913  0.3926
 2702TIP3    H132301   3.594   4.851  19.189  0.8239  0.1018  1.3021
 2702TIP3    H232302   3.501   4.756  19.262  0.4617 -0.7627 -0.2412
 2703TIP3   OH232303   3.731   4.512  19.520 -0.7046  0.6589  0.5788
 2703TIP3    H132304   3.821   4.521  19.488 -0.7722  1.8471  0.6785
 2703TIP3    H232305   3.723   4.419  19.542  0.8582  0.7223  1.5936
 2704TIP3   OH232306   1.656   6.321  18.891  0.3138 -0.4703  0.4676
 2704TIP3    H132307   1.589   6.339  18.824 -1.2122 -1.8434  1.5394
 2704TIP3    H232308   1.607   6.318  18.973  1.7877 -1.0278  1.3506
 2705TIP3   OH232309   5.560   2.174  18.769  0.4783  0.0479  0.3512
 2705TIP3    H132310   5.616   2.105  18.806  1.3652  0.8300  0.5247
 2705TIP3    H232311   5.597   2.192  18.683  0.0879  0.1150  0.1945
 2706TIP3   OH232312   3.144   2.428  18.058 -0.0034 -0.5310 -0.4143
 2706TIP3    H132313   3.230   2.466  18.043 -0.0692  0.5719  1.5741
 2706TIP3    H232314   3.082   2.496  18.030 -0.1576 -0.1886  0.6990
 2707TIP3   OH232315   0.721   0.149  18.750  0.5314 -0.3376  1.4172
 2707TIP3    H132316   0.681   0.064  18.731 -0.1641  0.2211  0.2978
 2707TIP3    H232317   0.766   0.173  18.669 -1.2501  1.4270  0.8684
 2708TIP3   OH232318   0.370   2.584  19.079 -0.3637  0.2884  0.0213
 2708TIP3    H132319   0.392   2.611  19.168  1.0633 -1.1472  0.1593
 2708TIP3    H232320   0.274   2.589  19.075 -0.5785 -0.9249  2.1075
 2709TIP3   OH232321   3.855   2.226  18.161 -0.4717 -0.4895 -0.1464
 2709TIP3    H132322   3.766   2.197  18.183 -0.6418 -0.2145 -0.4671
 2709TIP3    H232323   3.850   2.321  18.160 -0.6677 -0.4829 -2.1484
 2710TIP3   OH232324   5.597   4.727  19.098 -0.1881  0.5627  0.3221
 2710TIP3    H132325   5.585   4.771  19.014 -2.6531 -0.9369 -0.2075
 2710TIP3    H232326   5.523   4.756  19.151 -1.4764 -2.2783  0.2088
 2711TIP3   OH232327   4.315   4.540  18.018 -0.0456  0.2407  0.3095
 2711TIP3    H132328   4.357   4.620  17.986 -0.8300  1.2926  1.7627
 2711TIP3    H232329   4.323   4.546  18.114 -0.9741 -0.9443  0.4867
 2712TIP3   OH232330   4.139   2.259  19.177  0.2856 -0.1883  0.3328
 2712TIP3    H132331   4.137   2.189  19.112 -1.8418 -0.2786  0.4056
 2712TIP3    H232332   4.230   2.264  19.205  1.1706 -0.4538 -2.2939
 2713TIP3   OH232333   5.244   0.879  17.552 -0.1848  0.2197  0.2654
 2713TIP3    H132334   5.187   0.906  17.624  0.2263  0.1548  0.6156
 2713TIP3    H232335   5.316   0.942  17.553  2.4274 -2.4325  3.0267
 2714TIP3   OH232336   5.271   5.537  19.606  0.2818  0.2733 -0.3823
 2714TIP3    H132337   5.293   5.580  19.523  0.4447  1.4467  0.2465
 2714TIP3    H232338   5.350   5.488  19.630 -0.6354 -2.3163 -2.2179
 2715TIP3   OH232339   3.734   6.330  20.160 -0.4124 -0.0568  0.2436
 2715TIP3    H132340   3.653   6.280  20.177 -0.4747  0.0043  0.1269
 2715TIP3    H232341   3.741   6.333  20.065 -1.1160  1.2753  0.2062
 2716TIP3   OH232342   4.388   1.744  17.698  0.0283 -0.5264 -0.0367
 2716TIP3    H132343   4.443   1.768  17.772 -1.1540 -0.0174  0.7012
 2716TIP3    H232344   4.390   1.820  17.640  1.5470 -1.1985 -0.9325
 2717TIP3   OH232345   6.175   0.075  17.903  0.5402  0.5242  0.4757
 2717TIP3    H132346   6.211   0.002  17.853  1.2201  1.0730  0.1402
 2717TIP3    H232347   6.160   0.144  17.838 -0.2745  0.6272  0.7557
 2718TIP3   OH232348   6.223   6.249  19.527  0.3810 -0.7088  0.6136
 2718TIP3    H132349   6.260   6.195  19.597 -0.4743 -1.0451  0.8080
 2718TIP3    H232350   6.130   6.257  19.548  0.2762 -0.1168 -0.0365
 2719TIP3   OH232351   4.684   3.601  19.442  0.0645 -0.3300 -0.0516
 2719TIP3    H132352   4.680   3.681  19.494 -3.3362  0.2920 -1.0357
 2719TIP3    H232353   4.759   3.615  19.384  0.3527  1.5470  0.6928
 2720TIP3   OH232354   1.228   6.487  20.444 -0.3094 -0.3099  0.5880
 2720TIP3    H132355   1.259   6.397  20.455 -0.6050 -0.5653 -0.6185
 2720TIP3    H232356   1.136   6.479  20.421 -0.3352  0.2986  0.4581
 2721TIP3   OH232357   0.135   5.492  20.275 -0.3981  0.0995 -0.8830
 2721TIP3    H132358   0.134   5.466  20.182 -0.3443  2.2090 -1.5295
 2721TIP3    H232359   0.120   5.587  20.273 -1.4585  0.0278  1.3489
 2722TIP3   OH232360   1.351   4.977  19.238 -0.0546  0.1651  0.3648
 2722TIP3    H132361   1.349   5.068  19.267  1.9852  0.9696 -1.6599
 2722TIP3    H232362   1.264   4.962  19.201 -0.3796  1.3538  0.5959
 2723TIP3   OH232363   3.728   5.932  18.768 -0.2684  0.1867  0.1984
 2723TIP3    H132364   3.736   6.027  18.776  1.0851  0.2433 -1.3016
 2723TIP3    H232365   3.810   5.898  18.803 -0.5101 -0.3928  0.2150
 2724TIP3   OH232366   3.083   4.621  19.868  0.1872 -0.3944  0.2236
 2724TIP3    H132367   3.090   4.611  19.963  2.4942  0.6912  0.2229
 2724TIP3    H232368   3.019   4.691  19.856  0.5543  0.0852  1.0259
 2725TIP3   OH232369   4.299   5.900  16.460  0.4299  0.4395 -0.1711
 2725TIP3    H132370   4.392   5.907  16.479  0.6842  1.1177 -1.5278
 2725TIP3    H232371   4.270   5.990  16.444 -0.7683  0.4008  1.4409
 2726TIP3   OH232372   2.009   3.019  19.135 -0.3528  1.0571 -0.0621
 2726TIP3    H132373   2.042   3.070  19.062 -0.0495  0.2062 -0.5353
 2726TIP3    H232374   1.915   3.009  19.117 -0.4532  1.6003  0.1357
 2727TIP3   OH232375   3.471   1.050  18.975  0.5707  0.4229  0.5996
 2727TIP3    H132376   3.550   1.103  18.975 -0.5753  2.4050  3.3300
 2727TIP3    H232377   3.400   1.113  18.988 -1.4162 -1.3439 -0.9545
 2728TIP3   OH232378   4.022   5.524  16.739  0.0111 -0.3960  0.2030
 2728TIP3    H132379   4.004   5.471  16.817 -1.6177  0.0851  0.1929
 2728TIP3    H232380   3.944   5.515  16.685  0.6339  0.2331 -0.8427
 2729TIP3   OH232381   2.579   0.681  19.416  0.2118 -0.2518  0.1205
 2729TIP3    H132382   2.528   0.680  19.497  1.2729  1.6962  0.8884
 2729TIP3    H232383   2.668   0.660  19.443  0.6579  0.8098 -0.4323
 2730TIP3   OH232384   5.932   1.337  18.570  0.4424 -0.3943 -0.4056
 2730TIP3    H132385   5.921   1.412  18.627 -0.1262  0.3629 -1.4749
 2730TIP3    H232386   5.993   1.280  18.617  0.7289  0.6335  0.5156
 2731TIP3   OH232387   1.693   6.653  18.076 -0.5588  0.1448 -0.2535
 2731TIP3    H132388   1.713   6.713  18.005  0.8262 -1.2163 -1.0873
 2731TIP3    H232389   1.767   6.591  18.076 -1.2867 -0.7771  1.3835
 2732TIP3   OH232390   5.760   1.080  17.858  0.0436 -0.4259 -0.1084
 2732TIP3    H132391   5.824   1.092  17.928  1.2670 -1.2963 -1.0261
 2732TIP3    H232392   5.810   1.043  17.786 -0.8387  1.7727 -1.9988
 2733TIP3   OH232393   3.039   5.452  20.216 -0.1428 -0.2504 -0.7847
 2733TIP3    H132394   3.046   5.530  20.272 -1.0369  1.2122 -2.5750
 2733TIP3    H232395   2.946   5.448  20.193 -0.3216 -2.5335  0.1069
 2734TIP3   OH232396   5.809   1.370  17.647 -0.5011  0.6891  0.3632
 2734TIP3    H132397   5.840   1.458  17.668  0.6491 -0.2698  3.2169
 2734TIP3    H232398   5.882   1.329  17.600 -0.5864  0.8951  0.0487
 2735TIP3   OH232399   3.496   1.410  19.545 -0.2954 -0.3353 -0.0834
 2735TIP3    H132400   3.565   1.378  19.602  0.6028 -0.1702 -1.0430
 2735TIP3    H232401   3.432   1.339  19.541  0.1963 -0.7981  0.1980
 2736TIP3   OH232402   0.351   5.627  17.343 -0.0264 -0.2587  0.4889
 2736TIP3    H132403   0.329   5.538  17.369 -1.0481  0.2021  1.2429
 2736TIP3    H232404   0.413   5.657  17.409 -1.7107  0.4940  1.7879
 2737TIP3   OH232405   2.974   4.839  18.476 -0.5050 -0.2059 -0.1015
 2737TIP3    H132406   3.015   4.900  18.537  0.3171  0.2748 -1.0980
 2737TIP3    H232407   2.906   4.796  18.527  1.0840 -0.8715  1.5599
 2738TIP3   OH232408   6.463   4.570  17.109 -0.6963  0.0613  0.1648
 2738TIP3    H132409   6.378   4.614  17.100 -0.9393 -0.3568  0.3392
 2738TIP3    H232410   6.458   4.496  17.049 -0.0018  0.6759 -0.6797
 2739TIP3   OH232411   4.330   2.863  20.108 -0.4691  0.0639  0.4232
 2739TIP3    H132412   4.260   2.891  20.167 -0.3092  1.5131 -0.0300
 2739TIP3    H232413   4.406   2.916  20.134  0.6707 -1.8766  1.2860
 2740TIP3   OH232414   2.016   1.879  17.296 -0.1433 -0.3567 -0.4650
 2740TIP3    H132415   1.937   1.918  17.258  1.0509  0.5258 -2.2094
 2740TIP3    H232416   2.014   1.788  17.265 -1.0565 -0.6980  0.5240
 2741TIP3   OH232417   5.931   0.408  17.829  0.8169 -0.1160  0.2609
 2741TIP3    H132418   5.971   0.494  17.819  0.3537  0.0355 -0.2915
 2741TIP3    H232419   5.895   0.408  17.918  0.1085  0.5558 -0.0262
 2742TIP3   OH232420   0.147   2.212  19.422  0.3175 -0.1009 -0.6359
 2742TIP3    H132421   0.105   2.214  19.336 -0.0891 -0.0456 -0.4365
 2742TIP3    H232422   0.241   2.206  19.403  0.3083  1.0104 -1.0971
 2743TIP3   OH232423   0.740   6.681  17.950  0.0956 -0.1983 -0.0302
 2743TIP3    H132424   0.729   6.712  17.860 -2.0301 -0.7034  0.0143
 2743TIP3    H232425   0.686   6.602  17.954  0.3809 -0.3329  1.6282
 2744TIP3   OH232426   3.132   4.395  19.352 -0.3254  0.2127  0.1899
 2744TIP3    H132427   3.178   4.331  19.298 -1.6345 -1.5715  1.0664
 2744TIP3    H232428   3.117   4.470  19.294 -1.3496 -1.4598 -1.8434
 2745TIP3   OH232429   3.219   3.606  19.126 -0.3088 -0.0885 -0.0003
 2745TIP3    H132430   3.161   3.535  19.098  1.2164 -1.8217  0.9989
 2745TIP3    H232431   3.161   3.671  19.164 -1.6699 -1.3966  0.2298
 2746TIP3   OH232432   0.332   4.662  18.613 -0.1691 -0.5202  0.7007
 2746TIP3    H132433   0.252   4.665  18.666 -0.0069  0.0108  0.9202
 2746TIP3    H232434   0.368   4.750  18.619 -0.6757 -0.1462 -1.1215
 2747TIP3   OH232435   1.177   1.681  18.298 -0.3097  0.0641  0.1535
 2747TIP3    H132436   1.167   1.749  18.365  0.8458  1.6719 -1.2092
 2747TIP3    H232437   1.087   1.661  18.271 -0.7947 -0.4695  1.9630
 2748TIP3   OH232438   3.883   5.677  18.928  0.0235  0.4268  0.3910
 2748TIP3    H132439   3.849   5.669  19.017  1.0149  0.4414  0.7772
 2748TIP3    H232440   3.943   5.751  18.932 -0.1808  0.6411 -0.3767
 2749TIP3   OH232441   6.519   1.148  19.460  0.1475  0.7050  0.2225
 2749TIP3    H132442   6.430   1.171  19.487  0.5126  1.2368  1.0057
 2749TIP3    H232443   6.571   1.227  19.476  0.7152  0.4958 -0.4920
 2750TIP3   OH232444   3.768   1.654  17.580 -0.4394  0.6675  0.1665
 2750TIP3    H132445   3.825   1.643  17.504 -1.2265 -0.0122 -0.3318
 2750TIP3    H232446   3.789   1.579  17.636 -2.1755 -0.6540 -0.8922
 2751TIP3   OH232447   3.800   4.978  17.465  0.0747  0.1886 -0.1044
 2751TIP3    H132448   3.850   5.042  17.413  1.6656 -2.2186 -1.8036
 2751TIP3    H232449   3.710   4.987  17.434  0.1543  1.9056  0.0733
 2752TIP3   OH232450   1.098   0.073  20.538  0.1207 -0.6369 -0.1034
 2752TIP3    H132451   1.123  -0.019  20.526 -0.2773 -0.7848  0.1807
 2752TIP3    H232452   1.060   0.076  20.626 -0.1558 -0.2621 -0.2341
 2753TIP3   OH232453   4.874   6.082  19.297  0.0510 -0.0968 -0.0963
 2753TIP3    H132454   4.834   6.048  19.217 -1.0388  0.7341  0.0708
 2753TIP3    H232455   4.944   6.140  19.267  0.2771 -0.5240 -0.4137
 2754TIP3   OH232456   4.577   6.371  20.087 -0.0569  0.3899  0.3035
 2754TIP3    H132457   4.550   6.283  20.063  0.8676 -0.2929  1.6316
 2754TIP3    H232458   4.649   6.392  20.028 -0.4762  0.3766 -0.2135
 2755TIP3   OH232459   0.661   5.984  17.367 -0.5694  0.1567  0.4788
 2755TIP3    H132460   0.723   5.926  17.323 -1.7218 -1.9376  1.4709
 2755TIP3    H232461   0.714   6.055  17.402  0.8167  0.0711 -1.3362
 2756TIP3   OH232462   0.517   6.100  19.073  0.2338  0.1020  0.4008
 2756TIP3    H132463   0.476   6.053  19.000  1.3549  0.3602 -0.4250
 2756TIP3    H232464   0.578   6.161  19.031  1.2630 -0.0888  1.5630
 2757TIP3   OH232465   0.824   3.521  18.399 -0.2926 -0.3442 -0.4507
 2757TIP3    H132466   0.760   3.461  18.360  0.3650 -1.0998 -0.3998
 2757TIP3    H232467   0.883   3.464  18.448 -0.6812  0.5085  1.0726
 2758TIP3   OH232468   1.532   2.410  18.480 -0.2187 -0.3384  0.3824
 2758TIP3    H132469   1.601   2.410  18.546  0.6952 -3.5341 -0.3793
 2758TIP3    H232470   1.578   2.399  18.396 -1.5481 -1.2105 -0.2728
 2759TIP3   OH232471   4.722   1.392  18.730 -0.1519 -0.1078  0.2664
 2759TIP3    H132472   4.734   1.309  18.684 -0.8249 -0.5308  0.8310
 2759TIP3    H232473   4.627   1.404  18.733 -0.0545  1.4915 -1.2184
 2760TIP3   OH232474   3.686   6.654  19.463  0.6239  0.2851  0.2430
 2760TIP3    H132475   3.724   6.657  19.550  0.4843  0.8545  0.2907
 2760TIP3    H232476   3.593   6.636  19.477  0.7271 -0.3288  0.1712
 2761TIP3   OH232477   3.946   1.068  18.764 -0.0310  0.7408  0.0602
 2761TIP3    H132478   3.925   1.061  18.671  0.7546  0.4575 -0.0992
 2761TIP3    H232479   3.950   0.977  18.795 -2.4248  0.8380  0.8865
 2762TIP3   OH232480   0.734   2.508  19.522 -0.6618 -0.2632 -0.4253
 2762TIP3    H132481   0.693   2.496  19.436  1.5549 -0.1969 -1.5707
 2762TIP3    H232482   0.781   2.591  19.515  1.5103 -1.3898 -0.0368
 2763TIP3   OH232483   4.885   1.221  19.509 -0.6239  0.1924  0.2658
 2763TIP3    H132484   4.816   1.252  19.569 -1.7849  0.1146 -0.9771
 2763TIP3    H232485   4.877   1.278  19.432 -0.4513 -0.9245 -0.6031
 2764TIP3   OH232486   2.367   1.824  19.534  0.6628  0.4308 -0.3707
 2764TIP3    H132487   2.289   1.879  19.522 -0.1475 -0.5132  0.3923
 2764TIP3    H232488   2.335   1.734  19.522  1.3524 -0.0677  1.2610
 2765TIP3   OH232489   5.767   1.982  19.811  0.4800 -0.0671  0.5180
 2765TIP3    H132490   5.775   1.904  19.756  0.7122 -0.5359  1.2174
 2765TIP3    H232491   5.823   2.047  19.768  0.2795 -0.2766 -0.0680
 2766TIP3   OH232492   3.366   5.736  19.955  0.0305 -0.1538  0.1225
 2766TIP3    H132493   3.361   5.739  19.860 -0.3359 -1.8284  0.0625
 2766TIP3    H232494   3.439   5.794  19.977 -0.1282  0.5640 -1.1275
 2767TIP3   OH232495   2.051   5.287  18.811 -0.4032  0.4636  0.0014
 2767TIP3    H132496   2.129   5.329  18.777  0.0051 -0.7985 -0.6669
 2767TIP3    H232497   2.021   5.346  18.881  1.9995  0.2265  1.3341
 2768TIP3   OH232498   2.508   5.916  19.320 -0.3855 -0.3180 -0.2847
 2768TIP3    H132499   2.578   5.973  19.352 -0.6709  0.0053 -0.2284
 2768TIP3    H232500   2.518   5.917  19.225 -1.2139  0.9124 -0.3759
 2769TIP3   OH232501   6.675   2.502  16.940 -0.5506  0.5783  0.0218
 2769TIP3    H132502   6.696   2.595  16.945 -1.1781  0.6599  2.9700
 2769TIP3    H232503   6.583   2.500  16.914 -0.2618  0.7091 -1.0525
 2770TIP3   OH232504   0.856   5.999  19.251  0.3733  0.4115 -0.1353
 2770TIP3    H132505   0.763   5.975  19.247  0.3084  0.8358 -2.4696
 2770TIP3    H232506   0.897   5.927  19.298 -0.8747 -0.7648 -0.7650
 2771TIP3   OH232507   2.333   6.571  19.109  0.3992 -0.8462 -0.2108
 2771TIP3    H132508   2.266   6.601  19.170  0.2494 -0.4334 -0.5735
 2771TIP3    H232509   2.407   6.631  19.122  0.8985 -1.6155  0.5548
 2772TIP3   OH232510   1.968   0.672  16.791 -0.5234 -0.0707  0.0275
 2772TIP3    H132511   2.061   0.692  16.779 -0.5949  0.5604  0.5207
 2772TIP3    H232512   1.928   0.754  16.817 -0.7345 -0.8882  2.5529
 2773TIP3   OH232513   3.845   0.726  17.455 -0.2379 -0.4899  0.5736
 2773TIP3    H132514   3.928   0.770  17.434 -0.2955 -0.1700  1.0018
 2773TIP3    H232515   3.869   0.634  17.463  0.0709 -0.4057  0.6535
 2774TIP3   OH232516   0.347   3.522  19.072 -0.1514 -0.1011  0.0129
 2774TIP3    H132517   0.382   3.470  19.000 -2.9862 -0.2622 -1.3914
 2774TIP3    H232518   0.275   3.469  19.108 -0.3630  1.0305  1.3612
 2775TIP3   OH232519   2.138   4.167  20.000  0.1224  0.1342  0.5254
 2775TIP3    H132520   2.096   4.212  19.927 -0.3406 -1.3489 -0.1477
 2775TIP3    H232521   2.181   4.237  20.049  1.3944  1.0574 -1.7730
 2776TIP3   OH232522   5.392   0.073  16.990 -0.2941 -0.0434  0.6261
 2776TIP3    H132523   5.322   0.064  16.925  0.1130 -1.7581  0.3901
 2776TIP3    H232524   5.473   0.056  16.942  0.2907  1.6148  0.9655
 2777TIP3   OH232525   6.645   4.268  20.132  0.3677 -0.1118 -0.4186
 2777TIP3    H132526   6.589   4.229  20.199  0.2719  0.3971 -0.1993
 2777TIP3    H232527   6.733   4.266  20.171  0.1826  1.0041  0.1112
 2778TIP3   OH232528   1.701   2.758  20.067  0.2829 -0.1008 -0.7550
 2778TIP3    H132529   1.656   2.673  20.066  0.3395 -0.1438 -0.0445
 2778TIP3    H232530   1.794   2.736  20.057  0.4645 -0.2538  0.9793
 2779TIP3   OH232531   5.796   3.000  20.014  0.2836  0.1874 -0.3803
 2779TIP3    H132532   5.740   3.060  20.063 -0.3838  0.3452 -1.2900
 2779TIP3    H232533   5.738   2.963  19.947  0.3509 -2.3328  0.8100
 2780TIP3   OH232534   3.166   0.152  18.392  0.2854  0.4197 -0.0894
 2780TIP3    H132535   3.172   0.201  18.310  0.7223  0.3250 -0.1124
 2780TIP3    H232536   3.224   0.077  18.380  1.7430  1.3301  0.9654
 2781TIP3   OH232537   2.526   5.778  18.404 -0.2878  0.5326 -0.0343
 2781TIP3    H132538   2.493   5.768  18.314  1.3631 -1.1587 -0.5138
 2781TIP3    H232539   2.558   5.868  18.408  0.3781  0.3814 -1.4356
 2782TIP3   OH232540   4.363   0.119  16.532  0.0418  0.5380 -0.0248
 2782TIP3    H132541   4.282   0.074  16.509  0.1355  0.3714 -0.0261
 2782TIP3    H232542   4.371   0.189  16.467 -0.8295  1.4343  0.8062
 2783TIP3   OH232543   0.879   4.625  19.969  0.0637  0.0451  0.6119
 2783TIP3    H132544   0.805   4.604  19.913  0.5714  0.6976 -0.3397
 2783TIP3    H232545   0.907   4.712  19.940  2.2717 -0.8787 -0.2733
 2784TIP3   OH232546   5.106   2.851  17.521 -0.2164 -0.0449  0.2434
 2784TIP3    H132547   5.181   2.842  17.462  0.2747 -0.8033  0.9612
 2784TIP3    H232548   5.065   2.934  17.495  0.4239  0.0029 -0.6572
 2785TIP3   OH232549   0.101   2.778  20.499 -0.5098  0.2649 -0.6545
 2785TIP3    H132550   0.079   2.733  20.417 -1.4345  0.6489 -0.6288
 2785TIP3    H232551   0.173   2.727  20.536  0.0694  0.2040 -1.8105
 2786TIP3   OH232552   5.260   2.490  17.187  0.3822 -0.3608  0.0161
 2786TIP3    H132553   5.323   2.559  17.169 -2.1537  2.1395 -0.0850
 2786TIP3    H232554   5.232   2.460  17.100  0.3524 -0.3847  0.0330
 2787TIP3   OH232555   4.196   6.208  19.163 -0.1186  0.0292  0.1213
 2787TIP3    H132556   4.271   6.257  19.130 -0.5008  0.8244  0.3938
 2787TIP3    H232557   4.121   6.248  19.118 -0.3154 -1.3990 -0.9021
 2788TIP3   OH232558   5.678   0.537  17.948  0.1249 -0.2541 -0.2939
 2788TIP3    H132559   5.590   0.570  17.930 -1.2950 -2.3627  2.1119
 2788TIP3    H232560   5.671   0.443  17.936  2.3322 -0.4070 -0.8335
 2789TIP3   OH232561   0.643   0.320  19.452  0.4482 -0.5242 -0.1046
 2789TIP3    H132562   0.617   0.388  19.390 -1.0712  0.4418  1.4955
 2789TIP3    H232563   0.580   0.249  19.438 -0.2168 -0.0972  0.6278
 2790TIP3   OH232564   4.465   5.713  16.305  0.1914  0.1439  0.6685
 2790TIP3    H132565   4.550   5.739  16.340 -0.0951  1.4891  0.4303
 2790TIP3    H232566   4.402   5.768  16.353 -0.5911 -1.1202  1.1402
 2791TIP3   OH232567   0.302   4.167  17.439  0.1586  0.1578  0.0343
 2791TIP3    H132568   0.289   4.083  17.395  2.1659 -0.1250 -0.1238
 2791TIP3    H232569   0.251   4.161  17.520 -1.0457 -0.5462 -0.7566
 2792TIP3   OH232570   1.044   0.880  17.791 -0.5295  0.1557 -0.1599
 2792TIP3    H132571   1.127   0.857  17.749 -0.3164 -1.2488  0.9657
 2792TIP3    H232572   0.977   0.845  17.733 -0.2760 -0.3413 -0.1602
 2793TIP3   OH232573   4.222   2.467  18.817 -0.1420 -0.2127  0.6409
 2793TIP3    H132574   4.281   2.519  18.872  0.5875 -0.3838  0.0410
 2793TIP3    H232575   4.150   2.444  18.875  0.2469  0.2292  1.3217
 2794TIP3   OH232576   4.119   6.118  20.194  0.2281  0.7673 -0.6992
 2794TIP3    H132577   4.023   6.119  20.202  0.0268 -1.7328 -1.9685
 2794TIP3    H232578   4.142   6.210  20.179 -1.5629  2.0111  3.0104
 2795TIP3   OH232579   4.266   5.747  19.035 -0.4795  0.3303  0.5884
 2795TIP3    H132580   4.306   5.757  19.121 -0.5081  1.1848  0.5162
 2795TIP3    H232581   4.299   5.822  18.985 -0.8942  0.1452  0.0332
 2796TIP3   OH232582   4.193   0.441  19.648  0.5352  0.3803  0.2518
 2796TIP3    H132583   4.285   0.415  19.645  0.0223 -1.5589 -1.8746
 2796TIP3    H232584   4.172   0.447  19.742  2.8007  0.9407  0.7688
 2797TIP3   OH232585   6.546   4.655  20.558  0.2070  0.0194 -0.3389
 2797TIP3    H132586   6.534   4.615  20.472  2.1598 -0.8690 -0.2611
 2797TIP3    H232587   6.464   4.637  20.604 -0.5488 -0.2342 -1.7191
 2798TIP3   OH232588   0.745   6.296  18.742  0.1620 -0.0470 -0.3244
 2798TIP3    H132589   0.657   6.298  18.703  0.0945 -2.3238 -0.4045
 2798TIP3    H232590   0.802   6.332  18.673 -0.3587 -1.1400 -1.3593
 2799TIP3   OH232591   4.013   3.723  20.375  0.0422 -0.3132 -0.3283
 2799TIP3    H132592   4.035   3.680  20.292  0.5988  2.5708 -1.8345
 2799TIP3    H232593   4.093   3.719  20.427  0.5647  0.2312 -1.0787
 2800TIP3   OH232594   5.464   5.654  17.456  0.2454 -0.3417 -0.7127
 2800TIP3    H132595   5.425   5.695  17.379 -1.1029 -1.0327 -0.4183
 2800TIP3    H232596   5.550   5.624  17.426 -0.1620 -0.3967 -1.8815
 2801TIP3   OH232597   2.093   1.865  17.611 -0.3570 -0.1670 -0.5289
 2801TIP3    H132598   2.091   1.945  17.664  2.0552  0.2315 -0.9172
 2801TIP3    H232599   2.019   1.875  17.551 -2.0222  0.2378  1.4683
 2802TIP3   OH232600   0.918   1.517  18.247  0.3309  0.0526  0.5897
 2802TIP3    H132601   0.984   1.459  18.208 -3.2103 -2.6457 -2.0103
 2802TIP3    H232602   0.912   1.591  18.187  0.7086  0.1157  0.6290
 2803TIP3   OH232603   1.212   4.639  19.969 -0.3268  0.0944  0.1635
 2803TIP3    H132604   1.262   4.581  20.027  0.9315  2.3750  1.5232
 2803TIP3    H232605   1.151   4.683  20.028 -0.8492  0.5819 -0.7314
 2804TIP3   OH232606   5.685   3.571  16.857  0.4567  0.0983 -0.2361
 2804TIP3    H132607   5.614   3.612  16.906  0.0933  1.4586 -1.8463
 2804TIP3    H232608   5.650   3.485  16.833  0.2031 -0.1175  0.8223
 2805TIP3   OH232609   3.462   4.997  18.978  0.4776 -0.0504 -0.3926
 2805TIP3    H132610   3.470   4.953  19.062 -0.4849 -0.1266 -0.3322
 2805TIP3    H232611   3.491   5.087  18.995 -1.1899  0.3698  0.4227
 2806TIP3   OH232612   2.067   5.113  19.621 -0.5373 -0.0254 -0.5489
 2806TIP3    H132613   2.025   5.107  19.706  1.3754  0.9818  0.5363
 2806TIP3    H232614   2.078   5.022  19.593 -0.9972 -0.3747  0.3688
 2807TIP3   OH232615   4.272   3.618  20.467  0.1299 -0.2706 -0.1473
 2807TIP3    H132616   4.246   3.533  20.503  0.2796 -0.6627 -0.9435
 2807TIP3    H232617   4.318   3.597  20.386  0.5019  0.5577 -0.1627
 2808TIP3   OH232618   2.916   1.641  20.198  0.0448 -0.2586  0.1200
 2808TIP3    H132619   2.914   1.550  20.225 -0.7203 -0.0814  0.6742
 2808TIP3    H232620   2.982   1.644  20.129  1.1552 -0.9579  1.1104
 2809TIP3   OH232621   6.489   1.151  20.015  0.2665 -0.3323  0.7364
 2809TIP3    H132622   6.407   1.124  20.058 -0.3145  0.3289  0.0641
 2809TIP3    H232623   6.488   1.105  19.931 -0.2706  0.9980 -0.0140
 2810TIP3   OH232624   5.630   0.748  20.190 -0.3553 -0.5106  0.3007
 2810TIP3    H132625   5.725   0.748  20.180 -0.4338  0.4661 -0.5867
 2810TIP3    H232626   5.600   0.672  20.139 -0.1049 -0.4397  0.0474
 2811TIP3   OH232627   6.661   1.653  18.062 -0.6200  0.1930 -0.1221
 2811TIP3    H132628   6.740   1.599  18.065  0.8876  2.0247 -2.6021
 2811TIP3    H232629   6.670   1.712  18.137 -0.0191 -0.1006  0.0475
 2812TIP3   OH232630   1.441   5.948  19.471  0.2966  0.0200 -0.0319
 2812TIP3    H132631   1.470   5.962  19.381 -1.0566  2.6378 -0.1580
 2812TIP3    H232632   1.474   6.024  19.519 -1.0609 -0.0940  1.1455
 2813TIP3   OH232633   2.508   5.171  17.355 -0.0011  0.6918  0.3958
 2813TIP3    H132634   2.463   5.120  17.287  0.9727 -0.0636  0.2884
 2813TIP3    H232635   2.543   5.247  17.309  1.8361 -0.5041 -0.2807
 2814TIP3   OH232636   2.891   0.249  18.411  0.1907  0.4981  0.2545
 2814TIP3    H132637   2.917   0.286  18.327  0.1621  1.3422  0.6095
 2814TIP3    H232638   2.962   0.188  18.433  0.8458  1.2322  0.2284
 2815TIP3   OH232639   2.123   5.787  17.040 -0.3330  0.0480  0.4144
 2815TIP3    H132640   2.181   5.718  17.073 -1.2061 -0.7943  0.2473
 2815TIP3    H232641   2.165   5.869  17.066  0.7417 -0.5494  0.5917
 2816TIP3   OH232642   1.881   3.437  18.572  0.1660  0.0617 -0.0437
 2816TIP3    H132643   1.853   3.491  18.498  1.9137  1.1555  0.0171
 2816TIP3    H232644   1.950   3.489  18.614 -0.0963 -0.9788  1.7653
 2817TIP3   OH232645   0.306   5.832  17.161 -0.0927  0.3591  0.0242
 2817TIP3    H132646   0.322   5.778  17.238  0.6891  3.0642  1.8714
 2817TIP3    H232647   0.389   5.831  17.113 -0.7471 -1.7850 -1.2048
 2818TIP3   OH232648   0.659   1.257  18.684 -0.7626 -0.1858 -0.2482
 2818TIP3    H132649   0.612   1.332  18.721  1.7311  0.3055  2.2811
 2818TIP3    H232650   0.728   1.296  18.630  0.3145 -0.5851  0.7777
 2819TIP3   OH232651   5.117   1.971  18.073  0.2142 -0.2655 -0.5297
 2819TIP3    H132652   5.206   2.002  18.090  0.5188 -0.9425 -0.8394
 2819TIP3    H232653   5.082   1.948  18.159  0.8212 -1.2413 -0.5279
 2820TIP3   OH232654   2.223   0.691  18.060 -0.5890  0.4350 -0.2100
 2820TIP3    H132655   2.156   0.662  18.122 -0.3958  1.0525  0.2968
 2820TIP3    H232656   2.215   0.630  17.987 -1.8766  0.6411 -0.2700
 2821TIP3   OH232657   2.243   1.073  20.113 -0.2087  0.5275 -0.0106
 2821TIP3    H132658   2.198   1.141  20.062  0.0062  1.7083  1.3137
 2821TIP3    H232659   2.335   1.097  20.107  0.1312 -0.9051 -1.2828
 2822TIP3   OH232660   5.129   4.393  19.351  0.0373 -0.4593  0.0309
 2822TIP3    H132661   5.142   4.338  19.428  0.6423 -1.0862 -0.5149
 2822TIP3    H232662   5.058   4.453  19.377  0.2825 -0.6062  1.0935
 2823TIP3   OH232663   1.433   3.596  19.083 -0.0949  0.9838  0.0104
 2823TIP3    H132664   1.371   3.652  19.129 -0.2372 -1.0134  2.4984
 2823TIP3    H232665   1.515   3.606  19.132 -0.4516 -1.7911  1.3930
 2824TIP3   OH232666   4.171   2.305  19.779 -0.8084 -0.0934 -0.5488
 2824TIP3    H132667   4.109   2.372  19.751 -0.9579  0.4507  0.9626
 2824TIP3    H232668   4.255   2.333  19.744 -0.8689  0.9243  0.0868
 2825TIP3   OH232669   6.433   3.354  18.729  0.1944  0.2113 -0.0182
 2825TIP3    H132670   6.459   3.273  18.774  0.7152 -0.2153 -1.0408
 2825TIP3    H232671   6.348   3.334  18.691  0.1767  0.2498  0.0017
 2826TIP3   OH232672   6.362   3.824  19.197 -0.5071  0.0256 -0.0733
 2826TIP3    H132673   6.365   3.836  19.102  0.2124  0.6866  0.0247
 2826TIP3    H232674   6.298   3.754  19.210  0.4332 -1.0780 -1.1318
 2827TIP3   OH232675   4.528   6.104  20.055 -0.0458 -0.7198  0.0286
 2827TIP3    H132676   4.544   6.034  20.119  0.1776 -0.9569 -0.2789
 2827TIP3    H232677   4.443   6.083  20.017 -0.7050  0.0361  1.0241
 2828TIP3   OH232678   5.459   5.824  17.043 -0.4613 -0.2010 -0.0080
 2828TIP3    H132679   5.476   5.917  17.053  0.4974 -0.4400  0.8404
 2828TIP3    H232680   5.496   5.802  16.957 -0.1319  0.0885  0.0564
 2829TIP3   OH232681   0.899   2.458  17.866  0.1134 -0.0867  0.5033
 2829TIP3    H132682   0.936   2.498  17.786  2.0297  0.4189  1.5685
 2829TIP3    H232683   0.805   2.476  17.861  0.3801  1.0849 -0.9972
 2830TIP3   OH232684   4.605   3.836  19.568 -0.2786  0.0368 -0.7033
 2830TIP3    H132685   4.646   3.915  19.602  0.8965  0.0783 -2.1109
 2830TIP3    H232686   4.556   3.866  19.491 -2.1462 -0.1895  0.3284
 2831TIP3   OH232687   2.613   3.836  18.167  0.2320  0.1421  0.0083
 2831TIP3    H132688   2.621   3.800  18.079  1.3609 -1.1900  0.6144
 2831TIP3    H232689   2.661   3.919  18.164  1.2621 -0.4506 -0.3472
 2832TIP3   OH232690   1.205   2.518  19.515 -0.3437  0.1563  0.2321
 2832TIP3    H132691   1.291   2.480  19.494 -1.3988 -1.5262 -1.3360
 2832TIP3    H232692   1.178   2.473  19.595 -0.7431 -1.0776 -0.5650
 2833TIP3   OH232693   5.535   4.148  18.271  0.6651 -0.3596  0.3426
 2833TIP3    H132694   5.525   4.236  18.234 -1.2380 -0.1899  1.1526
 2833TIP3    H232695   5.546   4.091  18.195  0.5687  0.4176 -0.2643
 2834TIP3   OH232696   5.535   5.201  18.494  0.1973  0.3833 -0.0810
 2834TIP3    H132697   5.514   5.122  18.444  0.7164  0.0782  0.1687
 2834TIP3    H232698   5.519   5.273  18.433  0.7863  0.0184 -0.6880
 2835TIP3   OH232699   6.126   6.602  18.844  0.4679 -0.0372  0.0403
 2835TIP3    H132700   6.161   6.636  18.762 -0.6201 -1.2323 -0.9806
 2835TIP3    H232701   6.050   6.550  18.817  0.5068 -1.0464  1.7452
 2836TIP3   OH232702   6.001   1.866  19.033  0.2629  0.0969 -0.5193
 2836TIP3    H132703   6.016   1.772  19.049 -0.6186 -0.3629 -2.1718
 2836TIP3    H232704   6.069   1.891  18.970 -1.5745 -0.3672 -2.8446
 2837TIP3   OH232705   1.269   0.477  17.245 -0.0446  0.4674  0.1880
 2837TIP3    H132706   1.223   0.529  17.179 -1.7197 -2.3757 -1.0958
 2837TIP3    H232707   1.344   0.439  17.198  0.5306  0.8336  0.7952
 2838TIP3   OH232708   6.575   2.745  19.600  0.4684  0.6303 -0.6364
 2838TIP3    H132709   6.602   2.687  19.529  1.1512  1.2646 -0.9065
 2838TIP3    H232710   6.522   2.812  19.557 -1.8470 -0.7292 -0.0820
 2839TIP3   OH232711   2.439   2.312  19.374 -0.2372 -0.0822  0.1088
 2839TIP3    H132712   2.411   2.220  19.378 -0.6804 -0.1141 -2.4498
 2839TIP3    H232713   2.480   2.327  19.459  0.0098 -2.6922  0.5484
 2840TIP3   OH232714   0.961   1.333  17.059  0.7508  0.1350  0.1310
 2840TIP3    H132715   0.932   1.364  16.974 -1.6128  0.4820  0.9853
 2840TIP3    H232716   1.055   1.350  17.061  0.5194  1.8985 -1.6529
 2841TIP3   OH232717   3.635   3.998  18.812 -0.3147 -0.2875 -0.2249
 2841TIP3    H132718   3.716   4.046  18.792 -0.5600  0.3178  0.2115
 2841TIP3    H232719   3.662   3.906  18.814  0.3022 -0.1166 -0.3831
 2842TIP3   OH232720   2.569   3.221  19.065  0.9852 -0.3545 -0.4043
 2842TIP3    H132721   2.594   3.295  19.119 -1.7974 -0.5321  1.2967
 2842TIP3    H232722   2.638   3.156  19.080  1.4470  0.4524  1.1555
 2843TIP3   OH232723   2.394   4.289  18.021  0.2389 -0.1953  0.5592
 2843TIP3    H132724   2.431   4.207  18.054 -3.6085 -1.9926  1.0011
 2843TIP3    H232725   2.348   4.326  18.097 -0.8929  0.5552 -0.4570
 2844TIP3   OH232726   5.276   3.016  18.199  0.2928 -0.5048  0.6914
 2844TIP3    H132727   5.201   3.075  18.199  0.5089 -0.1929 -0.7612
 2844TIP3    H232728   5.327   3.042  18.275 -0.2768  0.3286  0.7998
 2845TIP3   OH232729   4.621   5.330  19.965  0.0355 -0.0761  0.3542
 2845TIP3    H132730   4.532   5.328  20.000 -1.6085 -2.1513 -3.4035
 2845TIP3    H232731   4.632   5.246  19.922  4.0679 -0.0701  0.9669
 2846TIP3   OH232732   1.014   4.365  19.878  0.6147  0.2224 -0.6395
 2846TIP3    H132733   1.076   4.309  19.925  1.4639  0.4985 -1.3874
 2846TIP3    H232734   1.031   4.453  19.911 -1.2275  0.0045  1.0769
 2847TIP3   OH232735   1.766   4.233  17.705 -0.0073 -0.3034 -0.4065
 2847TIP3    H132736   1.790   4.176  17.778  0.0877 -0.7882 -0.8051
 2847TIP3    H232737   1.844   4.235  17.649  0.2918  0.9096  0.0205
 2848TIP3   OH232738   6.653   6.597  17.102 -0.0943  0.3945 -0.3316
 2848TIP3    H132739   6.695   6.516  17.131  0.7043  1.3614  1.3580
 2848TIP3    H232740   6.700   6.622  17.022  0.2001 -0.3581 -0.3972
 2849TIP3   OH232741   2.326   4.017  18.914  0.2919  0.3365  0.2945
 2849TIP3    H132742   2.307   4.095  18.967 -1.1144  0.3648 -0.2204
 2849TIP3    H232743   2.262   3.953  18.943  1.7914 -0.8568  1.1090
 2850TIP3   OH232744   2.250   2.223  18.830 -0.0884 -0.3465  0.1343
 2850TIP3    H132745   2.302   2.220  18.910  1.5068  1.4155 -0.7581
 2850TIP3    H232746   2.228   2.132  18.812  2.4006 -1.1442  0.7624
 2851TIP3   OH232747   5.717   4.930  17.827  0.2430  0.9634  0.4082
 2851TIP3    H132748   5.798   4.882  17.809  1.3221  2.6095  0.6400
 2851TIP3    H232749   5.671   4.876  17.891 -0.4154 -1.5794 -1.9820
 2852TIP3   OH232750   2.923   2.276  18.040  0.2961 -0.3368  0.0117
 2852TIP3    H132751   2.933   2.181  18.040  0.9504 -0.2715  0.1715
 2852TIP3    H232752   3.012   2.309  18.045  0.1496  0.2910 -1.0765
 2853TIP3   OH232753   5.352   2.046  19.467  0.2508  0.2305  0.0978
 2853TIP3    H132754   5.357   2.030  19.373  3.7848 -0.0760  0.2214
 2853TIP3    H232755   5.324   1.963  19.504 -4.0286  1.0785 -0.6957
 2854TIP3   OH232756   2.000   5.921  17.387  0.4983 -0.2227 -0.0647
 2854TIP3    H132757   2.007   5.990  17.453  0.1410  0.8934 -1.1787
 2854TIP3    H232758   2.070   5.939  17.325 -0.1960 -0.2915 -0.8866
 2855TIP3   OH232759   5.206   3.084  16.899  0.4594 -0.5128 -0.0618
 2855TIP3    H132760   5.112   3.092  16.916  0.2222 -1.9049 -0.6345
 2855TIP3    H232761   5.246   3.148  16.959 -0.8482  0.2491  0.0402
 2856TIP3   OH232762   1.805   6.668  18.469 -0.3324  0.1999 -0.1754
 2856TIP3    H132763   1.774   6.580  18.446 -0.0125 -0.3863  1.5066
 2856TIP3    H232764   1.815   6.666  18.564  0.5511  1.7857 -0.1996
 2857TIP3   OH232765   3.857   1.811  20.288 -0.5472  0.3735  0.4706
 2857TIP3    H132766   3.842   1.891  20.237 -0.9197  1.3146  1.9939
 2857TIP3    H232767   3.777   1.761  20.278 -0.8472  0.8232  0.5990
 2858TIP3   OH232768   0.141   1.143  19.356 -0.0508 -0.0100  0.1418
 2858TIP3    H132769   0.185   1.200  19.293  1.9375  0.6510  2.0113
 2858TIP3    H232770   0.106   1.072  19.303  0.9377  0.8577 -1.7802
 2859TIP3   OH232771   6.431   3.051  18.135 -0.1273 -0.0058 -0.5164
 2859TIP3    H132772   6.337   3.035  18.139 -0.2921  0.8152 -0.8447
 2859TIP3    H232773   6.454   3.083  18.222 -0.0017 -0.9318 -0.1999
 2860TIP3   OH232774   3.268   0.843  20.394 -0.3190 -0.1372 -0.0299
 2860TIP3    H132775   3.182   0.838  20.355  0.0338 -0.7719 -0.7438
 2860TIP3    H232776   3.292   0.935  20.388 -0.9222  0.0339  0.1346
 2861TIP3   OH232777   1.735   4.614  17.700 -0.0123  0.1288  0.2680
 2861TIP3    H132778   1.673   4.593  17.631 -1.4538  0.3656  1.4310
 2861TIP3    H232779   1.819   4.582  17.668 -0.1197  2.2951 -2.6129
 2862TIP3   OH232780   4.804   0.561  19.151  0.0961  0.2371 -0.7446
 2862TIP3    H132781   4.863   0.496  19.189 -0.0673  0.0108 -0.8772
 2862TIP3    H232782   4.816   0.639  19.206 -2.1971 -0.8956  1.5560
 2863TIP3   OH232783   1.623   4.456  20.415  0.3248  0.5549  0.4457
 2863TIP3    H132784   1.673   4.513  20.473  1.7453 -1.2604  1.1046
 2863TIP3    H232785   1.617   4.505  20.333  2.7372  1.1130  0.5362
 2864TIP3   OH232786   2.413   0.814  20.435  0.1755 -0.2162  0.2514
 2864TIP3    H132787   2.407   0.902  20.400 -0.6918 -0.7913 -1.1118
 2864TIP3    H232788   2.323   0.783  20.439  0.3299 -0.5859  2.0099
 2865TIP3   OH232789   5.071   3.028  19.054 -0.3615  0.7659  0.2247
 2865TIP3    H132790   5.077   2.933  19.044 -0.7826  0.6611  0.8712
 2865TIP3    H232791   5.128   3.048  19.129 -0.8786  0.9113  0.5901
 2866TIP3   OH232792   3.553   0.724  18.158  0.1210  0.3340 -0.2980
 2866TIP3    H132793   3.504   0.777  18.095 -0.3143 -0.4268 -0.6072
 2866TIP3    H232794   3.485   0.680  18.209  0.4794  0.3330  0.1869
 2867TIP3   OH232795   1.889   5.352  17.595  0.0399  0.7712  0.3718
 2867TIP3    H132796   1.802   5.340  17.633 -0.6006  1.8419 -0.6713
 2867TIP3    H232797   1.881   5.430  17.540  1.6094  0.7735  0.0828
 2868TIP3   OH232798   1.919   0.717  19.541  0.2006  0.1530 -0.3098
 2868TIP3    H132799   1.845   0.777  19.555  0.3472  0.7628 -1.9337
 2868TIP3    H232800   1.920   0.702  19.447  1.6827 -0.4567 -0.2242
 2869TIP3   OH232801   2.232   5.921  19.306  0.1185 -0.0866 -0.5322
 2869TIP3    H132802   2.319   5.944  19.339  0.3302 -0.7740 -0.6036
 2869TIP3    H232803   2.214   5.987  19.239  1.7316 -1.4662 -2.4127
 2870TIP3   OH232804   6.705   5.228  17.578  0.6850 -0.0599 -0.2009
 2870TIP3    H132805   6.627   5.185  17.543  0.9526  1.7495 -3.3700
 2870TIP3    H232806   6.679   5.319  17.591  1.7844  0.1807  0.4775
 2871TIP3   OH232807   0.984   0.179  17.555 -0.9749 -0.0685 -0.0870
 2871TIP3    H132808   1.057   0.213  17.503  0.3492 -0.3762  1.4890
 2871TIP3    H232809   0.969   0.246  17.621  0.5447 -1.6486  2.0067
 2872TIP3   OH232810   5.571   3.462  19.247 -0.0675 -0.5234  0.2909
 2872TIP3    H132811   5.642   3.501  19.195  0.6114 -1.4164  0.5163
 2872TIP3    H232812   5.579   3.368  19.231 -0.1809 -0.7707  1.6025
 2873TIP3   OH232813   0.621   5.041  18.405 -0.2289  0.0746 -0.1316
 2873TIP3    H132814   0.643   4.949  18.392 -1.5473 -0.0652 -1.6840
 2873TIP3    H232815   0.611   5.076  18.317 -1.9625  1.1293  0.4244
 2874TIP3   OH232816   6.716   5.712  19.124  0.2523 -0.0092 -0.4991
 2874TIP3    H132817   6.681   5.624  19.108  0.4624 -0.3955  1.0492
 2874TIP3    H232818   6.698   5.759  19.043  0.6765 -1.6452 -1.6091
 2875TIP3   OH232819   2.289   2.295  20.127  0.0765  0.3536  0.2938
 2875TIP3    H132820   2.224   2.268  20.062  0.3404  0.3975  0.0132
 2875TIP3    H232821   2.337   2.366  20.086 -0.9544  1.6320  1.2271
 2876TIP3   OH232822   4.300   6.015  18.150 -0.2332  0.4357 -0.6404
 2876TIP3    H132823   4.276   6.043  18.238  1.1783 -1.2714  0.3410
 2876TIP3    H232824   4.218   5.982  18.112 -0.2179 -2.2844  1.4411
 2877TIP3   OH232825   0.101   3.991  20.115  0.4765 -0.1861 -0.4287
 2877TIP3    H132826   0.085   4.032  20.200  0.3195  1.0171 -1.0219
 2877TIP3    H232827   0.192   3.962  20.119  0.4744 -0.1218  0.1428
 2878TIP3   OH232828   4.913   0.870  19.241  0.2165  0.1740  0.2757
 2878TIP3    H132829   4.909   0.897  19.149  2.5406 -2.1418 -0.5980
 2878TIP3    H232830   4.833   0.907  19.279 -2.5929 -1.4771 -3.3836
 2879TIP3   OH232831   4.285   6.509  18.195 -0.6775  0.2581  0.3429
 2879TIP3    H132832   4.317   6.598  18.210 -0.0819 -0.0358  0.8646
 2879TIP3    H232833   4.270   6.474  18.283  1.8766 -1.1514  0.2857
 2880TIP3   OH232834   0.023   2.348  18.900  0.1487  0.1701  0.4300
 2880TIP3    H132835   0.058   2.416  18.957 -0.7594  0.3279  0.8107
 2880TIP3    H232836  -0.068   2.372  18.885 -0.1674 -0.9091  0.5056
 2881TIP3   OH232837   4.196   6.685  17.435 -0.6105  0.2072 -0.9331
 2881TIP3    H132838   4.260   6.641  17.379  2.0298  1.9462  0.5392
 2881TIP3    H232839   4.113   6.674  17.388  1.2610  0.9146 -4.8919
 2882TIP3   OH232840   3.581   3.452  17.948 -0.5347 -0.0343  0.0759
 2882TIP3    H132841   3.492   3.481  17.926  0.2283  0.4985 -2.6202
 2882TIP3    H232842   3.622   3.433  17.864  1.5468 -1.4681  1.3271
 2883TIP3   OH232843   0.140   0.893  17.997 -0.5609 -0.3566 -0.2337
 2883TIP3    H132844   0.208   0.925  18.056 -0.7373 -0.0997 -0.1652
 2883TIP3    H232845   0.160   0.932  17.912 -0.6675 -0.2165 -0.1950
 2884TIP3   OH232846   2.280   1.561  20.089  0.2665 -0.3500  0.1360
 2884TIP3    H132847   2.204   1.615  20.067 -1.0616 -1.8564  0.8208
 2884TIP3    H232848   2.328   1.613  20.153 -0.6435  0.2867  0.3209
 2885TIP3   OH232849   5.822   2.422  18.640  0.2682 -0.9640  0.0215
 2885TIP3    H132850   5.757   2.433  18.710  1.3204 -1.0903  1.0523
 2885TIP3    H232851   5.904   2.454  18.679  0.5727  0.5684 -1.7215
 2886TIP3   OH232852   5.426   2.245  19.699 -0.1206 -0.0046  0.6793
 2886TIP3    H132853   5.438   2.212  19.610  1.0449 -0.0252  0.8344
 2886TIP3    H232854   5.410   2.339  19.689  4.1383  0.9145  0.5823
 2887TIP3   OH232855   4.423   3.889  17.552  0.2062 -0.5294  0.4779
 2887TIP3    H132856   4.431   3.875  17.646  1.3527 -2.2145  0.1670
 2887TIP3    H232857   4.354   3.829  17.524  1.9135 -2.2981 -0.1585
 2888TIP3   OH232858   3.196   2.037  18.243  0.0771 -0.0411 -0.4113
 2888TIP3    H132859   3.176   2.091  18.319 -0.1699  0.7520 -1.0275
 2888TIP3    H232860   3.279   1.995  18.264 -0.5177 -0.6856  0.7414
 2889TIP3   OH232861   6.213   1.092  20.066  0.1396 -0.0329 -0.1768
 2889TIP3    H132862   6.134   1.142  20.084  0.7380  0.9222 -0.1064
 2889TIP3    H232863   6.191   1.002  20.089 -0.6989  0.3339  0.5039
 2890TIP3   OH232864   2.741   4.798  18.604  0.1799  0.3293 -0.4678
 2890TIP3    H132865   2.720   4.727  18.543  0.4929 -0.5610  0.4390
 2890TIP3    H232866   2.730   4.759  18.690  0.6428  1.3079  0.0402
 2891TIP3   OH232867   1.626   5.695  17.934 -0.2118 -0.0576 -0.1508
 2891TIP3    H132868   1.622   5.785  17.966  4.1893  0.6351 -0.9741
 2891TIP3    H232869   1.622   5.704  17.839  1.2286 -0.5906 -0.2759
 2892TIP3   OH232870   1.179   2.119  19.070 -0.1640  0.0485 -0.0718
 2892TIP3    H132871   1.233   2.119  18.991  0.7963 -0.7513  0.5630
 2892TIP3    H232872   1.115   2.049  19.055  1.3271 -1.5549  0.6799
 2893TIP3   OH232873   1.530   1.848  17.821  0.4443  0.1761  0.7376
 2893TIP3    H132874   1.540   1.782  17.752  0.6444 -1.2860  2.1049
 2893TIP3    H232875   1.618   1.883  17.833  0.0431  2.0761 -1.2245
 2894TIP3   OH232876   3.806   1.402  18.060 -0.2150  0.0142  0.3170
 2894TIP3    H132877   3.782   1.487  18.097 -2.5687  0.8476 -2.7241
 2894TIP3    H232878   3.773   1.338  18.123  1.4424  1.2474  2.5731
 2895TIP3   OH232879   2.885   6.709  17.221  0.0489  0.3716 -0.0225
 2895TIP3    H132880   2.917   6.798  17.206 -1.6930  1.2270  0.9778
 2895TIP3    H232881   2.802   6.705  17.172 -0.2925 -0.4053  0.5954
 2896TIP3   OH232882   1.090   3.450  20.118 -0.0307 -0.2494 -0.1424
 2896TIP3    H132883   1.139   3.369  20.131 -0.8498 -0.8387 -0.6319
 2896TIP3    H232884   1.088   3.462  20.023  1.0907  0.9882 -0.0290
 2897TIP3   OH232885   0.512   5.910  19.879  0.1330  0.0771 -0.0199
 2897TIP3    H132886   0.473   5.997  19.880  1.1088  0.6902 -3.1547
 2897TIP3    H232887   0.449   5.856  19.829  1.5145  0.1861 -1.9876
 2898TIP3   OH232888   0.761   0.918  18.478 -0.6130 -1.1158  0.0584
 2898TIP3    H132889   0.781   0.977  18.405  0.4655 -0.3668  0.9225
 2898TIP3    H232890   0.843   0.871  18.494 -1.0105 -1.7062  0.4124
 2899TIP3   OH232891   2.662   0.325  18.052  0.0396  0.5441 -0.0885
 2899TIP3    H132892   2.638   0.329  17.959  1.7849  0.3522 -0.5755
 2899TIP3    H232893   2.640   0.236  18.078 -0.7281  0.6842 -0.2234
 2900TIP3   OH232894   6.692   2.999  19.060 -0.2146  0.5686 -0.6150
 2900TIP3    H132895   6.686   2.909  19.028 -1.4083 -0.7991  2.9058
 2900TIP3    H232896   6.710   2.989  19.154  3.0163  4.1373 -0.6558
 2901TIP3   OH232897   0.241   5.556  19.519 -0.3510 -0.0696 -0.0756
 2901TIP3    H132898   0.202   5.550  19.432 -2.5141  2.6252  0.5943
 2901TIP3    H232899   0.332   5.582  19.503 -0.2780 -1.0585 -1.4974
 2902TIP3   OH232900   6.524   4.409  18.769 -0.4025 -0.4549  0.5303
 2902TIP3    H132901   6.459   4.479  18.777 -0.4405 -0.5236  0.8554
 2902TIP3    H232902   6.491   4.340  18.827 -0.6820 -0.9890 -0.2375
 2903TIP3   OH232903   6.414   0.339  17.168  0.4509  0.5464 -0.6232
 2903TIP3    H132904   6.421   0.257  17.121 -1.5638 -0.2212  0.2847
 2903TIP3    H232905   6.491   0.390  17.141  1.0485 -1.1040 -2.1852
 2904TIP3   OH232906   2.865   5.993  19.894 -0.0779 -0.3587 -0.3735
 2904TIP3    H132907   2.816   5.914  19.918 -2.1523  1.3325  1.4538
 2904TIP3    H232908   2.913   6.016  19.973 -0.8941  1.1218 -0.2708
 2905TIP3   OH232909   0.675   0.365  17.921  0.2236  0.4602  0.1321
 2905TIP3    H132910   0.731   0.439  17.942  0.6237  0.8637 -2.0745
 2905TIP3    H232911   0.631   0.391  17.840 -2.8095 -0.0609  1.5051
 2906TIP3   OH232912   2.933   1.152  17.564 -0.1027  0.4072 -0.3670
 2906TIP3    H132913   3.020   1.159  17.604 -0.3059  0.6358  0.0449
 2906TIP3    H232914   2.950   1.148  17.470  0.2886  1.7105 -0.3627
 2907TIP3   OH232915   3.517   4.970  17.447 -0.6746  0.8440 -0.4880
 2907TIP3    H132916   3.495   5.035  17.515  0.2456 -1.2552  1.9911
 2907TIP3    H232917   3.434   4.926  17.429 -1.1539  2.1530 -1.6415
 2908TIP3   OH232918   2.801   5.898  17.812 -0.3333  0.0667 -0.6844
 2908TIP3    H132919   2.724   5.844  17.829 -0.0465  0.2945  1.6147
 2908TIP3    H232920   2.770   5.988  17.822  0.2556  0.1544  0.5094
 2909TIP3   OH232921   2.850   2.493  18.717  0.0840  0.4889  0.0964
 2909TIP3    H132922   2.884   2.525  18.800  0.9114 -1.4834  0.5886
 2909TIP3    H232923   2.870   2.399  18.717 -1.7150  0.0276 -1.4513
 2910TIP3   OH232924   1.326   1.477  18.009  0.3068 -0.5870 -0.7209
 2910TIP3    H132925   1.334   1.553  18.066  0.0094 -0.7614 -0.4475
 2910TIP3    H232926   1.385   1.412  18.046  1.2132 -0.1908 -1.4463
 2911TIP3   OH232927   2.850   1.113  19.569 -0.0861  0.1152  0.8836
 2911TIP3    H132928   2.869   1.206  19.560 -1.0077  0.1636 -1.1358
 2911TIP3    H232929   2.935   1.072  19.579  0.3660  1.1340  1.3744
 2912TIP3   OH232930   2.444   4.411  18.999 -0.3925  0.4176  0.5475
 2912TIP3    H132931   2.445   4.496  18.956  2.0022 -0.0271 -0.4757
 2912TIP3    H232932   2.383   4.358  18.948  1.9024  0.0940 -2.1443
 2913TIP3   OH232933   2.193   2.980  17.302 -0.2267 -0.0840 -0.4723
 2913TIP3    H132934   2.166   3.010  17.215 -2.2246  0.2945  0.2226
 2913TIP3    H232935   2.194   2.885  17.296 -1.6014 -0.1045 -0.5897
 2914TIP3   OH232936   6.256   0.983  17.788  0.9011 -0.0932 -0.2017
 2914TIP3    H132937   6.212   0.899  17.790  1.5145 -0.4086  0.9782
 2914TIP3    H232938   6.277   0.997  17.695  0.9653 -1.3336 -0.3908
 2915TIP3   OH232939   1.251   1.672  19.955 -0.3841 -0.1676  0.2291
 2915TIP3    H132940   1.343   1.699  19.961 -0.6614  0.9068 -0.1378
 2915TIP3    H232941   1.204   1.739  20.005 -1.0102 -0.4543  0.0273
 2916TIP3   OH232942   6.298   2.381  19.067  0.2094 -0.4597  0.0702
 2916TIP3    H132943   6.352   2.431  19.128  4.3850 -0.8402 -2.8413
 2916TIP3    H232944   6.324   2.290  19.082 -1.4237 -0.9548  0.0672
 2917TIP3   OH232945   2.441   4.089  20.143 -0.4709 -0.0034 -0.2956
 2917TIP3    H132946   2.462   4.098  20.236  2.1349 -0.4026 -0.7851
 2917TIP3    H232947   2.383   4.163  20.124  0.1723  0.9667  1.3168
 2918TIP3   OH232948   4.155   2.461  17.955 -0.7178  0.5654 -0.0003
 2918TIP3    H132949   4.176   2.552  17.933 -1.5409  0.8105  0.1632
 2918TIP3    H232950   4.224   2.434  18.016 -0.0920  0.8550 -0.5693
 2919TIP3   OH232951   2.816   3.804  20.044 -0.0672  0.0154  0.1938
 2919TIP3    H132952   2.748   3.815  19.977 -1.6220  2.3161  1.9582
 2919TIP3    H232953   2.833   3.710  20.047 -0.4864 -0.2485 -2.8299
 2920TIP3   OH232954   4.542   0.289  18.723  0.0895  0.2340  0.2125
 2920TIP3    H132955   4.459   0.245  18.706 -0.5095  0.0724  3.0757
 2920TIP3    H232956   4.604   0.219  18.743  0.2672  0.4708  0.5118
 2921TIP3   OH232957   4.719   0.721  19.459 -0.6230  0.1606 -0.3530
 2921TIP3    H132958   4.689   0.636  19.427  0.1030  0.4450 -1.8640
 2921TIP3    H232959   4.803   0.702  19.503 -0.9225 -0.0227  0.1495
 2922TIP3   OH232960   5.470   3.590  19.808  0.0317  0.4688 -0.0562
 2922TIP3    H132961   5.556   3.616  19.841  0.8357 -1.6769 -0.3038
 2922TIP3    H232962   5.424   3.673  19.794  1.7172  1.6419  0.9346
 2923TIP3   OH232963   0.064   1.110  18.847  0.2552  0.7741 -0.0160
 2923TIP3    H132964   0.058   1.019  18.818 -0.2190  0.6148  0.5660
 2923TIP3    H232965   0.132   1.110  18.914  1.8170  1.2605 -1.5142
 2924TIP3   OH232966   0.632   6.301  19.700  0.1509 -0.2579 -0.5008
 2924TIP3    H132967   0.555   6.339  19.659 -1.1898 -0.1873  1.9277
 2924TIP3    H232968   0.703   6.363  19.680 -0.7951  0.6159 -1.2320
 2925TIP3   OH232969   2.794   2.624  19.290 -0.3644  0.2672 -0.0873
 2925TIP3    H132970   2.746   2.547  19.261 -0.0514 -0.1768  0.5556
 2925TIP3    H232971   2.826   2.601  19.377 -0.3278  1.1502  0.1428
 2926TIP3   OH232972   2.212   3.306  17.800  1.0794  0.1530 -0.2166
 2926TIP3    H132973   2.176   3.285  17.886  0.0993 -0.0447 -0.6591
 2926TIP3    H232974   2.188   3.398  17.786  1.7909  0.3765 -0.0211
 2927TIP3   OH232975   4.609   5.664  17.870  0.5850  0.2764 -0.1407
 2927TIP3    H132976   4.548   5.734  17.850 -0.5980 -1.0534 -1.4205
 2927TIP3    H232977   4.617   5.614  17.789 -0.3014 -2.3087  1.2119
 2928TIP3   OH232978   3.915   6.304  18.364  0.0423 -0.4159  0.0600
 2928TIP3    H132979   3.934   6.369  18.297 -0.7133  1.2507  1.3910
 2928TIP3    H232980   3.910   6.221  18.317  1.7160  0.3514 -1.5960
 2929TIP3   OH232981   6.529   5.219  17.913 -0.1522 -0.0648 -0.4518
 2929TIP3    H132982   6.540   5.175  17.829 -3.4918  1.7022 -2.0300
 2929TIP3    H232983   6.452   5.177  17.952 -2.0601  2.6092 -0.9962
 2930TIP3   OH232984   2.327   5.437  19.517 -0.0191 -0.0438 -0.4238
 2930TIP3    H132985   2.350   5.515  19.568  0.5150 -0.8060  0.5377
 2930TIP3    H232986   2.236   5.452  19.491  0.3143  1.2416 -0.9193
 2931TIP3   OH232987   4.509   1.580  19.708  0.2052 -0.3994 -0.0177
 2931TIP3    H132988   4.466   1.664  19.693  4.4742  2.1260  0.2389
 2931TIP3    H232989   4.497   1.564  19.802  0.1021  0.4367  0.1241
 2932TIP3   OH232990   0.097   2.258  16.944 -0.0115 -0.1582  0.0654
 2932TIP3    H132991   0.060   2.191  16.886 -0.2535 -1.5453  1.7409
 2932TIP3    H232992   0.052   2.339  16.918  1.3196 -0.2564 -2.9841
 2933TIP3   OH232993   1.924   6.356  18.309 -0.2707  0.1669 -0.2210
 2933TIP3    H132994   1.865   6.328  18.239  0.3537 -0.0027 -0.6837
 2933TIP3    H232995   1.965   6.435  18.275  0.0524  0.0707 -0.0547
 2934TIP3   OH232996   6.526   6.278  17.296  0.3227 -0.0664 -0.5739
 2934TIP3    H132997   6.568   6.330  17.228  1.0021 -0.4345 -0.4368
 2934TIP3    H232998   6.489   6.343  17.356  1.4144  0.2698 -0.2541
 2935TIP3   OH232999   3.047   2.481  18.308  0.1404  0.5665  0.3885
 2935TIP3    H133000   3.041   2.449  18.218 -0.3129 -0.2589  0.7071
 2935TIP3    H233001   3.130   2.529  18.311  0.7606 -0.4389 -0.1459
 2936TIP3   OH233002   4.350   6.021  19.344 -0.4045 -0.3065  0.0184
 2936TIP3    H133003   4.306   6.070  19.274  1.2441 -0.8697 -1.4867
 2936TIP3    H233004   4.315   6.059  19.424 -1.1688  1.4954 -1.0899
 2937TIP3   OH233005   4.355   4.235  17.531  0.1150 -0.1350  0.1019
 2937TIP3    H133006   4.450   4.227  17.526  0.0012 -1.1154 -0.6749
 2937TIP3    H233007   4.324   4.217  17.442 -0.8599 -0.8319  0.5584
 2938TIP3   OH233008   0.356   4.667  17.272  0.4053 -0.2475  0.2481
 2938TIP3    H133009   0.430   4.610  17.251  0.8052  0.2492  0.3005
 2938TIP3    H233010   0.310   4.622  17.343 -0.6649 -1.6959 -1.2712
 2939TIP3   OH233011   3.162   5.766  20.122  0.1094 -0.2353 -0.0520
 2939TIP3    H133012   3.234   5.756  20.059  1.0504  0.8470  0.8129
 2939TIP3    H233013   3.185   5.705  20.193  0.4347  0.4497  0.4407
 2940TIP3   OH233014   4.380   4.894  20.462  0.8795  0.5925  0.2566
 2940TIP3    H133015   4.289   4.877  20.489  1.0632 -0.1814  0.4337
 2940TIP3    H233016   4.386   4.852  20.376  0.4453  2.5837 -0.7882
 2941TIP3   OH233017   5.955   5.953  17.220 -0.2165  0.3671 -0.0892
 2941TIP3    H133018   6.020   6.012  17.257  1.3168  0.1116 -2.2088
 2941TIP3    H233019   6.006   5.890  17.168 -2.1867  1.4106 -3.5915
 2942TIP3   OH233020   5.240   5.674  19.041 -0.1927  0.0708  0.2025
 2942TIP3    H133021   5.246   5.624  19.123  0.9982 -1.2938 -0.6859
 2942TIP3    H233022   5.265   5.763  19.066 -0.9715 -0.0517  1.5377
 2943TIP3   OH233023   4.343   0.159  19.866 -0.0215 -0.4715 -0.0056
 2943TIP3    H133024   4.412   0.222  19.845  0.7228 -1.5899 -1.1152
 2943TIP3    H233025   4.369   0.123  19.951 -0.1476  0.3061  0.3647
 2944TIP3   OH233026   5.584   5.212  18.079 -0.1186  0.4863  0.1780
 2944TIP3    H133027   5.586   5.301  18.045  4.0194  0.1600 -0.9206
 2944TIP3    H233028   5.641   5.214  18.156  0.6500 -1.2997 -0.2964
 2945TIP3   OH233029   4.003   6.475  19.920 -0.4677  0.6849  0.0436
 2945TIP3    H133030   4.031   6.566  19.910  2.3625 -0.0532  0.3590
 2945TIP3    H233031   4.071   6.435  19.974 -2.3858 -1.3117  1.1528
 2946TIP3   OH233032   3.405   2.068  18.482  0.1233  0.0563 -0.6963
 2946TIP3    H133033   3.386   1.986  18.528 -1.1307  0.4770 -0.4060
 2946TIP3    H233034   3.329   2.123  18.501  1.2253  1.5065 -0.3777
 2947TIP3   OH233035   3.076   4.054  19.963 -0.1704  0.0297  0.2021
 2947TIP3    H133036   3.080   3.974  19.911 -2.0319 -0.9929  1.5465
 2947TIP3    H233037   3.148   4.108  19.929  1.6370 -2.4803 -0.2448
 2948TIP3   OH233038   1.560   0.805  17.575  0.5201  0.1682  0.1655
 2948TIP3    H133039   1.520   0.796  17.488  0.3438  1.5376  0.0755
 2948TIP3    H233040   1.593   0.718  17.596 -1.3389 -0.7132 -0.3459
 2949TIP3   OH233041   1.719   1.367  17.800  0.2261  0.1155  0.2932
 2949TIP3    H133042   1.633   1.333  17.777  0.3486 -0.3171  0.4688
 2949TIP3    H233043   1.702   1.438  17.862 -0.1155  1.3192 -1.1128
 2950TIP3   OH233044   5.651   1.513  18.823  0.2466 -0.0917 -0.1362
 2950TIP3    H133045   5.583   1.551  18.879 -1.6559 -3.0072 -0.2122
 2950TIP3    H233046   5.613   1.514  18.735  1.2581  0.2778 -0.5757
 2951TIP3   OH233047   6.139   2.894  19.018 -0.1540 -0.2819  0.1365
 2951TIP3    H133048   6.129   2.823  18.955  0.3390 -0.9587  0.7887
 2951TIP3    H233049   6.052   2.932  19.027 -0.3473 -0.5710 -0.4839
 2952TIP3   OH233050   0.444   0.113  17.770  0.3837 -0.2127 -0.4398
 2952TIP3    H133051   0.534   0.081  17.769  0.4706 -0.0078  0.2513
 2952TIP3    H233052   0.424   0.126  17.863  0.0547  0.8988 -0.6493
 2953TIP3   OH233053   4.905   3.312  19.593  0.1108  0.2539 -0.1778
 2953TIP3    H133054   4.945   3.363  19.663 -0.4317  1.7080 -0.8894
 2953TIP3    H233055   4.856   3.244  19.639  0.9616  0.2608  0.7931
 2954TIP3   OH233056   0.642   0.088  16.635 -0.0475  0.6033 -0.2872
 2954TIP3    H133057   0.704   0.062  16.704 -0.5528  0.8045  0.2537
 2954TIP3    H233058   0.661   0.029  16.562 -0.3270 -0.4398  0.4667
 2955TIP3   OH233059   4.635   5.519  19.407 -0.4186  0.7996 -0.6024
 2955TIP3    H133060   4.634   5.455  19.336 -0.6758  0.3180 -0.1780
 2955TIP3    H233061   4.721   5.560  19.402  0.3217 -0.6288  0.0245
 2956TIP3   OH233062   1.810   4.136  19.626  0.6105  0.4885 -0.0021
 2956TIP3    H133063   1.859   4.141  19.708 -0.7740 -0.7370  0.9475
 2956TIP3    H233064   1.728   4.183  19.644  0.2740  0.1689 -0.6710
 2957TIP3   OH233065   3.914   4.651  17.693 -0.0287 -0.1316  0.2864
 2957TIP3    H133066   3.843   4.696  17.738 -0.8459 -1.2296  0.1301
 2957TIP3    H233067   3.908   4.681  17.602 -0.5770 -0.5552  0.1782
 2958TIP3   OH233068   1.551   0.516  18.939 -0.3948 -0.4547  0.2810
 2958TIP3    H133069   1.524   0.498  18.849 -0.4605 -0.0725  0.2244
 2958TIP3    H233070   1.520   0.441  18.989 -1.9795  0.1823  0.3044
 2959TIP3   OH233071   0.884   5.414  19.935  0.3664  0.0490 -0.2799
 2959TIP3    H133072   0.835   5.353  19.879 -1.4602  0.5262  0.7212
 2959TIP3    H233073   0.863   5.386  20.024 -0.0769  1.7820  0.1904
 2960TIP3   OH233074   5.144   2.449  19.203 -0.9081 -0.3190 -0.0228
 2960TIP3    H133075   5.112   2.448  19.293 -1.2851 -1.8693 -0.1466
 2960TIP3    H233076   5.160   2.357  19.182 -1.0107 -0.0060 -1.6089
 2961TIP3   OH233077   5.733   6.536  17.913 -0.1630 -0.5796 -0.5460
 2961TIP3    H133078   5.815   6.543  17.863  0.3999 -1.5634  0.2025
 2961TIP3    H233079   5.666   6.570  17.854  1.2036  3.8982  0.0922
 2962TIP3   OH233080   3.855   6.030  17.308  0.1292 -0.0484  0.1219
 2962TIP3    H133081   3.837   5.989  17.393 -1.6522  2.1887  0.9585
 2962TIP3    H233082   3.883   6.119  17.331  0.6168  0.2797 -1.6322
 2963TIP3   OH233083   0.517   5.912  19.360 -0.2225  0.2626  0.2086
 2963TIP3    H133084   0.434   5.865  19.351 -0.7757  1.2220  0.1379
 2963TIP3    H233085   0.522   5.968  19.282  0.6221  0.0074  0.0807
 2964TIP3   OH233086   4.136   6.299  18.533  0.4784  0.0323 -0.2061
 2964TIP3    H133087   4.063   6.284  18.473 -1.5995  2.7196  1.4177
 2964TIP3    H233088   4.154   6.393  18.526  2.0664 -0.1033  1.3522
 2965TIP3   OH233089   5.379   6.451  18.835 -0.0944  0.1785  0.6330
 2965TIP3    H133090   5.382   6.456  18.739 -0.6271  0.9172  0.6426
 2965TIP3    H233091   5.470   6.462  18.862  0.2379 -1.2449  0.1827
 2966TIP3   OH233092   0.349   5.383  19.982  0.4071 -0.2705 -0.1589
 2966TIP3    H133093   0.260   5.413  19.962  0.8305  1.4680  0.3874
 2966TIP3    H233094   0.343   5.348  20.071 -0.0365 -1.6036 -0.6971
 2967TIP3   OH233095   2.685   4.123  19.813 -0.1399  0.4844  0.4327
 2967TIP3    H133096   2.600   4.095  19.848 -0.0399  0.0841  0.3561
 2967TIP3    H233097   2.729   4.164  19.888  0.6633 -1.6706  1.2017
 2968TIP3   OH233098   3.329   3.554  19.768 -0.5406 -0.5700  0.1828
 2968TIP3    H133099   3.354   3.642  19.797 -1.0126  0.3844 -2.0588
 2968TIP3    H233100   3.411   3.512  19.744 -0.3611 -0.5768  0.7919
 2969TIP3   OH233101   6.392   0.409  20.002 -0.1287  0.4374  0.1429
 2969TIP3    H133102   6.342   0.423  19.922  1.0796  4.2623 -0.1487
 2969TIP3    H233103   6.481   0.389  19.972 -0.1889 -0.6130  0.6082
 2970TIP3   OH233104   5.568   4.878  19.484  0.4335 -0.3752 -0.6948
 2970TIP3    H133105   5.473   4.878  19.473  0.3735  0.9487 -0.3135
 2970TIP3    H233106   5.582   4.836  19.569  0.1885 -0.4353 -0.6838
 2971TIP3   OH233107   4.914   1.591  19.026 -0.4912  0.2097 -0.2547
 2971TIP3    H133108   4.842   1.541  19.065 -0.0929 -1.4368 -1.5222
 2971TIP3    H233109   4.889   1.602  18.934  0.4206  0.4807 -0.4828
 2972TIP3   OH233110   2.470   1.292  20.150 -0.6428 -0.2180 -0.2679
 2972TIP3    H133111   2.427   1.355  20.092  1.8065  0.5063 -1.4613
 2972TIP3    H233112   2.509   1.228  20.091 -1.4312 -1.7989  0.8516
 2973TIP3   OH233113   0.968   5.459  19.159 -0.4882  0.1600  0.2506
 2973TIP3    H133114   1.025   5.474  19.235 -2.1748 -1.1625  1.8839
 2973TIP3    H233115   0.915   5.539  19.153 -0.8381 -0.0048  0.9591
 2974TIP3   OH233116   2.161   3.210  18.057 -0.3728  0.1262  0.7287
 2974TIP3    H133117   2.141   3.117  18.046 -0.8783  0.3106 -0.0186
 2974TIP3    H233118   2.256   3.213  18.071 -0.0240 -0.3803 -1.1842
 2975TIP3   OH233119   6.065   1.251  17.863 -0.2494 -0.4050  0.6739
 2975TIP3    H133120   6.105   1.170  17.894  0.9682  0.2086  0.7677
 2975TIP3    H233121   6.041   1.233  17.772 -0.3409 -0.9901  0.8108
 2976TIP3   OH233122   0.545   1.770  19.260  0.5428  0.2199 -0.4538
 2976TIP3    H133123   0.554   1.815  19.344 -1.7374 -0.5381  0.2550
 2976TIP3    H233124   0.592   1.687  19.272  1.1564  0.5808 -0.3227
 2977TIP3   OH233125   0.083   5.048  18.243 -0.1341 -0.4668  0.0015
 2977TIP3    H133126   0.081   5.021  18.335  1.8200 -0.0428  0.2040
 2977TIP3    H233127   0.175   5.048  18.220 -0.3625  2.0739 -1.1763
 2978TIP3   OH233128   4.634   4.231  17.561  0.4026  0.2814 -0.0322
 2978TIP3    H133129   4.657   4.322  17.578  0.2371  0.6893 -1.7289
 2978TIP3    H233130   4.719   4.187  17.551  0.5628  0.9296 -2.1979
 2979TIP3   OH233131   2.502   5.327  18.103 -0.0197 -0.1014 -0.2342
 2979TIP3    H133132   2.585   5.372  18.090 -0.6158  0.9173 -0.5884
 2979TIP3    H233133   2.450   5.385  18.158 -1.1697  0.1389 -1.5269
 2980TIP3   OH233134   3.071   1.563  18.904 -0.1496 -0.2417  0.1726
 2980TIP3    H133135   3.146   1.538  18.849 -1.9433 -1.6822 -1.8178
 2980TIP3    H233136   3.006   1.496  18.886 -2.3534  1.5800  0.9246
 2981TIP3   OH233137   4.475   5.908  17.815 -0.3628  0.2596  0.1271
 2981TIP3    H133138   4.544   5.944  17.759  0.9077  1.9479  2.5709
 2981TIP3    H233139   4.401   5.966  17.801  0.4062  1.5420  1.1466
 2982TIP3   OH233140   6.583   5.923  18.325  0.9068  0.0474  0.2901
 2982TIP3    H133141   6.597   5.852  18.261  0.8571  1.0281 -0.8444
 2982TIP3    H233142   6.652   5.986  18.306  1.6840 -0.2056  2.0790
 2983TIP3   OH233143   5.826   3.620  19.627  0.1182 -0.3433  0.3965
 2983TIP3    H133144   5.776   3.583  19.554  0.0141  1.1957 -0.3683
 2983TIP3    H233145   5.861   3.545  19.674  1.5003 -1.3967 -2.1567
 2984TIP3   OH233146   3.457   2.993  19.313 -0.4011  0.7692  0.6021
 2984TIP3    H133147   3.506   2.951  19.243  0.3968  0.8125  1.1170
 2984TIP3    H233148   3.458   2.928  19.384 -2.5619  0.0595  0.0661
 2985TIP3   OH233149   5.156   1.098  19.326 -0.1582 -0.3465 -0.3394
 2985TIP3    H133150   5.099   1.028  19.357 -2.7025  1.9816  0.6366
 2985TIP3    H233151   5.134   1.107  19.233  0.8314 -1.3689 -0.6930
 2986TIP3   OH233152   6.653   6.478  18.519 -0.2554 -0.4152 -0.2984
 2986TIP3    H133153   6.708   6.483  18.441  0.8458 -1.4688  0.4000
 2986TIP3    H233154   6.587   6.412  18.497  1.2324 -2.1843  0.3473
 2987TIP3   OH233155   5.423   2.902  17.974 -0.1622  0.2852 -0.6287
 2987TIP3    H133156   5.477   2.971  17.936  1.9297 -0.4610  0.7996
 2987TIP3    H233157   5.346   2.947  18.008  0.5846  1.7496 -0.7906
 2988TIP3   OH233158   2.641   6.075  20.184 -0.3491  0.3294 -0.1265
 2988TIP3    H133159   2.653   6.148  20.124 -0.8278  0.7811  0.3110
 2988TIP3    H233160   2.729   6.043  20.201 -0.0888  1.1188  0.0488
 2989TIP3   OH233161   5.147   0.263  18.329  0.3096  0.1924  0.4578
 2989TIP3    H133162   5.090   0.215  18.269  0.8920 -1.3384  1.0804
 2989TIP3    H233163   5.104   0.347  18.341 -0.8660 -0.2460 -0.4994
 2990TIP3   OH233164   2.871   3.915  19.553 -0.0699  0.3285  0.3043
 2990TIP3    H133165   2.895   4.008  19.561 -0.0886  0.3502  0.1034
 2990TIP3    H233166   2.911   3.887  19.471  0.5668 -0.0333  0.7263
 2991TIP3   OH233167   1.691   0.095  18.276  0.4463  0.1588  0.2993
 2991TIP3    H133168   1.685   0.036  18.201  0.3152  0.5019  0.0401
 2991TIP3    H233169   1.712   0.037  18.350  0.6050 -0.1755 -0.0028
 2992TIP3   OH233170   2.101   0.618  19.049 -0.0439  0.0717 -0.6380
 2992TIP3    H133171   2.178   0.585  19.003  1.0401  4.0172 -2.0037
 2992TIP3    H233172   2.054   0.670  18.984 -1.4302  1.4111  1.3320
 2993TIP3   OH233173   5.030   1.499  16.939  0.0357 -0.2122 -0.5880
 2993TIP3    H133174   5.028   1.572  16.878  0.6095  0.1493 -0.1786
 2993TIP3    H233175   5.042   1.421  16.884  1.2598  0.1733 -0.8958
 2994TIP3   OH233176   5.422   4.523  19.458  0.1406  0.3052  0.3137
 2994TIP3    H133177   5.376   4.505  19.540  1.0171  0.5123  0.8723
 2994TIP3    H233178   5.395   4.612  19.434 -1.0804 -0.2150 -0.2989
 2995TIP3   OH233179   0.722   6.399  17.210 -0.5024 -0.3731 -0.5409
 2995TIP3    H133180   0.697   6.440  17.293  1.5159 -1.5613  0.7440
 2995TIP3    H233181   0.700   6.465  17.144  0.3093  1.7883  1.1923
 2996TIP3   OH233182   6.186   1.912  17.508 -0.0013 -0.3310 -0.0953
 2996TIP3    H133183   6.274   1.926  17.544 -0.8553  0.5736  1.7746
 2996TIP3    H233184   6.166   1.821  17.528  1.2735 -1.2122 -2.4279
 2997TIP3   OH233185   4.770   4.665  20.225 -0.5652  0.4497 -0.1826
 2997TIP3    H133186   4.686   4.682  20.267  0.9075  1.1589  2.7144
 2997TIP3    H233187   4.791   4.747  20.180 -1.6118  0.0793 -1.4237
 2998TIP3   OH233188   5.063   1.503  17.241 -0.3426 -0.4534  0.3229
 2998TIP3    H133189   5.080   1.481  17.149 -0.1673  0.6382  0.0824
 2998TIP3    H233190   5.145   1.543  17.271 -0.7726  0.2092  0.6292
 2999TIP3   OH233191   2.653   5.168  17.031 -0.7296 -0.1953 -0.2412
 2999TIP3    H133192   2.611   5.097  16.983 -1.1609 -0.2970  0.2787
 2999TIP3    H233193   2.599   5.245  17.015 -1.0992 -0.3166  0.3898
 3000TIP3   OH233194   2.889   5.916  19.620 -0.0468 -0.3228  0.2032
 3000TIP3    H133195   2.869   5.956  19.705  0.0066  0.4020 -0.1186
 3000TIP3    H233196   2.829   5.842  19.614 -1.7839  1.0262 -0.1572
 3001TIP3   OH233197   2.617   3.419  19.562  0.3371  0.4725 -0.5358
 3001TIP3    H133198   2.610   3.339  19.511  0.0007  0.3553 -0.3108
 3001TIP3    H233199   2.594   3.489  19.501  0.2367  0.3621 -0.6231
 3002TIP3   OH233200   4.858   3.463  19.001 -0.2877  0.1016  0.0499
 3002TIP3    H133201   4.796   3.401  19.041 -1.4557  0.2320 -1.4883
 3002TIP3    H233202   4.868   3.532  19.067 -0.5489 -0.6973  0.9572
 3003TIP3   OH233203   2.483   5.077  19.693 -0.5755  0.4603  0.1389
 3003TIP3    H133204   2.578   5.090  19.691 -0.6515  1.0827  0.1887
 3003TIP3    H233205   2.451   5.121  19.614 -0.7970  0.0265 -0.0150
 3004TIP3   OH233206   3.763   6.439  19.177 -0.4602  0.7086  0.2474
 3004TIP3    H133207   3.771   6.364  19.235 -0.1065  0.6454  0.1187
 3004TIP3    H233208   3.705   6.500  19.223  0.4580  1.0045  1.0188
 3005TIP3   OH233209   3.225   3.928  19.185  0.7337  0.1226  0.0825
 3005TIP3    H133210   3.194   3.853  19.236 -0.1217  0.5227  0.1736
 3005TIP3    H233211   3.176   3.923  19.104  0.9444  0.3786 -0.0603
 3006TIP3   OH233212   0.387   2.152  18.373  0.6117  0.4722  0.3801
 3006TIP3    H133213   0.358   2.213  18.440 -1.6481  0.3236 -0.3886
 3006TIP3    H233214   0.408   2.072  18.421  0.2661  0.7707  1.0472
 3007TIP3   OH233215   0.842   5.248  16.933 -0.1699  0.4793  0.3154
 3007TIP3    H133216   0.844   5.343  16.922  2.3289  0.9841  3.5285
 3007TIP3    H233217   0.913   5.216  16.877  1.2429  1.0015  1.7219
 3008TIP3   OH233218   3.984   1.787  19.833 -0.0892 -0.1283  0.2518
 3008TIP3    H133219   4.035   1.868  19.830  0.2521 -0.3299  0.5412
 3008TIP3    H233220   3.903   1.812  19.878 -0.0957  0.1115  0.1105
 3009TIP3   OH233221   4.358   5.459  16.263  0.4503  0.5169  0.2243
 3009TIP3    H133222   4.426   5.411  16.310 -0.4414 -0.2718  0.7453
 3009TIP3    H233223   4.381   5.551  16.275  0.5685  0.3113  1.7213
 3010TIP3   OH233224   3.322   4.260  17.310  0.1092  0.5055 -0.0165
 3010TIP3    H133225   3.254   4.316  17.273 -0.1155  0.7032  0.6641
 3010TIP3    H233226   3.333   4.189  17.247 -3.4843 -1.7183  1.5583
 3011TIP3   OH233227   0.549   5.345  17.336  0.2645  0.2635  0.0998
 3011TIP3    H133228   0.641   5.371  17.335  1.4232 -3.3425  0.5751
 3011TIP3    H233229   0.537   5.296  17.255 -0.6045 -1.2012  1.0707
 3012TIP3   OH233230   4.253   6.029  19.971 -0.3862 -0.0574 -0.5948
 3012TIP3    H133231   4.194   6.047  20.044 -0.6563 -0.5557 -0.6894
 3012TIP3    H233232   4.238   5.937  19.950  1.9046 -0.8005  0.7110
 3013TIP3   OH233233   5.877   3.955  19.807 -0.2228  0.3593 -0.5531
 3013TIP3    H133234   5.788   3.927  19.784 -0.8746  1.5515  0.4101
 3013TIP3    H233235   5.895   3.915  19.892 -0.4556  1.3376 -0.0258
 3014TIP3   OH233236   0.694   1.274  19.628  0.0621 -0.3147 -0.0633
 3014TIP3    H133237   0.685   1.228  19.712  0.2412  1.7023  1.1108
 3014TIP3    H233238   0.785   1.304  19.627 -0.1184  0.2268 -0.7024
 3015TIP3   OH233239   0.186   3.399  17.970 -0.0935 -0.1394  0.5558
 3015TIP3    H133240   0.122   3.357  17.912  0.7838 -0.2508 -0.3543
 3015TIP3    H233241   0.244   3.329  17.998 -0.2602 -0.0090  1.2405
 3016TIP3   OH233242   0.490   0.142  18.039 -0.1214 -0.3254 -0.1960
 3016TIP3    H133243   0.567   0.187  18.004 -0.2727 -0.0395 -0.1597
 3016TIP3    H233244   0.516   0.117  18.128 -0.7862  1.5994  0.5819
 3017TIP3   OH233245   5.375   2.027  20.150  0.2835 -0.0564  0.2731
 3017TIP3    H133246   5.435   1.982  20.090  0.2022 -0.6937  0.6635
 3017TIP3    H233247   5.307   1.962  20.169  0.5133 -0.0075  1.3536
 3018TIP3   OH233248   3.632   6.377  19.650 -0.6856 -0.7135 -0.1575
 3018TIP3    H133249   3.694   6.375  19.577 -0.9766  1.6873 -0.5593
 3018TIP3    H233250   3.555   6.329  19.617 -0.6076 -0.1283 -1.2566
 3019TIP3   OH233251   6.269   5.427  19.931 -0.3499  0.0741  0.4663
 3019TIP3    H133252   6.344   5.470  19.890  1.7986 -2.5176  1.3392
 3019TIP3    H233253   6.205   5.497  19.946  1.9307  2.4438 -0.2103
 3020TIP3   OH233254   4.441   1.409  18.788  0.5923  0.6636 -0.3749
 3020TIP3    H133255   4.406   1.326  18.821 -0.5960  0.7863 -1.2550
 3020TIP3    H233256   4.419   1.472  18.856 -0.9313  0.7300 -0.8937
 3021TIP3   OH233257   5.181   1.544  18.630 -0.2046 -0.0702  0.2545
 3021TIP3    H133258   5.167   1.627  18.676  1.6542 -0.1980  1.1605
 3021TIP3    H233259   5.132   1.480  18.682 -1.6079  0.4191 -0.4206
 3022TIP3   OH233260   1.342   2.386  20.001  0.1096  0.1314  0.2023
 3022TIP3    H133261   1.282   2.446  19.958  1.0252  0.0463 -1.2432
 3022TIP3    H233262   1.290   2.308  20.019  0.0030 -0.3655 -2.0056
 3023TIP3   OH233263   4.440   5.151  19.355  0.0537  0.0010 -0.0189
 3023TIP3    H133264   4.429   5.205  19.276  0.1476 -1.2885 -0.9477
 3023TIP3    H233265   4.372   5.182  19.415 -0.2006  0.8235 -0.7079
 3024TIP3   OH233266   0.610   4.446  20.059 -0.6221 -0.5132 -0.2027
 3024TIP3    H133267   0.621   4.458  19.964 -0.3067 -1.0101 -0.2317
 3024TIP3    H233268   0.608   4.535  20.094 -2.3982 -0.2671 -0.8470
 3025TIP3   OH233269   3.512   2.086  19.458 -0.3522 -0.5046  0.7394
 3025TIP3    H133270   3.575   2.157  19.445 -0.1937 -0.7589  0.0966
 3025TIP3    H233271   3.461   2.083  19.377 -2.0028  0.4675  1.6825
 3026TIP3   OH233272   2.371   3.163  17.380  0.0057  0.2904  0.4600
 3026TIP3    H133273   2.421   3.187  17.302  0.0858 -0.0847  0.3939
 3026TIP3    H233274   2.309   3.096  17.350  0.7814 -0.6706  0.9226
 3027TIP3   OH233275   6.135   2.202  20.012 -0.3064  0.2612  0.2121
 3027TIP3    H133276   6.045   2.172  20.024 -0.8453  0.5358 -2.4878
 3027TIP3    H233277   6.143   2.278  20.070 -1.4237 -0.4006  1.2859
 3028TIP3   OH233278   0.418   1.257  18.337 -0.4549  0.4057  0.0951
 3028TIP3    H133279   0.410   1.283  18.429 -0.9004  0.0687  0.1485
 3028TIP3    H233280   0.513   1.258  18.321 -0.3977  0.8884  0.4329
 3029TIP3   OH233281   3.793   5.608  17.996 -0.0101  0.2009  0.3781
 3029TIP3    H133282   3.873   5.555  17.989 -0.7966 -0.8369 -1.4531
 3029TIP3    H233283   3.794   5.663  17.918 -1.3378 -0.2559 -0.0011
 3030TIP3   OH233284   0.447   0.251  16.750 -0.1006  0.1104 -0.3350
 3030TIP3    H133285   0.416   0.282  16.664  0.7223  0.5709 -0.4797
 3030TIP3    H233286   0.520   0.193  16.730 -1.8630 -2.3261 -0.0777
 3031TIP3   OH233287   3.094   5.902  18.801  0.2989  0.1124  0.0666
 3031TIP3    H133288   3.110   5.843  18.874 -1.4849  0.9727  1.2438
 3031TIP3    H233289   3.046   5.975  18.840 -0.1223  0.9307 -1.8599
 3032TIP3   OH233290   5.510   4.432  17.647  0.5521 -0.2248  0.7704
 3032TIP3    H133291   5.540   4.399  17.563 -1.7382  3.4142 -1.7280
 3032TIP3    H233292   5.418   4.407  17.652  0.3204  0.7168  1.5596
 3033TIP3   OH233293   1.103   2.442  18.056 -0.2741  0.3695  0.2956
 3033TIP3    H133294   1.034   2.475  17.999  0.4081 -0.2326 -0.9345
 3033TIP3    H233295   1.164   2.515  18.063  0.7180 -0.1930 -1.5811
 3034TIP3   OH233296   5.748   6.511  19.275 -0.3840  0.0708  0.0328
 3034TIP3    H133297   5.723   6.501  19.367  1.7308  1.8352  0.9055
 3034TIP3    H233298   5.743   6.605  19.258 -0.5657 -0.2002 -1.6292
 3035TIP3   OH233299   6.562   1.229  19.110 -0.0994 -0.3249 -0.1799
 3035TIP3    H133300   6.613   1.168  19.163 -0.2418 -1.2868 -1.1162
 3035TIP3    H233301   6.520   1.174  19.044 -0.4784  0.7498 -0.8611
 3036TIP3   OH233302   6.174   6.396  18.251 -0.1834  0.4141 -0.4016
 3036TIP3    H133303   6.214   6.482  18.240  0.6702  0.2193  0.8603
 3036TIP3    H233304   6.209   6.343  18.179 -0.4840  1.0448 -1.0127
 3037TIP3   OH233305   6.036   1.054  18.699  0.1154  0.1852  0.2836
 3037TIP3    H133306   6.019   1.027  18.609  1.6558  0.7449 -0.2046
 3037TIP3    H233307   5.978   0.998  18.752 -5.1880  3.5305 -1.1879
 3038TIP3   OH233308   6.593   6.015  17.291  0.2684  0.0383  0.7214
 3038TIP3    H133309   6.579   6.108  17.307 -0.7970  0.1060 -0.4589
 3038TIP3    H233310   6.670   6.011  17.235 -0.3584  0.3026 -0.1760
 3039TIP3   OH233311   1.082   1.933  18.372 -0.4051 -0.0470 -0.1481
 3039TIP3    H133312   1.118   2.021  18.370 -0.0814 -0.1454  0.7028
 3039TIP3    H233313   1.014   1.933  18.305  2.0823 -0.2845 -2.8217
 3040TIP3   OH233314   3.588   5.280  17.297  0.0826  1.2152 -0.0901
 3040TIP3    H133315   3.501   5.285  17.257  0.5494  0.9299 -1.1825
 3040TIP3    H233316   3.600   5.365  17.339 -0.7469  1.2363  0.1261
 3041TIP3   OH233317   3.080   4.127  17.607  0.0030  0.3147  0.4273
 3041TIP3    H133318   3.048   4.159  17.522 -1.1090  0.1333  0.7702
 3041TIP3    H233319   3.171   4.156  17.610  0.0171  0.4482 -0.7702
 3042TIP3   OH233320   0.163   4.484  20.416  0.4716 -0.2929  0.2274
 3042TIP3    H133321   0.211   4.562  20.386 -0.2004 -0.0903 -0.3513
 3042TIP3    H233322   0.158   4.493  20.511 -0.6732  1.0005  0.0579
 3043TIP3   OH233323   6.424   1.541  19.433 -0.4033 -0.5490  0.8576
 3043TIP3    H133324   6.517   1.563  19.431 -0.1424 -1.3899  2.2474
 3043TIP3    H233325   6.395   1.549  19.342  1.5419 -2.3981  0.0126
 3044TIP3   OH233326   3.841   5.034  17.727  0.2501 -0.1236 -0.0847
 3044TIP3    H133327   3.851   5.021  17.632 -0.8675 -0.9019 -0.1121
 3044TIP3    H233328   3.929   5.053  17.757  0.4801  1.1493 -1.4278
 3045TIP3   OH233329   4.720   5.556  18.677  0.6629 -0.4116 -0.2927
 3045TIP3    H133330   4.652   5.603  18.725  1.6541 -0.3856  1.1434
 3045TIP3    H233331   4.717   5.592  18.589 -1.6690 -0.9307 -0.4901
 3046TIP3   OH233332   5.668   4.260  18.925  0.1411  0.2027 -0.2852
 3046TIP3    H133333   5.579   4.225  18.921 -0.0370  0.7418 -2.3968
 3046TIP3    H233334   5.722   4.187  18.954 -0.8823 -0.3414  0.2832
 3047TIP3   OH233335   2.506   0.931  18.558 -0.1261  0.0500 -0.0395
 3047TIP3    H133336   2.446   0.863  18.527  0.2138  0.2890 -1.2605
 3047TIP3    H233337   2.586   0.884  18.581  0.4025  0.1116 -1.6794
 3048TIP3   OH233338   3.701   5.987  17.051  0.5013  0.1833  0.3546
 3048TIP3    H133339   3.721   6.007  17.142 -0.9716  0.9802  0.5321
 3048TIP3    H233340   3.652   6.063  17.020 -0.8407 -0.9659 -0.4703
 3049TIP3   OH233341   4.403   2.276  18.377 -0.0557 -0.1181  0.1543
 3049TIP3    H133342   4.358   2.246  18.456  1.7333 -1.8616  0.5983
 3049TIP3    H233343   4.416   2.197  18.324  5.3288 -0.6636  1.6181
 3050TIP3   OH233344   1.297   3.743  20.032 -0.4029 -0.3687 -0.1557
 3050TIP3    H133345   1.385   3.712  20.055 -0.0652  0.0235 -0.8965
 3050TIP3    H233346   1.265   3.679  19.969 -1.4299 -1.5845  1.5098
 3051TIP3   OH233347   2.901   2.245  19.823 -0.8639  0.6755 -0.0585
 3051TIP3    H133348   2.985   2.275  19.858 -0.9179  0.8780 -0.0965
 3051TIP3    H233349   2.839   2.262  19.893 -0.6669 -0.6813  0.4744
 3052TIP3   OH233350   5.096   5.748  16.784 -0.3673  0.1320  0.0345
 3052TIP3    H133351   5.079   5.746  16.690  0.7774  0.8081 -0.1985
 3052TIP3    H233352   5.082   5.657  16.812  2.4619 -0.8809 -1.4019
 3053TIP3   OH233353   0.151   2.689  18.745 -0.1072 -0.3398  0.8556
 3053TIP3    H133354   0.199   2.739  18.811 -0.3178  0.6352  0.2899
 3053TIP3    H233355   0.205   2.612  18.730 -0.4363 -0.9612  2.7034
 3054TIP3   OH233356   3.703   0.606  18.890  0.1512 -0.2911  0.3424
 3054TIP3    H133357   3.661   0.581  18.972  0.4097 -2.6500 -0.1770
 3054TIP3    H233358   3.632   0.604  18.826  0.3928 -0.8966  0.0847
 3055TIP3   OH233359   3.186   6.258  19.810  0.4889  0.1685  0.2481
 3055TIP3    H133360   3.157   6.229  19.724 -0.5679  0.1433  0.5912
 3055TIP3    H233361   3.170   6.183  19.867 -3.0291  1.5070  1.3022
 3056TIP3   OH233362   2.236   0.248  19.045  0.4957  0.4600  0.1561
 3056TIP3    H133363   2.222   0.342  19.052  1.4271  0.7034 -0.9824
 3056TIP3    H233364   2.216   0.227  18.954  1.1880 -0.2816  0.1642
 3057TIP3   OH233365   2.366   6.036  17.399 -0.1581 -0.8481 -0.5292
 3057TIP3    H133366   2.310   6.016  17.324  0.4506 -0.1860 -1.1761
 3057TIP3    H233367   2.304   6.056  17.470 -0.7593 -3.2412 -0.3090
 3058TIP3   OH233368   0.489   6.218  17.615  0.5582 -0.1119  0.1213
 3058TIP3    H133369   0.462   6.141  17.566 -0.2251  0.9946 -1.2804
 3058TIP3    H233370   0.421   6.229  17.681  0.4203 -0.3646  0.0253
 3059TIP3   OH233371   5.242   4.856  20.270  0.0172 -0.0510  0.4211
 3059TIP3    H133372   5.218   4.796  20.199  0.0368 -0.0117  0.3817
 3059TIP3    H233373   5.177   4.927  20.264 -0.1035 -0.1477  0.5705
 3060TIP3   OH233374   4.360   2.046  19.702 -0.5678  0.1169  0.1413
 3060TIP3    H133375   4.326   1.980  19.641 -1.7135  1.4251 -0.7117
 3060TIP3    H233376   4.416   2.102  19.648 -0.8323  0.7304  0.4841
 3061TIP3   OH233377   5.215   0.651  19.766  0.2500 -0.0758  0.1645
 3061TIP3    H133378   5.285   0.702  19.805 -1.0653  1.9959 -0.0571
 3061TIP3    H233379   5.134   0.696  19.792 -0.8483 -0.7380 -1.8728
 3062TIP3   OH233380   5.685   5.506  19.608 -0.4156 -0.4414 -0.0843
 3062TIP3    H133381   5.709   5.582  19.556  0.9360  0.5232  1.8242
 3062TIP3    H233382   5.744   5.437  19.578 -0.2141 -0.1468 -0.3727
 3063TIP3   OH233383   3.118   4.057  17.888 -0.1983  0.3201  0.4223
 3063TIP3    H133384   3.134   4.140  17.934 -0.2123 -0.1895  1.3754
 3063TIP3    H233385   3.119   4.081  17.795  0.6764  1.2386  0.6442
 3064TIP3   OH233386   1.964   1.670  20.330 -0.2116 -0.1485 -0.5823
 3064TIP3    H133387   2.051   1.648  20.363 -0.3535  0.7770  0.5077
 3064TIP3    H233388   1.978   1.747  20.276 -0.5077  0.9667  0.8527
 3065TIP3   OH233389   1.869   2.478  20.105  0.0085 -0.2860  0.0746
 3065TIP3    H133390   1.779   2.452  20.082 -0.2601  1.2165 -0.7401
 3065TIP3    H233391   1.892   2.543  20.038  2.0483 -1.2707 -0.2369
 3066TIP3   OH233392   0.435   4.559  18.017 -0.4239  0.3968  0.4622
 3066TIP3    H133393   0.437   4.631  18.080 -0.0266  0.0944  0.8000
 3066TIP3    H233394   0.452   4.602  17.933  0.0473  0.6783  0.6893
 3067TIP3   OH233395   0.867   2.679  20.107 -0.8815  0.1861 -0.2324
 3067TIP3    H133396   0.939   2.645  20.054 -0.9316 -0.2187 -0.0404
 3067TIP3    H233397   0.865   2.773  20.086 -0.6969  0.0885 -0.7013
 3068TIP3   OH233398   2.861   2.307  17.716  0.0048 -0.4580  0.1406
 3068TIP3    H133399   2.819   2.339  17.796 -1.0078 -1.7300  0.1418
 3068TIP3    H233400   2.862   2.212  17.726  1.7469 -0.5257 -0.4526
 3069TIP3   OH233401   5.860   6.161  18.407 -0.3144  0.4390 -0.2519
 3069TIP3    H133402   5.953   6.183  18.401 -0.7773  3.5083  1.5031
 3069TIP3    H233403   5.825   6.182  18.321  0.2888  1.2657 -0.3076
 3070TIP3   OH233404   1.853   4.129  19.907  0.6597 -0.5510  0.0816
 3070TIP3    H133405   1.915   4.070  19.864 -0.8435 -1.7329 -0.5509
 3070TIP3    H233406   1.826   4.082  19.986  2.4174  1.0521  1.7748
 3071TIP3   OH233407   6.189   3.463  18.599  0.2431 -0.5291  0.7414
 3071TIP3    H133408   6.232   3.541  18.565  2.1032 -1.6158  0.4852
 3071TIP3    H233409   6.202   3.396  18.531 -1.2054 -1.1327  1.0062
 3072TIP3   OH233410   2.834   1.026  17.783  0.0439  0.5170  0.8212
 3072TIP3    H133411   2.807   0.939  17.754  0.6025  0.5315  0.2361
 3072TIP3    H233412   2.858   1.072  17.702  1.2776  0.6870  1.2686
 3073TIP3   OH233413   5.309   2.138  18.206  0.3756  0.5457  0.1708
 3073TIP3    H133414   5.376   2.093  18.257  1.3708  0.4968 -1.1266
 3073TIP3    H233415   5.324   2.231  18.224  1.9410  0.6531 -1.3841
 3074TIP3   OH233416   2.345   4.978  19.292 -0.7253  0.3029 -0.3234
 3074TIP3    H133417   2.419   5.006  19.239 -0.6124  1.2786  0.3234
 3074TIP3    H233418   2.351   5.030  19.372 -0.2825 -1.8405  1.1366
 3075TIP3   OH233419   3.944   1.924  18.605 -0.5738 -0.0929  0.1625
 3075TIP3    H133420   4.029   1.890  18.577 -0.2727  1.4248 -0.8808
 3075TIP3    H233421   3.923   1.992  18.541 -0.3813  2.8226  2.9090
 3076TIP3   OH233422   6.090   6.486  19.312  0.4069 -0.4987 -0.1973
 3076TIP3    H133423   6.028   6.426  19.354  0.2220  0.4728  0.9493
 3076TIP3    H233424   6.167   6.432  19.294 -0.2620 -1.3978 -0.4234
 3077TIP3   OH233425   0.383   4.300  19.008 -0.1787 -0.1081 -0.3045
 3077TIP3    H133426   0.388   4.379  18.954 -1.8330  0.5744  0.4433
 3077TIP3    H233427   0.319   4.323  19.077 -0.7627 -2.1226 -0.1247
 3078TIP3   OH233428   2.211   1.371  18.911  0.2735 -0.3390 -0.3345
 3078TIP3    H133429   2.263   1.389  18.833  1.8448 -1.1574  0.4945
 3078TIP3    H233430   2.190   1.458  18.946 -1.0015  0.0660 -1.9706
 3079TIP3   OH233431   1.167   1.465  20.147 -0.3264 -0.0176  0.3627
 3079TIP3    H133432   1.096   1.528  20.165 -1.4755 -1.1591 -0.0331
 3079TIP3    H233433   1.226   1.513  20.088 -0.1780  1.3211  1.5359
 3080TIP3   OH233434   2.680   3.057  20.092 -0.1745  0.2298 -0.4623
 3080TIP3    H133435   2.714   2.998  20.024  2.5805  1.7050 -0.5037
 3080TIP3    H233436   2.730   3.035  20.170 -1.2443  0.5164  0.3155
 3081TIP3   OH233437   6.559   5.994  19.273  0.2138 -0.4389 -0.3121
 3081TIP3    H133438   6.552   5.901  19.295  1.9563 -0.5305  0.0454
 3081TIP3    H233439   6.551   5.997  19.178 -0.3454 -0.8986 -0.2815
 3082TIP3   OH233440   1.339   5.495  20.056  0.1566  0.0851 -0.2796
 3082TIP3    H133441   1.305   5.532  19.974  1.5200  1.0501 -0.4394
 3082TIP3    H233442   1.378   5.411  20.030  0.2436  0.2092 -0.5590
 3083TIP3   OH233443   4.166   1.310  18.039 -0.2906  0.1433 -0.0760
 3083TIP3    H133444   4.233   1.269  17.985 -0.5601  1.8587 -1.8559
 3083TIP3    H233445   4.213   1.373  18.093 -0.3531  1.0075 -0.9847
 3084TIP3   OH233446   4.621   0.861  19.692 -0.3076  0.4100  0.3316
 3084TIP3    H133447   4.642   0.815  19.611  0.6356  2.1153 -0.4508
 3084TIP3    H233448   4.578   0.942  19.663 -1.2649  0.3791  1.6104
 3085TIP3   OH233449   5.041   5.140  19.279  0.7675  0.5224  0.7258
 3085TIP3    H133450   5.107   5.209  19.271 -0.2940  1.3943 -1.0459
 3085TIP3    H233451   5.086   5.061  19.250  1.1338  1.0491 -0.1787
 3086TIP3   OH233452   2.384   3.015  19.548  0.1480  0.4816  0.2846
 3086TIP3    H133453   2.309   3.022  19.489  0.4665 -0.9741 -0.3460
 3086TIP3    H233454   2.396   3.103  19.583 -2.3604  0.6061  1.0345
 3087TIP3   OH233455   6.139   5.824  17.468 -0.2979  0.3774 -0.1710
 3087TIP3    H133456   6.211   5.813  17.530 -1.6029 -0.0710  1.3327
 3087TIP3    H233457   6.160   5.905  17.421  1.4820 -0.0817 -0.2387
 3088TIP3   OH233458   5.168   3.020  19.815  0.8513  0.4064 -0.1672
 3088TIP3    H133459   5.085   3.044  19.773  0.9624 -0.5000 -0.9552
 3088TIP3    H233460   5.143   2.980  19.898  0.5996  1.7775  0.4384
 3089TIP3   OH233461   3.375   6.491  17.682  0.4939  0.0411  0.2601
 3089TIP3    H133462   3.408   6.572  17.721  0.9079  0.1718 -0.3497
 3089TIP3    H233463   3.445   6.428  17.695  0.3548 -0.0951  0.3400
 3090TIP3   OH233464   6.223   3.261  19.933 -0.1536 -0.0156  0.3746
 3090TIP3    H133465   6.139   3.256  19.979  0.4479  0.7611  1.5992
 3090TIP3    H233466   6.204   3.316  19.857 -0.9111 -0.4187  0.2555
 3091TIP3   OH233467   5.840   4.645  20.119 -0.7385  0.5832 -0.4279
 3091TIP3    H133468   5.912   4.709  20.121  0.2942 -0.5182  2.4557
 3091TIP3    H233469   5.864   4.585  20.048 -0.2605  1.7578 -1.2937
 3092TIP3   OH233470   1.633   5.015  19.222  0.9922 -0.4359  0.0186
 3092TIP3    H133471   1.543   4.991  19.197  1.1022 -0.2020 -0.6250
 3092TIP3    H233472   1.638   5.109  19.203  1.3108 -0.4067  0.2464
 3093TIP3   OH233473   5.434   1.700  19.384 -0.0862  0.1966  0.1992
 3093TIP3    H133474   5.444   1.606  19.367 -1.2872 -0.2286  1.6086
 3093TIP3    H233475   5.473   1.713  19.471 -0.6801  0.8406  0.3759
 3094TIP3   OH233476   6.328   5.249  19.120  0.0592 -0.1141  0.1118
 3094TIP3    H133477   6.303   5.205  19.202 -0.2990  0.1009  0.1206
 3094TIP3    H233478   6.333   5.178  19.056  0.6200 -0.3239  0.3814
 3095TIP3   OH233479   6.551   5.966  17.603  0.3850  0.1327 -0.0961
 3095TIP3    H133480   6.601   6.040  17.638  2.3869 -0.7474 -0.9669
 3095TIP3    H233481   6.582   5.957  17.513 -0.9905 -0.7835 -0.4984
 3096TIP3   OH233482   2.635   0.216  19.354 -0.0879  0.0004 -0.6328
 3096TIP3    H133483   2.623   0.260  19.438 -0.3942  0.5393 -0.9522
 3096TIP3    H233484   2.683   0.136  19.375  1.1526  0.8576 -0.1524
 3097TIP3   OH233485   1.404   2.986  18.891 -0.0968 -0.4094  0.0237
 3097TIP3    H133486   1.444   3.069  18.917  0.6042 -0.5724 -0.5217
 3097TIP3    H233487   1.455   2.957  18.815  0.5851 -2.0610  1.0656
 3098TIP3   OH233488   6.522   4.633  19.057  0.1616  0.0377 -0.2775
 3098TIP3    H133489   6.554   4.720  19.080  2.0191 -0.7082  0.1857
 3098TIP3    H233490   6.487   4.643  18.969  2.4874  0.8104 -1.1932
 3099TIP3   OH233491   1.000   4.639  18.531  0.0141  0.2984 -0.1692
 3099TIP3    H133492   1.056   4.562  18.543 -1.3300 -0.6574  0.1953
 3099TIP3    H233493   1.016   4.692  18.609 -0.5231 -0.5969  0.5754
 3100TIP3   OH233494   2.752   6.180  17.883  0.8236 -0.4000 -0.2642
 3100TIP3    H133495   2.687   6.160  17.951  0.4476  2.8211  0.5085
 3100TIP3    H233496   2.833   6.198  17.931  0.8968  0.6426 -0.7371
 3101TIP3   OH233497   5.636   4.003  17.772  0.4587 -0.0876  0.3084
 3101TIP3    H133498   5.552   3.973  17.737  1.4685 -0.2417 -2.1936
 3101TIP3    H233499   5.629   4.099  17.770 -0.2169 -0.0853  1.6776
 3102TIP3   OH233500   4.404   3.336  17.725 -0.2514  0.2397 -0.1739
 3102TIP3    H133501   4.460   3.374  17.657  0.7632 -0.1738  0.4093
 3102TIP3    H233502   4.372   3.255  17.687  1.5997 -0.8188  0.3671
 3103TIP3   OH233503   3.758   1.111  19.790  0.3761 -0.1338  0.5005
 3103TIP3    H133504   3.684   1.113  19.729  0.5563 -1.4046  0.2157
 3103TIP3    H233505   3.820   1.174  19.753 -0.5286  0.9559  0.7424
 3104TIP3   OH233506   3.042   6.186  17.560 -0.1646  0.3284 -0.0366
 3104TIP3    H133507   2.968   6.234  17.598  0.5912  1.5502 -0.0936
 3104TIP3    H233508   3.065   6.122  17.627 -2.0547 -0.9565 -0.5132
 3105TIP3   OH233509   1.028   4.195  18.160  0.1261  0.0387 -1.0571
 3105TIP3    H133510   0.951   4.177  18.215  1.0353 -1.6830 -0.2431
 3105TIP3    H233511   1.025   4.289  18.145 -1.8385  0.1021 -0.6038
 3106TIP3   OH233512   0.739   5.848  20.274 -0.1033  0.1438  0.8709
 3106TIP3    H133513   0.681   5.901  20.328  0.1251 -0.3263  1.5912
 3106TIP3    H233514   0.681   5.809  20.208 -0.5785 -0.1257  1.4359
 3107TIP3   OH233515   4.148   4.366  18.486 -0.1139  0.3513  0.2095
 3107TIP3    H133516   4.166   4.389  18.577  2.8473 -0.1129 -0.1572
 3107TIP3    H233517   4.079   4.299  18.491  1.0645 -0.8272  2.2757
 3108TIP3   OH233518   4.581   1.152  16.284 -0.2575  0.3799 -0.0892
 3108TIP3    H133519   4.601   1.138  16.377 -1.1410  0.3162  0.1045
 3108TIP3    H233520   4.485   1.149  16.280 -0.2328  0.5898 -0.9728
 3109TIP3   OH233521   1.459   3.632  18.206  0.1255 -0.0932  0.2504
 3109TIP3    H133522   1.400   3.577  18.154  1.2373 -0.1221 -1.0230
 3109TIP3    H233523   1.475   3.709  18.150  1.0557  0.0501  0.7033
 3110TIP3   OH233524   5.534   1.243  19.561 -0.4222 -0.0214 -0.5139
 3110TIP3    H133525   5.512   1.186  19.487  0.5100 -0.7956 -0.2035
 3110TIP3    H233526   5.602   1.301  19.527  1.5973 -1.7819  0.2807
 3111TIP3   OH233527   6.136   4.676  20.121 -0.1688 -0.0588 -0.2535
 3111TIP3    H133528   6.180   4.596  20.150  0.5940  0.0910 -0.9756
 3111TIP3    H233529   6.189   4.747  20.157 -0.9327  0.1471  0.5196
 3112TIP3   OH233530   6.125   3.833  20.135  0.2644 -0.5412 -0.8317
 3112TIP3    H133531   6.182   3.765  20.170 -0.0246  0.7120  2.5538
 3112TIP3    H233532   6.184   3.890  20.084  1.2100 -1.3991 -0.7337
 3113TIP3   OH233533   2.537   2.067  17.846  0.4226  0.5742  0.5031
 3113TIP3    H133534   2.486   2.136  17.804 -1.7975 -1.4552 -0.3636
 3113TIP3    H233535   2.516   2.074  17.939  1.3813  1.9325  0.6434
 3114TIP3   OH233536   2.636   0.845  20.150 -0.1566  0.0298 -0.3859
 3114TIP3    H133537   2.719   0.813  20.113  2.2264  4.9676 -0.1014
 3114TIP3    H233538   2.635   0.811  20.239  2.5869  1.1499  0.1723
 3115TIP3   OH233539   0.102   5.945  18.560  0.3361  0.5599  0.2833
 3115TIP3    H133540   0.054   5.863  18.569  1.2916 -0.1948 -1.1340
 3115TIP3    H233541   0.048   6.010  18.606 -0.5013 -0.8216  1.3116
 3116TIP3   OH233542   5.849   2.576  18.985 -0.1734 -0.0207 -0.4834
 3116TIP3    H133543   5.771   2.535  19.022 -2.0960  3.7198  0.0538
 3116TIP3    H233544   5.921   2.546  19.042 -1.8852 -0.2924  1.6780
 3117TIP3   OH233545   3.268   0.433  20.107  0.5699  0.0790 -0.8383
 3117TIP3    H133546   3.329   0.503  20.083  0.2626  1.0606  1.0472
 3117TIP3    H233547   3.300   0.402  20.192 -0.1277 -1.1285 -0.9882
 3118TIP3   OH233548   3.874   2.567  19.330 -0.3626  0.1801  0.4838
 3118TIP3    H133549   3.839   2.547  19.244  2.9250 -0.4681 -0.8369
 3118TIP3    H233550   3.897   2.482  19.368 -1.6634  0.4563  2.0445
 3119TIP3   OH233551   4.528   4.955  19.911  0.2295 -0.3867  0.4142
 3119TIP3    H133552   4.590   5.012  19.865  0.6195 -1.2538 -0.1691
 3119TIP3    H233553   4.579   4.918  19.983 -0.0618  0.0936  0.8742
 3120TIP3   OH233554   1.901   5.302  19.521 -0.2161  0.5269  0.5737
 3120TIP3    H133555   1.962   5.239  19.558  0.2523  0.3716 -0.4270
 3120TIP3    H233556   1.942   5.387  19.536  0.1451  0.4397  0.1081
 3121TIP3   OH233557   3.386   1.776  19.081 -0.8437 -0.3542 -0.4227
 3121TIP3    H133558   3.313   1.746  19.135 -0.7017 -1.2212 -0.7023
 3121TIP3    H233559   3.401   1.705  19.019  0.2525 -0.2097 -0.3487
 3122TIP3   OH233560   3.677   3.095  19.736  0.5377  0.0447  0.1975
 3122TIP3    H133561   3.726   3.091  19.654 -1.2095 -0.0707 -0.8837
 3122TIP3    H233562   3.744   3.106  19.803  2.0079  0.2892 -1.2471
 3123TIP3   OH233563   0.110   3.412  18.685 -0.3576 -0.5880 -0.0772
 3123TIP3    H133564   0.080   3.421  18.776 -0.3300 -1.3462  0.0089
 3123TIP3    H233565   0.197   3.453  18.685 -0.2000 -0.9176  0.3243
 3124TIP3   OH233566   2.759   6.657  18.776  0.3541 -0.3647  0.1876
 3124TIP3    H133567   2.703   6.593  18.732  0.1888  1.2911 -2.2481
 3124TIP3    H233568   2.700   6.705  18.834 -0.4091  0.0980 -0.9257
 3125TIP3   OH233569   4.685   5.521  19.785 -0.6687 -0.1417 -0.2586
 3125TIP3    H133570   4.745   5.502  19.712 -0.4016 -0.3893  0.0189
 3125TIP3    H233571   4.680   5.438  19.833 -0.3108  0.2010  0.3835
 3126TIP3   OH233572   5.342   4.744  18.365  0.2874  0.5458 -0.0681
 3126TIP3    H133573   5.287   4.806  18.315 -0.1619 -1.9433 -2.9492
 3126TIP3    H233574   5.310   4.658  18.339  2.6753 -0.9649  1.6807
 3127TIP3   OH233575   4.758   3.940  18.817  0.0908 -0.3975 -0.1264
 3127TIP3    H133576   4.718   4.017  18.777  1.0636  0.3442  0.2996
 3127TIP3    H233577   4.690   3.904  18.873  0.0296  0.9004  0.6640
 3128TIP3   OH233578   0.759   0.706  19.598  0.6590  0.3822  0.1822
 3128TIP3    H133579   0.785   0.679  19.510 -1.0250 -2.5425  0.4712
 3128TIP3    H233580   0.664   0.701  19.598  0.6433 -2.5896  2.9087
 3129TIP3   OH233581   1.833   1.856  18.065  0.1786  0.5002  0.4463
 3129TIP3    H133582   1.875   1.772  18.047  0.0434  0.7330 -1.0544
 3129TIP3    H233583   1.883   1.893  18.138  0.0416 -1.0023  1.3537
 3130TIP3   OH233584   4.861   6.013  18.009  0.4601  0.5360 -0.5552
 3130TIP3    H133585   4.920   6.050  18.075  0.7989 -1.9438  0.6409
 3130TIP3    H233586   4.844   5.924  18.039 -0.5510 -0.2225 -3.1130
 3131TIP3   OH233587   2.832   3.527  19.031  0.2694  0.0164  0.2404
 3131TIP3    H133588   2.893   3.455  19.047 -1.9617 -1.9023  0.6188
 3131TIP3    H233589   2.858   3.561  18.945  0.1834 -2.6050 -0.9076
 3132TIP3   OH233590   5.427   6.412  18.553 -0.2443  0.0288  0.3566
 3132TIP3    H133591   5.417   6.503  18.525 -0.0388 -0.8160 -2.7922
 3132TIP3    H233592   5.520   6.393  18.541 -0.8026 -1.4859 -2.4116
 3133TIP3   OH233593   4.790   5.886  20.326  0.0045  0.5176  0.0801
 3133TIP3    H133594   4.713   5.847  20.285 -0.6185 -1.7964  3.1397
 3133TIP3    H233595   4.756   5.960  20.376 -0.1470 -0.0004  0.7611
 3134TIP3   OH233596   2.441   2.179  17.287  0.4240 -0.4672  0.4359
 3134TIP3    H133597   2.392   2.098  17.297 -1.1456  0.2456 -0.9817
 3134TIP3    H233598   2.424   2.206  17.196  3.7335 -0.3467 -0.3021
 3135TIP3   OH233599   6.095   0.387  19.435 -0.3422 -0.0817  0.3115
 3135TIP3    H133600   6.020   0.332  19.456 -0.5580  0.3035  0.5538
 3135TIP3    H233601   6.169   0.344  19.479 -0.6679  0.3212  1.2811
 3136TIP3   OH233602   4.903   6.289  20.378  0.0946  0.0338  0.4216
 3136TIP3    H133603   4.911   6.232  20.301 -0.0652  0.8369 -0.2029
 3136TIP3    H233604   4.989   6.284  20.420  0.3222 -0.0722 -0.0476
 3137TIP3   OH233605   6.523   0.266  17.453 -0.3830 -0.3563  0.5283
 3137TIP3    H133606   6.496   0.356  17.433  1.4470 -0.0519 -0.9401
 3137TIP3    H233607   6.594   0.276  17.517  2.0633 -0.3922 -1.9674
 3138TIP3   OH233608   3.920   1.165  17.974 -0.3406 -0.2631 -0.1866
 3138TIP3    H133609   4.013   1.157  17.994 -0.4880  0.7990  1.0296
 3138TIP3    H233610   3.905   1.259  17.968 -1.5335 -0.3763  0.6981
 3139TIP3   OH233611   3.942   1.105  17.231 -0.1080 -0.8119 -0.0404
 3139TIP3    H133612   3.893   1.156  17.166 -0.7632 -2.1997 -0.6777
 3139TIP3    H233613   3.875   1.068  17.288  0.3288 -1.2357  0.1993
 3140TIP3   OH233614   2.755   0.464  17.627  0.6785 -0.5774 -0.5219
 3140TIP3    H133615   2.696   0.518  17.574  0.4013 -0.0431  0.3221
 3140TIP3    H233616   2.701   0.389  17.653  0.0334  0.3916  1.0725
 3141TIP3   OH233617   5.261   5.262  20.785 -0.2033  0.4636  0.0159
 3141TIP3    H133618   5.205   5.184  20.786 -0.0008  0.3005 -0.7455
 3141TIP3    H233619   5.204   5.332  20.816 -0.0226 -0.2024  2.0714
 3142TIP3   OH233620   5.676   2.647  17.280 -0.1236  0.1763 -0.3017
 3142TIP3    H133621   5.656   2.619  17.190  2.9286 -1.7100 -0.5425
 3142TIP3    H233622   5.619   2.594  17.335 -1.6285  0.9490 -1.0536
 3143TIP3   OH233623   1.759   0.102  17.886  0.0800 -0.4356  0.1394
 3143TIP3    H133624   1.807   0.180  17.857 -1.5029 -0.0774 -1.8053
 3143TIP3    H233625   1.794   0.031  17.832 -0.3661 -0.4993 -0.0749
 3144TIP3   OH233626   6.595   1.881  18.657  0.2661  0.4804  0.2796
 3144TIP3    H133627   6.541   1.886  18.577  1.8798 -0.9436 -0.9667
 3144TIP3    H233628   6.593   1.970  18.692 -3.8343  0.3061  1.0287
 3145TIP3   OH233629   1.909   3.458  19.879  0.0752 -0.0464 -0.0785
 3145TIP3    H133630   1.959   3.383  19.847  0.8305 -1.3822  3.7193
 3145TIP3    H233631   1.970   3.531  19.873  0.6056 -0.5081 -0.4492
 3146TIP3   OH233632   2.453   4.431  18.486  0.1979 -0.3633  0.0424
 3146TIP3    H133633   2.390   4.487  18.440  0.0163  0.2452  1.0049
 3146TIP3    H233634   2.426   4.342  18.463  0.2454 -0.0790 -1.1871
 3147TIP3   OH233635   3.343   4.301  19.554 -0.5143 -0.4944 -0.1056
 3147TIP3    H133636   3.283   4.297  19.480 -1.1349  0.9257  0.2939
 3147TIP3    H233637   3.326   4.386  19.595  2.4522  0.4136 -0.5200
 3148TIP3   OH233638   2.757   5.155  19.752 -0.1065  0.0758 -0.1568
 3148TIP3    H133639   2.813   5.083  19.722 -2.3522 -2.5899  1.5282
 3148TIP3    H233640   2.817   5.228  19.765  2.5181 -1.7857 -0.9655
 3149TIP3   OH233641   4.999   0.695  17.711  0.2303 -0.6206 -0.0310
 3149TIP3    H133642   4.927   0.756  17.695  1.2379  0.3120 -1.2187
 3149TIP3    H233643   5.053   0.737  17.777 -0.7378 -1.7272  1.5274
 3150TIP3   OH233644   1.491   5.462  17.438 -0.6399 -0.0213 -0.5849
 3150TIP3    H133645   1.425   5.469  17.507 -1.3517 -3.6419 -0.7169
 3150TIP3    H233646   1.440   5.449  17.358  0.2145 -0.0111 -1.1378
 3151TIP3   OH233647   6.345   1.392  19.191 -0.4710 -0.4642  0.4204
 3151TIP3    H133648   6.417   1.337  19.159 -1.1098 -0.9761 -0.1687
 3151TIP3    H233649   6.344   1.467  19.132 -1.9252 -1.6165 -1.1037
 3152TIP3   OH233650   1.086   4.855  20.224  0.5409  0.6438  0.4485
 3152TIP3    H133651   1.092   4.832  20.317  0.4524 -0.9669  0.0817
 3152TIP3    H233652   0.996   4.831  20.200  1.2783 -1.2363 -0.6063
 3153TIP3   OH233653   5.192   4.423  20.528  0.1962 -0.4109 -0.4113
 3153TIP3    H133654   5.221   4.472  20.605  2.0386 -1.7583 -0.1907
 3153TIP3    H233655   5.179   4.490  20.460 -2.2932  0.9070  1.2123
 3154TIP3   OH233656   3.348   3.191  19.178  0.5057  0.0228  0.4630
 3154TIP3    H133657   3.362   3.281  19.208 -1.3106 -0.4843  3.2794
 3154TIP3    H233658   3.401   3.138  19.237 -1.0578 -0.9045  1.1000
 3155TIP3   OH233659   2.374   1.293  19.238 -0.0110 -0.1126 -0.4137
 3155TIP3    H133660   2.291   1.246  19.246 -0.4810  0.4075 -1.8999
 3155TIP3    H233661   2.351   1.375  19.194  0.9673  1.0071  1.0737
 3156TIP3   OH233662   2.512   0.037  19.720  0.3838 -0.2443  0.3827
 3156TIP3    H133663   2.439   0.082  19.677  0.6791 -0.2371 -0.1085
 3156TIP3    H233664   2.523   0.085  19.803 -0.6279 -0.6874  0.7922
 3157TIP3   OH233665   3.227   0.557  19.353 -0.2911  0.1745 -0.4036
 3157TIP3    H133666   3.235   0.503  19.274 -2.1613  0.1084 -0.5879
 3157TIP3    H233667   3.284   0.632  19.337  3.1529 -2.0804  0.2549
 3158TIP3   OH233668   5.244   6.521  19.631  0.2350 -0.1990 -0.2307
 3158TIP3    H133669   5.231   6.443  19.577 -0.1599 -0.3337  0.0511
 3158TIP3    H233670   5.331   6.509  19.670 -0.8785 -1.8665  1.9704
 3159TIP3   OH233671   1.641   5.459  17.168  0.2288  0.1411  0.0288
 3159TIP3    H133672   1.620   5.545  17.131 -1.0318 -0.5486 -0.9280
 3159TIP3    H233673   1.560   5.409  17.160  1.0558 -1.2783  0.1858
 3160TIP3   OH233674   4.056   3.016  19.774 -0.2632 -0.0985  0.1586
 3160TIP3    H133675   4.021   3.010  19.686  0.3370  0.2691 -0.1089
 3160TIP3    H233676   4.004   3.084  19.816  0.9513  1.4039 -0.6530
 3161TIP3   OH233677   6.278   3.158  20.236  0.4319 -0.0067  0.5254
 3161TIP3    H133678   6.296   3.071  20.200 -0.3682  0.5044 -1.2254
 3161TIP3    H233679   6.183   3.161  20.245  0.2847  1.1942 -0.9573
 3162TIP3   OH233680   0.877   4.125  19.801  0.0054 -0.0852 -0.3110
 3162TIP3    H133681   0.911   4.213  19.816 -1.0422  0.4052 -0.6682
 3162TIP3    H233682   0.933   4.068  19.853  0.2689  0.8665  0.4740
 3163TIP3   OH233683   0.348   0.314  17.607 -0.4346 -0.3573 -0.4356
 3163TIP3    H133684   0.277   0.349  17.660 -0.8238 -2.1261  0.2762
 3163TIP3    H233685   0.379   0.238  17.655  3.2072  1.3400  0.2056
 3164TIP3   OH233686   4.843   0.991  20.060 -0.1655 -0.6985  0.4216
 3164TIP3    H133687   4.834   1.047  19.983 -0.1460 -0.0240  0.8989
 3164TIP3    H233688   4.929   1.014  20.097 -0.3753 -0.6770  0.9082
 3165TIP3   OH233689   3.863   2.562  17.884  0.6067 -0.4372  0.1891
 3165TIP3    H133690   3.950   2.526  17.902  1.3565  1.6461  1.0543
 3165TIP3    H233691   3.807   2.523  17.951  1.1475 -0.8384  0.4186
 3166TIP3   OH233692   0.170   1.294  18.654  0.5081 -0.3268 -0.6454
 3166TIP3    H133693   0.262   1.274  18.669  0.3615 -1.3157 -1.0099
 3166TIP3    H233694   0.123   1.225  18.701 -0.0752  0.5757  0.1449
 3167TIP3   OH233695   3.899   0.700  17.799 -0.1388  0.3226 -0.3745
 3167TIP3    H133696   3.837   0.758  17.755  0.2852  0.6184 -0.5891
 3167TIP3    H233697   3.873   0.612  17.772 -0.9470  0.3843  0.1551
 3168TIP3   OH233698   3.290   4.092  19.791 -0.5157  0.0822 -0.1486
 3168TIP3    H133699   3.354   4.074  19.722  0.2463  0.7965  0.3471
 3168TIP3    H233700   3.272   4.186  19.784 -1.0893 -0.0048  0.0774
 3169TIP3   OH233701   1.665   3.015  17.932 -0.0503  0.1637 -0.4134
 3169TIP3    H133702   1.614   3.063  17.997  1.7754 -1.5329  2.4985
 3169TIP3    H233703   1.682   3.079  17.863 -1.4612  2.3244  1.1100
 3170TIP3   OH233704   2.723   2.048  19.425 -0.2552 -0.7242  0.0066
 3170TIP3    H133705   2.630   2.054  19.448 -0.1627 -1.0489  0.4961
 3170TIP3    H233706   2.766   2.114  19.479 -0.2865 -0.0503 -0.7705
 3171TIP3   OH233707   3.390   1.996  17.192 -0.0365 -0.1441  0.6272
 3171TIP3    H133708   3.406   2.039  17.108  0.0320 -1.5205 -0.0803
 3171TIP3    H233709   3.436   1.913  17.186 -1.0502 -0.8032  1.5441
 3172TIP3   OH233710   5.193   2.598  20.174 -0.1364  0.1602 -0.3361
 3172TIP3    H133711   5.219   2.689  20.191 -1.3562  0.8486 -1.8962
 3172TIP3    H233712   5.265   2.563  20.121  1.1191 -0.3424  1.6093
 3173TIP3   OH233713   3.364   1.762  19.688  0.8001 -0.2482  0.2778
 3173TIP3    H133714   3.438   1.822  19.678 -0.0996  0.8919  0.1707
 3173TIP3    H233715   3.291   1.819  19.714 -0.3645 -1.1360 -0.9080
 3174TIP3   OH233716   2.849   2.236  18.517 -0.5296 -0.0798  0.0364
 3174TIP3    H133717   2.768   2.236  18.569  0.3441  1.7167  1.5280
 3174TIP3    H233718   2.828   2.288  18.439 -0.6369  1.1386  0.8352
 3175TIP3   OH233719   3.689   5.233  20.574 -0.1252 -0.2478  0.2334
 3175TIP3    H133720   3.754   5.244  20.643  0.7902 -0.4421 -0.5852
 3175TIP3    H233721   3.700   5.142  20.545 -1.0792 -0.4262  0.3959
 3176TIP3   OH233722   5.271   3.207  19.184 -0.1541 -0.5334 -0.2091
 3176TIP3    H133723   5.198   3.228  19.126 -1.3655 -3.3746  0.1062
 3176TIP3    H233724   5.235   3.213  19.272  0.9830  1.2875  0.1790
 3177TIP3   OH233725   5.401   1.390  18.344 -0.3975 -0.0968 -0.0202
 3177TIP3    H133726   5.397   1.299  18.374 -1.8235  0.2367  0.9008
 3177TIP3    H233727   5.325   1.399  18.287  0.4237  0.2094 -1.1006
 3178TIP3   OH233728   1.408   4.588  18.396 -0.2887  0.3029 -0.0198
 3178TIP3    H133729   1.336   4.581  18.334 -0.5091  0.6667  0.1924
 3178TIP3    H233730   1.451   4.503  18.392 -0.0835  0.4425 -0.9287
 3179TIP3   OH233731   6.117   4.383  20.653 -0.2188 -0.1740  0.3915
 3179TIP3    H133732   6.029   4.405  20.622 -0.5588  0.6985  1.8723
 3179TIP3    H233733   6.109   4.292  20.683 -0.2961 -0.4866 -0.5336
 3180TIP3   OH233734   3.887   6.620  16.973 -0.2879 -0.4856  0.1127
 3180TIP3    H133735   3.820   6.654  17.033  0.4703 -1.2910  1.4821
 3180TIP3    H233736   3.959   6.594  17.031  1.5451  1.0566 -1.3781
 3181TIP3   OH233737   6.403   0.653  18.378  0.8004  0.2175 -0.0711
 3181TIP3    H133738   6.411   0.617  18.467  0.4762  1.2497  0.3972
 3181TIP3    H233739   6.320   0.620  18.346 -0.3469  1.8942  1.0268
 3182TIP3   OH233740   1.299   4.317  20.493  0.1583  0.1148  0.9237
 3182TIP3    H133741   1.342   4.248  20.443 -1.0088  1.0393 -1.5263
 3182TIP3    H233742   1.371   4.364  20.537  1.6045  0.8305 -1.9973
 3183TIP3   OH233743   1.453   5.759  19.683 -0.0333  0.3227 -0.4157
 3183TIP3    H133744   1.478   5.803  19.764 -2.5796  0.6350  0.2767
 3183TIP3    H233745   1.466   5.825  19.615  0.1058  0.7677  0.0376
 3184TIP3   OH233746   4.069   0.949  19.676  0.1559 -0.2339  0.5110
 3184TIP3    H133747   4.046   1.021  19.734  2.0042  1.3736 -0.6260
 3184TIP3    H233748   4.106   0.882  19.734  0.5448  0.6798  1.3403
 3185TIP3   OH233749   4.064   1.273  17.699 -0.0851  0.8074  0.0595
 3185TIP3    H133750   3.972   1.295  17.712  0.0099  0.7287  0.8689
 3185TIP3    H233751   4.112   1.330  17.759  0.3616  0.5045 -0.0049
 3186TIP3   OH233752   0.676   2.129  18.775 -0.6698 -0.2249  0.1378
 3186TIP3    H133753   0.622   2.208  18.771  0.6171  0.6733 -0.3790
 3186TIP3    H233754   0.754   2.152  18.725 -0.1967 -1.7889  0.1204
 3187TIP3   OH233755   6.423   6.290  18.688  0.1703 -0.9739  0.5605
 3187TIP3    H133756   6.404   6.198  18.706 -0.9281 -0.7463  0.6367
 3187TIP3    H233757   6.485   6.287  18.615 -1.9926 -1.7860 -1.3932
 3188TIP3   OH233758   4.399   4.417  18.991 -0.7742 -0.2967  0.4915
 3188TIP3    H133759   4.410   4.428  18.897 -1.4493  1.2431  0.5671
 3188TIP3    H233760   4.480   4.452  19.029 -1.4269  1.2150  0.5598
 3189TIP3   OH233761   4.843   5.912  18.285 -0.5444  0.4345  0.2519
 3189TIP3    H133762   4.788   5.848  18.241 -0.4308 -1.1461  2.2320
 3189TIP3    H233763   4.933   5.883  18.266 -0.4496  1.0802 -0.3052
 3190TIP3   OH233764   3.896   1.559  17.334  0.8057  0.1344 -0.6021
 3190TIP3    H133765   3.972   1.617  17.335  0.7851  0.1519 -0.2043
 3190TIP3    H233766   3.846   1.588  17.257 -0.0913  1.7874  0.5348
 3191TIP3   OH233767   4.239   2.989  17.456  0.9270  0.5057 -0.3154
 3191TIP3    H133768   4.315   3.032  17.417  1.3036  0.4345  0.3266
 3191TIP3    H233769   4.163   3.036  17.420  1.3012  1.0583 -0.3863
 3192TIP3   OH233770   6.671   3.415  17.553  0.1709 -0.5396  0.1500
 3192TIP3    H133771   6.634   3.334  17.519  3.9261 -2.2386 -0.3819
 3192TIP3    H233772   6.663   3.477  17.480 -0.8803 -1.0465 -0.1826
 3193TIP3   OH233773   1.595   4.752  19.334 -0.5216  0.0428 -0.2600
 3193TIP3    H133774   1.564   4.842  19.333  2.2042  1.0670 -1.6394
 3193TIP3    H233775   1.616   4.735  19.426 -0.5124  0.9969 -0.0766
 3194TIP3   OH233776   5.546   5.986  20.172 -0.0604 -0.2544 -0.2731
 3194TIP3    H133777   5.497   5.905  20.184  0.8297 -0.7773 -0.0172
 3194TIP3    H233778   5.631   5.968  20.212  0.0440  0.9187  0.0620
 3195TIP3   OH233779   0.447   2.500  19.653  0.3127  0.0780 -0.0049
 3195TIP3    H133780   0.384   2.503  19.580 -1.2921 -3.5251  1.0057
 3195TIP3    H233781   0.529   2.472  19.613  1.0863  3.5151 -1.1341
 3196TIP3   OH233782   1.607   5.806  17.687  0.0719  0.5300  0.0719
 3196TIP3    H133783   1.517   5.819  17.657 -0.2394  2.6998  1.6960
 3196TIP3    H233784   1.658   5.875  17.644  0.9808 -0.6035 -0.7389
 3197TIP3   OH233785   3.402   1.436  18.267 -0.3483  0.4814  0.2944
 3197TIP3    H133786   3.397   1.342  18.246 -1.7815  1.0180 -2.0429
 3197TIP3    H233787   3.321   1.454  18.315  0.0636  0.5071  1.0028
 3198TIP3   OH233788   3.162   5.030  17.624  0.3381  0.5216 -0.2180
 3198TIP3    H133789   3.099   4.960  17.642 -1.1743  1.5000 -1.3422
 3198TIP3    H233790   3.216   5.035  17.702  0.0819 -1.4700  0.1320
 3199TIP3   OH233791   3.753   3.882  18.154 -0.0967 -0.1266 -0.5247
 3199TIP3    H133792   3.703   3.857  18.077  1.1629 -2.2621 -0.7278
 3199TIP3    H233793   3.692   3.870  18.227 -0.3909 -1.1374 -0.9148
 3200TIP3   OH233794   4.170   0.573  17.164 -0.4569  0.0811  0.7451
 3200TIP3    H133795   4.076   0.586  17.169 -0.4557  0.3445  0.2118
 3200TIP3    H233796   4.189   0.569  17.070  0.1142  0.4709  0.8305
 3201TIP3   OH233797   5.325   0.720  18.334 -0.2427  0.4870  0.5539
 3201TIP3    H133798   5.410   0.720  18.291 -0.2559  0.0059  0.5243
 3201TIP3    H233799   5.280   0.797  18.299  0.2306  0.8261  0.6744
 3202TIP3   OH233800   1.522   2.127  18.093 -0.4936 -0.2349  0.0443
 3202TIP3    H133801   1.443   2.178  18.112 -0.4591  0.0679 -0.5886
 3202TIP3    H233802   1.557   2.166  18.013  0.5845 -0.0312  0.5886
 3203TIP3   OH233803   0.361   3.294  20.392  0.4650  0.1631  0.1306
 3203TIP3    H133804   0.269   3.318  20.376  0.0230 -0.4563  1.5988
 3203TIP3    H233805   0.366   3.202  20.365  1.1892  0.7157 -1.8141
 3204TIP3   OH233806   3.421   6.133  17.646 -0.2343  0.1649 -0.1193
 3204TIP3    H133807   3.381   6.051  17.674  0.1749 -0.2705 -0.7654
 3204TIP3    H233808   3.348   6.187  17.616 -0.3030 -1.0798 -2.4526
 3205TIP3   OH233809   3.019   3.727  18.471  0.0756 -0.6765  0.5744
 3205TIP3    H133810   2.939   3.711  18.421  0.3145 -1.1122  0.3297
 3205TIP3    H233811   2.988   3.756  18.557 -0.3878 -2.7230  1.1451
 3206TIP3   OH233812   0.030   2.950  19.330  0.2304 -0.2129  0.6018
 3206TIP3    H133813   0.058   2.993  19.411 -0.9586 -0.8732  1.3975
 3206TIP3    H233814   0.025   2.857  19.352  0.2265 -0.4506 -0.3394
 3207TIP3   OH233815   6.560   5.561  20.070  0.0038 -0.3453  0.2366
 3207TIP3    H133816   6.494   5.579  20.137  0.1994  0.0335  0.3376
 3207TIP3    H233817   6.532   5.612  19.994  0.8871  0.9327  0.7199
 3208TIP3   OH233818   0.673   2.628  19.274 -0.6264  0.7793 -0.2434
 3208TIP3    H133819   0.718   2.674  19.344  1.4543 -0.4273 -0.6747
 3208TIP3    H233820   0.720   2.654  19.194 -0.9030 -0.2397 -0.7615
 3209TIP3   OH233821   1.362   2.700  17.549 -0.1601  0.4339 -0.3923
 3209TIP3    H133822   1.342   2.792  17.569 -2.1863 -0.5267  2.6947
 3209TIP3    H233823   1.346   2.654  17.632  0.1813 -2.8073 -2.0024
 3210TIP3   OH233824   5.786   1.879  17.813 -0.3391 -0.4824 -0.4821
 3210TIP3    H133825   5.838   1.896  17.734 -0.5361  1.0238 -0.3214
 3210TIP3    H233826   5.700   1.916  17.793 -0.6700 -0.9214  0.0990
 3211TIP3   OH233827   6.035   6.203  18.896  0.0829 -0.1913 -0.2227
 3211TIP3    H133828   5.989   6.262  18.955  0.1999 -0.8907  0.6018
 3211TIP3    H233829   6.083   6.260  18.837  0.2337  0.5379  0.5804
 3212TIP3   OH233830   3.791   2.298  19.884  0.3407  0.0915  0.2696
 3212TIP3    H133831   3.849   2.341  19.946 -0.6040  1.6188  0.1639
 3212TIP3    H233832   3.847   2.277  19.809  0.9324  0.7553  0.5133
 3213TIP3   OH233833   0.343   5.472  19.063  0.0418 -0.2807  0.5229
 3213TIP3    H133834   0.319   5.421  18.986  0.6921 -1.4043  1.0345
 3213TIP3    H233835   0.437   5.457  19.074 -0.0594 -0.2458  1.5944
 3214TIP3   OH233836   5.411   3.884  19.490  0.0207  0.1012 -0.0626
 3214TIP3    H133837   5.374   3.963  19.453  0.9401  0.8787  0.6064
 3214TIP3    H233838   5.463   3.845  19.419  1.7493  1.5589  0.3256
 3215TIP3   OH233839   5.228   4.876  17.136 -0.1682 -0.6625 -0.2083
 3215TIP3    H133840   5.311   4.851  17.093 -1.7389 -2.1503 -2.6413
 3215TIP3    H233841   5.201   4.955  17.090  0.1880  0.2400  1.0786
 3216TIP3   OH233842   2.664   2.340  19.207 -0.1032 -0.5562  0.4439
 3216TIP3    H133843   2.580   2.313  19.242 -0.5171 -1.5594 -1.2211
 3216TIP3    H233844   2.723   2.266  19.227 -0.2228 -0.9150 -0.5163
 3217TIP3   OH233845   0.952   6.497  20.417  0.0764 -0.0054 -0.0799
 3217TIP3    H133846   0.890   6.426  20.399 -1.6699  0.8765  2.0084
 3217TIP3    H233847   0.930   6.565  20.352  1.7849 -1.2645 -2.1158
 3218TIP3   OH233848   0.269   5.800  17.660 -0.2124 -0.0924 -0.0418
 3218TIP3    H133849   0.178   5.773  17.659 -0.5046  0.8583  0.0664
 3218TIP3    H233850   0.275   5.869  17.594  0.6111 -0.6921 -0.6176
 3219TIP3   OH233851   2.995   6.524  18.892 -0.1425 -0.5062 -0.0657
 3219TIP3    H133852   3.067   6.566  18.939  1.0784 -2.3392 -0.1976
 3219TIP3    H233853   2.954   6.595  18.842  0.5394  0.8737  1.2509
 3220TIP3   OH233854   2.790   5.793  17.235  0.2163 -0.4564 -0.7864
 3220TIP3    H133855   2.786   5.836  17.150  1.2701  1.6345  0.1346
 3220TIP3    H233856   2.770   5.863  17.298 -1.3677 -2.1228  0.6819
 3221TIP3   OH233857   1.790   2.811  18.056  0.1453 -0.3568  0.3978
 3221TIP3    H133858   1.850   2.769  17.995  0.3828 -1.8388  1.6013
 3221TIP3    H233859   1.755   2.886  18.007  0.1574 -1.5846 -1.6203
 3222TIP3   OH233860   3.864   2.469  17.103 -0.4090 -0.6630  0.7827
 3222TIP3    H133861   3.782   2.496  17.143 -0.8185  0.9841 -1.0444
 3222TIP3    H233862   3.931   2.520  17.148 -0.5533 -0.8130  1.1723
 3223TIP3   OH233863   4.690   2.246  17.958  0.0149  0.9605  0.0950
 3223TIP3    H133864   4.760   2.190  17.991  1.3781  1.8106 -1.2045
 3223TIP3    H233865   4.718   2.335  17.980 -2.1226  1.2497  2.1573
 3224TIP3   OH233866   2.729   4.424  18.786  0.2275  0.4595 -0.1545
 3224TIP3    H133867   2.719   4.391  18.697  2.7779  0.6572 -0.6013
 3224TIP3    H233868   2.687   4.359  18.841  1.8019 -1.6360 -1.2820
 3225TIP3   OH233869   1.836   6.377  17.012  0.6909  0.1321  0.0643
 3225TIP3    H133870   1.872   6.289  17.021  1.3914  0.5939  2.6879
 3225TIP3    H233871   1.827   6.408  17.102  0.4928  2.7617 -0.7849
 3226TIP3   OH233872   3.110   3.757  19.867  0.0047  0.0035  0.4674
 3226TIP3    H133873   3.019   3.739  19.891 -1.3035  4.2497 -0.3361
 3226TIP3    H233874   3.121   3.718  19.781 -1.2522 -0.1197  0.3557
 3227TIP3   OH233875   2.590   2.251  18.636  0.2776  0.8637  0.1882
 3227TIP3    H133876   2.505   2.211  18.615 -0.0004  1.2322  0.5908
 3227TIP3    H233877   2.576   2.345  18.621  1.1679  0.7366 -1.5546
 3228TIP3   OH233878   1.247   1.640  17.476  0.0281  0.5452  0.3820
 3228TIP3    H133879   1.291   1.698  17.537  0.5886  1.9276 -1.2696
 3228TIP3    H233880   1.275   1.552  17.502  0.6562  1.1264  1.7472
 3229TIP3   OH233881   0.874   2.234  17.580  0.4925 -0.2820 -0.3087
 3229TIP3    H133882   0.920   2.286  17.514  1.3627  0.0706  0.5467
 3229TIP3    H233883   0.782   2.250  17.563  0.7265  1.9157  0.1704
 3230TIP3   OH233884   2.826   6.329  17.627  0.0316  0.1435  0.0528
 3230TIP3    H133885   2.769   6.405  17.622 -0.5330 -0.3442 -1.7780
 3230TIP3    H233886   2.807   6.289  17.712 -0.2860  1.5422  0.6611
 3231TIP3   OH233887   6.244   1.212  18.697 -0.8884 -1.2640  0.1047
 3231TIP3    H133888   6.170   1.156  18.676 -0.8257 -1.0482 -0.7027
 3231TIP3    H233889   6.247   1.212  18.793 -1.0862 -2.3741  0.1243
 3232TIP3   OH233890   4.345   0.569  17.526 -0.2437 -0.0740 -0.2584
 3232TIP3    H133891   4.275   0.543  17.585  1.1957 -0.1236  1.5197
 3232TIP3    H233892   4.385   0.487  17.498  0.3628 -0.0198  0.3904
 3233TIP3   OH233893   0.109   1.721  17.615 -0.0499 -0.0241  0.5631
 3233TIP3    H133894   0.100   1.800  17.668  0.2386  0.6631 -0.3866
 3233TIP3    H233895   0.026   1.714  17.567  0.1432  0.0326  0.2163
 3234TIP3   OH233896   4.818   5.697  16.923 -0.2610  0.4138  0.0891
 3234TIP3    H133897   4.863   5.723  16.842 -0.8366 -1.9359 -1.1000
 3234TIP3    H233898   4.754   5.766  16.938 -0.8419  0.4535 -2.1055
 3235TIP3   OH233899   1.279   3.482  18.049 -1.0639  0.4588  0.5743
 3235TIP3    H133900   1.234   3.549  17.999 -0.5491  0.8724  0.6598
 3235TIP3    H233901   1.321   3.427  17.983  0.5778  1.6776  0.5601
 3236TIP3   OH233902   0.946   0.780  20.024  0.2027  0.5193  0.1609
 3236TIP3    H133903   0.877   0.832  20.066  0.3977  0.1792  0.9190
 3236TIP3    H233904   1.024   0.795  20.079  0.3084 -0.4235  0.2836
 3237TIP3   OH233905   3.964   2.634  18.351  0.2496 -0.3720 -0.9632
 3237TIP3    H133906   4.009   2.652  18.433 -0.7611  1.7151 -0.7890
 3237TIP3    H233907   4.015   2.565  18.309  0.6443 -1.6950  1.5106
 3238TIP3   OH233908   4.273   5.485  19.905  0.5463  0.4433 -0.1300
 3238TIP3    H133909   4.264   5.453  19.815 -1.3145 -0.3930  0.2861
 3238TIP3    H233910   4.294   5.407  19.956 -0.2478  0.5639  0.3965
 3239TIP3   OH233911   0.508   2.529  18.855 -0.1469 -0.0253 -0.0924
 3239TIP3    H133912   0.579   2.507  18.916  0.5842  1.4168 -0.3617
 3239TIP3    H233913   0.435   2.552  18.912  0.9763  2.7783  0.4085
 3240TIP3   OH233914   2.579   4.102  17.502 -0.4864 -0.0164 -0.2548
 3240TIP3    H133915   2.615   4.019  17.534 -2.4818 -1.0963 -0.6485
 3240TIP3    H233916   2.543   4.144  17.581  0.0058  0.2182 -0.1508
 3241TIP3   OH233917   2.996   0.760  18.082  0.1554 -0.0995  0.4790
 3241TIP3    H133918   2.962   0.713  18.005  0.8117 -0.1907  0.2370
 3241TIP3    H233919   2.934   0.831  18.097  0.6146  0.6106 -0.8319
 3242TIP3   OH233920   3.953   0.211  19.711 -0.1221 -0.5844 -0.0192
 3242TIP3    H133921   3.877   0.269  19.706 -0.0446 -0.4359  0.4450
 3242TIP3    H233922   3.998   0.224  19.627 -0.4438 -0.4466 -0.1737
 3243TIP3   OH233923   4.967   2.318  17.671 -1.0330 -0.4316 -0.1977
 3243TIP3    H133924   4.891   2.368  17.702 -0.6988  0.0330 -0.1269
 3243TIP3    H233925   4.997   2.365  17.594 -0.3257 -0.1573  0.2419
 3244TIP3   OH233926   3.824   5.709  19.212 -0.0373 -0.4755 -0.4281
 3244TIP3    H133927   3.884   5.635  19.200  1.5535  0.7685 -0.3675
 3244TIP3    H233928   3.853   5.751  19.293 -2.3050 -0.9975  0.7634
 3245TIP3   OH233929   3.847   6.075  18.237 -0.3202  0.7396  0.5388
 3245TIP3    H133930   3.876   5.987  18.259  0.5030  1.2089  1.4211
 3245TIP3    H233931   3.753   6.066  18.220 -0.1571 -0.3701  0.1925
 3246TIP3   OH233932   5.647   5.368  20.251 -0.9956  0.2526  0.1124
 3246TIP3    H133933   5.629   5.295  20.310  1.0755  1.0989  1.9069
 3246TIP3    H233934   5.727   5.408  20.286  0.7400  0.4441 -3.6629
 3247TIP3   OH233935   0.897   5.059  17.475  0.1054  0.3720  0.5669
 3247TIP3    H133936   0.894   4.980  17.529  0.5889 -0.0853 -0.0680
 3247TIP3    H233937   0.980   5.054  17.429  0.5077  1.6616  1.1107
 3248TIP3   OH233938   1.165   4.871  17.527  0.3595 -0.1568 -0.2151
 3248TIP3    H133939   1.097   4.887  17.592  0.5987  0.7187 -0.1738
 3248TIP3    H233940   1.198   4.958  17.504  0.4562 -0.4660 -1.3175
 3249TIP3   OH233941   4.722   2.066  18.548 -0.4603  0.2283 -0.0424
 3249TIP3    H133942   4.744   2.092  18.459 -0.8764  1.2587  0.1385
 3249TIP3    H233943   4.806   2.045  18.589 -0.2260  0.1915 -0.5410
 3250TIP3   OH233944   5.269   5.000  19.106 -0.0466  0.6600 -0.1306
 3250TIP3    H133945   5.235   4.963  19.024 -1.4865 -0.1711  0.7807
 3250TIP3    H233946   5.330   5.068  19.078  1.1308 -1.0021 -1.8978
 3251TIP3   OH233947   1.797   4.932  20.058  0.6390 -0.0806  0.0509
 3251TIP3    H133948   1.814   4.839  20.075  0.4002 -0.2009 -0.3668
 3251TIP3    H233949   1.705   4.935  20.030  0.1447  0.4755  1.6076
 3252TIP3   OH233950   4.092   3.537  19.533  0.0253  0.4543 -0.2522
 3252TIP3    H133951   4.022   3.579  19.483  0.5157  1.3848 -0.1559
 3252TIP3    H233952   4.169   3.544  19.477 -0.1837 -1.6617 -0.9041
 3253TIP3   OH233953   6.076   2.672  20.178 -0.3041 -0.4962 -0.0662
 3253TIP3    H133954   5.994   2.673  20.228  0.2393  1.5589  0.8963
 3253TIP3    H233955   6.059   2.727  20.102 -0.1653 -1.0614 -0.5163
 3254TIP3   OH233956   4.966   5.187  19.784 -0.5779  0.6005  0.3962
 3254TIP3    H133957   4.945   5.263  19.730  1.3205  1.6811  1.0800
 3254TIP3    H233958   5.020   5.222  19.856 -0.7263 -1.1957  1.4590
 3255TIP3   OH233959   2.191   5.956  17.650 -0.1404 -0.5812  0.1750
 3255TIP3    H133960   2.194   5.955  17.746  1.0316 -1.1860  0.1447
 3255TIP3    H233961   2.163   5.868  17.626 -0.9296 -0.2848 -0.0488
 3256TIP3   OH233962   2.574   3.574  20.179  0.2643  0.0038  0.5194
 3256TIP3    H133963   2.666   3.548  20.182  0.7392  1.2348 -1.6023
 3256TIP3    H233964   2.535   3.518  20.112 -0.1010  0.7005  0.1383
 3257TIP3   OH233965   3.992   6.512  18.184 -0.1665  0.0430 -0.1957
 3257TIP3    H133966   3.968   6.468  18.103  1.3116 -0.4755 -0.3743
 3257TIP3    H233967   4.087   6.519  18.181 -0.0782  0.0121  1.4918
 3258TIP3   OH233968   1.237   2.203  18.392 -0.5129  0.2387 -0.0183
 3258TIP3    H133969   1.313   2.146  18.389  0.1033  0.8591  2.1976
 3258TIP3    H233970   1.221   2.226  18.300 -2.2378 -5.1732 -1.4260
 3259TIP3   OH233971   1.780   4.340  20.097  0.3963 -0.6412  0.8361
 3259TIP3    H133972   1.750   4.334  20.187  0.3427 -1.0224  0.7945
 3259TIP3    H233973   1.807   4.251  20.074  0.7203 -0.4791  0.5830
 3260TIP3   OH233974   3.510   0.644  19.572  0.3831 -0.0790  0.3678
 3260TIP3    H133975   3.593   0.668  19.530  1.0158  1.5848  2.4090
 3260TIP3    H233976   3.524   0.663  19.664 -2.2223  0.0538  0.8037
 3261TIP3   OH233977   0.390   1.386  19.773  0.2092  0.7601  0.6949
 3261TIP3    H133978   0.354   1.423  19.853  0.4705  0.1567  1.1037
 3261TIP3    H233979   0.399   1.292  19.792 -2.3300  0.0465 -0.9671
 3262TIP3   OH233980   1.235   5.975  19.220 -0.4895 -0.3082  0.2377
 3262TIP3    H133981   1.164   6.000  19.161  1.3152 -0.9964 -2.4229
 3262TIP3    H233982   1.253   6.053  19.271 -1.4547  0.6748 -0.8780
 3263TIP3   OH233983   5.499   1.856  16.818 -0.8836  0.3722 -0.2087
 3263TIP3    H133984   5.594   1.859  16.805 -0.6190 -0.8648  1.1578
 3263TIP3    H233985   5.463   1.843  16.730  0.3301 -0.7733 -0.5806
 3264TIP3   OH233986   1.844   3.767  20.240  0.0655  0.3359  0.4027
 3264TIP3    H133987   1.867   3.735  20.327  1.0000  0.8468  0.3513
 3264TIP3    H233988   1.847   3.689  20.184  1.3524  0.3152  0.4678
 3265TIP3   OH233989   2.397   1.212  18.741 -0.5622  0.7668 -0.3304
 3265TIP3    H133990   2.458   1.285  18.746 -0.3359  0.5127  1.0788
 3265TIP3    H233991   2.444   1.145  18.691 -0.1580  1.0019 -0.2689
 3266TIP3   OH233992   5.017   0.564  18.028 -0.3204 -0.7490  0.0303
 3266TIP3    H133993   4.958   0.570  17.953  0.1279  0.2592 -0.2546
 3266TIP3    H233994   4.967   0.599  18.102 -0.1545 -0.0618 -0.1746
 3267TIP3   OH233995   1.871   4.116  17.026 -0.2647 -0.3881  0.2394
 3267TIP3    H133996   1.872   4.203  17.065 -0.3400 -0.2107 -0.1452
 3267TIP3    H233997   1.951   4.112  16.974 -0.6310 -0.2612 -0.3487
 3268TIP3   OH233998   3.258   0.849  18.456  0.1549 -0.0504 -0.0310
 3268TIP3    H133999   3.250   0.912  18.384 -1.4754  0.1835  0.3182
 3268TIP3    H234000   3.238   0.899  18.535 -2.7314 -1.2713  0.1185
 3269TIP3   OH234001   6.048   5.058  19.084 -0.3032  0.1109  0.4327
 3269TIP3    H134002   5.962   5.065  19.042 -0.2969  0.5658  0.4880
 3269TIP3    H234003   6.098   5.001  19.026 -0.4006  0.4664 -0.0082
 3270TIP3   OH234004   5.862   0.703  18.069 -0.7794  0.4381  0.1616
 3270TIP3    H134005   5.789   0.665  18.022  0.8176 -0.4007 -1.7943
 3270TIP3    H234006   5.889   0.635  18.131 -0.8470  0.2306 -0.0347
 3271TIP3   OH234007   2.875   0.658  20.101  0.2850  0.3182 -0.1577
 3271TIP3    H134008   2.920   0.596  20.160 -0.7785  0.1919  0.5463
 3271TIP3    H234009   2.910   0.637  20.014  1.6463  0.2849  0.3654
 3272TIP3   OH234010   0.643   3.239  20.316 -0.1145 -0.1940 -0.1715
 3272TIP3    H134011   0.625   3.307  20.381 -0.6704 -0.2357 -0.2721
 3272TIP3    H234012   0.591   3.264  20.240  0.0772 -0.4587 -0.3925
 3273TIP3   OH234013   5.620   6.180  19.242  0.3547 -0.4697 -0.0271
 3273TIP3    H134014   5.660   6.230  19.313  0.6554 -0.8044  0.0464
 3273TIP3    H234015   5.628   6.236  19.165 -0.9798  0.3665  0.4211
 3274TIP3   OH234016   1.509   0.215  17.906  0.4464 -0.4805 -0.1700
 3274TIP3    H134017   1.469   0.192  17.822  1.0231 -0.9956 -0.3092
 3274TIP3    H234018   1.597   0.177  17.902  0.2126 -1.1928  0.9844
 3275TIP3   OH234019   0.752   3.249  18.975  0.2384 -0.2675  0.4111
 3275TIP3    H134020   0.732   3.244  19.069 -0.2508 -1.0662  0.2698
 3275TIP3    H234021   0.819   3.318  18.969  0.3526 -0.2779  1.3558
 3276TIP3   OH234022   2.828   4.697  18.849  0.9261 -0.1952  0.0471
 3276TIP3    H134023   2.912   4.699  18.802  1.8722 -0.1708  1.6766
 3276TIP3    H234024   2.798   4.607  18.841 -0.5232  0.4194 -3.1870
 3277TIP3   OH234025   6.525   1.891  19.380 -0.7505  0.1376  0.3841
 3277TIP3    H134026   6.457   1.837  19.340  0.7200 -1.4680 -0.0771
 3277TIP3    H234027   6.558   1.946  19.308 -0.1342 -0.6220  0.0683
 3278TIP3   OH234028   2.401   2.895  18.848 -0.3419 -0.0413  0.0098
 3278TIP3    H134029   2.496   2.884  18.854 -0.5064 -1.5212  0.3508
 3278TIP3    H234030   2.382   2.888  18.754 -0.0869  0.5813 -0.0912
 3279TIP3   OH234031   0.952   6.344  19.881 -0.8359  0.1415  0.4376
 3279TIP3    H134032   0.906   6.425  19.856  0.1581  0.6967  0.3233
 3279TIP3    H234033   0.994   6.316  19.800  1.0823  1.0540  1.0578
 3280TIP3   OH234034   2.561   3.857  17.337  0.6887 -0.6077 -0.2022
 3280TIP3    H134035   2.571   3.934  17.281  1.5604  0.2753  1.0990
 3280TIP3    H234036   2.570   3.783  17.277 -1.9334  0.2246 -1.8019
 3281TIP3   OH234037   3.967   6.263  18.045  0.3701 -0.0287  0.2414
 3281TIP3    H134038   4.000   6.200  17.981  2.5259 -0.5976  1.8006
 3281TIP3    H234039   3.900   6.215  18.093 -0.8581  0.2206 -1.1618
 3282TIP3   OH234040   4.547   5.814  20.157  0.4254 -0.0728  0.2552
 3282TIP3    H134041   4.481   5.751  20.183  0.0664 -0.0864 -0.6512
 3282TIP3    H234042   4.586   5.777  20.078  0.3585  0.7217 -0.1640
 3283TIP3   OH234043   0.824   6.087  19.654 -0.2825  0.0804 -0.0394
 3283TIP3    H134044   0.760   6.158  19.663 -0.6750 -0.1747 -0.7419
 3283TIP3    H234045   0.810   6.033  19.731  1.9795  2.2552  2.0945
 3284TIP3   OH234046   0.608   4.162  19.757 -0.3001 -0.3752  0.3617
 3284TIP3    H134047   0.615   4.193  19.666 -0.0393 -4.4092 -1.2236
 3284TIP3    H234048   0.696   4.173  19.792 -0.1410  0.3266 -0.2362
 3285TIP3   OH234049   1.511   2.786  17.874  0.0017 -0.0029  0.0599
 3285TIP3    H134050   1.581   2.847  17.853  1.4884 -1.4957  0.5244
 3285TIP3    H234051   1.487   2.807  17.965  0.4620 -0.0557  0.1964
 3286TIP3   OH234052   2.218   5.347  18.013 -0.0558  0.2334  0.2954
 3286TIP3    H134053   2.283   5.279  18.026 -0.3979 -0.1984 -0.2133
 3286TIP3    H234054   2.243   5.416  18.075  2.1233  0.9861 -1.2909
 3287TIP3   OH234055   6.043   2.355  18.822  0.4827  0.1735  0.7700
 3287TIP3    H134056   6.115   2.341  18.883  0.1787 -0.5087  0.9876
 3287TIP3    H234057   5.965   2.329  18.871  0.0041  1.5568  0.7679
 3288TIP3   OH234058   0.458   0.303  17.354 -0.2659  0.6783  0.7916
 3288TIP3    H134059   0.427   0.282  17.442  0.7390 -1.0647  0.7567
 3288TIP3    H234060   0.378   0.319  17.304 -1.0004 -1.0050  1.3754
 3289TIP3   OH234061   0.715   6.154  18.023 -0.4265 -0.6721  0.0255
 3289TIP3    H134062   0.728   6.237  18.069 -2.0587 -0.1238 -0.4663
 3289TIP3    H234063   0.741   6.173  17.932  0.9964 -1.2457  0.2802
 3290TIP3   OH234064   1.193   4.825  18.736 -0.0754 -0.2225  0.1436
 3290TIP3    H134065   1.252   4.898  18.721  1.1496 -1.3456 -0.7295
 3290TIP3    H234066   1.246   4.760  18.783 -1.2847 -0.3703  1.3806
 3291TIP3   OH234067   3.047   1.464  18.338  0.1345  0.1187  0.2485
 3291TIP3    H134068   2.952   1.464  18.328  0.0768  2.1705  0.3410
 3291TIP3    H234069   3.076   1.546  18.298  1.9032 -0.5558  0.0333
 3292TIP3   OH234070   2.437   5.982  16.996  0.3729 -0.3266  0.0056
 3292TIP3    H134071   2.357   6.021  16.959  1.1091  1.0206 -0.2311
 3292TIP3    H234072   2.506   6.045  16.976  1.4251 -1.2389  0.6347
 3293TIP3   OH234073   4.332   6.477  18.813  0.8720  0.0638  0.1439
 3293TIP3    H134074   4.395   6.467  18.741  0.1749 -0.8199 -0.3660
 3293TIP3    H234075   4.336   6.394  18.860 -0.5142 -0.3507 -0.4144
 3294TIP3   OH234076   0.580   1.633  17.058 -0.0602  0.3549 -0.5266
 3294TIP3    H134077   0.571   1.594  16.970  0.3330  0.6723 -0.7064
 3294TIP3    H234078   0.643   1.703  17.047  0.0730  0.3265  0.0399
 3295TIP3   OH234079   1.602   3.986  17.821  0.2612 -0.0634  0.1792
 3295TIP3    H134080   1.663   4.010  17.891  0.9350 -0.5790 -0.2103
 3295TIP3    H234081   1.588   3.892  17.833  0.8307 -0.2775 -0.6916
 3296TIP3   OH234082   4.902   6.390  19.560  0.2229  0.1918 -0.4379
 3296TIP3    H134083   4.853   6.469  19.581  2.5667  1.1948  1.8892
 3296TIP3    H234084   4.843   6.318  19.583 -0.4968  1.3080  1.4512
 3297TIP3   OH234085   3.286   1.820  20.196 -0.2901  0.0911  0.1929
 3297TIP3    H134086   3.338   1.887  20.153  0.3920 -1.1354 -0.9505
 3297TIP3    H234087   3.224   1.869  20.250  0.6057  1.6141 -0.1131
 3298TIP3   OH234088   2.008   4.552  19.255 -0.4500  0.0526 -0.0067
 3298TIP3    H134089   2.047   4.522  19.337  1.7219 -0.4973 -1.1686
 3298TIP3    H234090   2.081   4.587  19.204 -1.6283 -0.0886 -1.9307
 3299TIP3   OH234091   5.330   3.038  17.571  0.2729 -0.1479  0.3279
 3299TIP3    H134092   5.390   3.014  17.500  1.4582  1.4130  0.7247
 3299TIP3    H234093   5.247   3.056  17.528  0.4310 -1.1227 -0.4095
 3300TIP3   OH234094   2.723   4.327  18.455 -0.4805 -0.1718  0.0816
 3300TIP3    H134095   2.790   4.260  18.469 -1.1671 -0.7967  0.4687
 3300TIP3    H234096   2.653   4.282  18.409 -0.3057  0.6851 -1.0663
 3301TIP3   OH234097   1.958   1.842  18.971 -0.3676 -0.0490 -0.0623
 3301TIP3    H134098   1.879   1.794  18.951 -0.1814 -0.2103 -0.4082
 3301TIP3    H234099   1.930   1.909  19.035 -1.5854  2.3473 -2.8752
 3302TIP3   OH234100   2.783   3.483  17.986 -0.7022 -0.2438  0.7649
 3302TIP3    H134101   2.814   3.418  17.922 -2.3810 -0.6226  0.2794
 3302TIP3    H234102   2.712   3.439  18.032 -2.7532  1.5827 -0.4339
 3303TIP3   OH234103   4.725   0.033  20.142  0.1016 -0.2715  0.5471
 3303TIP3    H134104   4.795  -0.006  20.090 -0.1961  1.0903 -0.9469
 3303TIP3    H234105   4.684  -0.042  20.186 -1.2291 -1.9754 -3.1215
 3304TIP3   OH234106   1.648   3.210  17.749 -0.1582  0.1827 -0.1963
 3304TIP3    H134107   1.687   3.287  17.707 -0.7292  0.8046  0.3857
 3304TIP3    H234108   1.577   3.184  17.690 -0.5641  0.6784  0.0664
 3305TIP3   OH234109   0.360   0.014  17.366  0.1269 -0.5601  0.1872
 3305TIP3    H134110   0.360   0.002  17.461 -1.3184  2.0069  0.5949
 3305TIP3    H234111   0.269   0.031  17.343  0.8543  2.3286 -1.0724
 3306TIP3   OH234112   0.360   5.062  18.161 -0.0070  0.0556  0.2396
 3306TIP3    H134113   0.310   5.065  18.079 -0.8569  1.3543  0.7750
 3306TIP3    H234114   0.450   5.077  18.134 -0.5379  2.8028 -0.3042
 3307TIP3   OH234115   2.969   0.075  18.668 -0.2064  0.4702  0.2963
 3307TIP3    H134116   2.959   0.166  18.695 -1.5651  0.9973 -1.7583
 3307TIP3    H234117   2.884   0.035  18.688 -1.0686  0.7384 -2.4128
 3308TIP3   OH234118   4.090   6.424  16.741 -0.1346 -0.1478 -0.6170
 3308TIP3    H134119   4.093   6.435  16.836  0.1134 -1.1578 -0.4978
 3308TIP3    H234120   4.173   6.463  16.711 -0.1026 -0.0439 -0.4010
 3309TIP3   OH234121   6.433   6.306  19.027  0.7497 -0.3235  0.3526
 3309TIP3    H134122   6.461   6.219  19.001 -0.7799 -0.5895 -0.5040
 3309TIP3    H234123   6.384   6.292  19.108 -0.3634 -0.4085 -0.3251
 3310TIP3   OH234124   5.245   4.338  17.582  0.0759 -0.0387 -0.0706
 3310TIP3    H134125   5.257   4.273  17.512  1.6977 -0.0514  0.1829
 3310TIP3    H234126   5.162   4.314  17.623  0.9534 -2.4148  0.4723
 3311TIP3   OH234127   1.661   4.216  20.304 -0.6524 -0.1858  0.1426
 3311TIP3    H134128   1.575   4.179  20.324 -0.3880 -0.1809  1.3757
 3311TIP3    H234129   1.656   4.306  20.338 -0.4846  0.1384 -0.6705
 3312TIP3   OH234130   0.330   3.500  19.899  0.0348  0.7840 -0.9124
 3312TIP3    H134131   0.426   3.496  19.895  0.1076  0.4615  0.5579
 3312TIP3    H234132   0.301   3.448  19.825  1.0246 -0.6063 -0.3805
 3313TIP3   OH234133   5.614   5.359  17.559 -0.0788 -0.8499  0.4036
 3313TIP3    H134134   5.542   5.422  17.558 -0.1774 -0.9388  1.1293
 3313TIP3    H234135   5.571   5.273  17.565 -0.0977 -1.2993 -3.7025
 3314TIP3   OH234136   5.901   3.064  17.874 -0.7255 -0.6506  0.0944
 3314TIP3    H134137   5.861   2.979  17.894 -0.2114 -1.1643 -0.9792
 3314TIP3    H234138   5.851   3.098  17.800 -0.7904 -0.1088  0.3792
 3315TIP3   OH234139   4.175   6.690  17.712  0.2485  0.0380 -0.5714
 3315TIP3    H134140   4.214   6.602  17.717 -1.1414 -0.6978 -1.6581
 3315TIP3    H234141   4.165   6.706  17.618 -0.3583  0.9734 -0.3634
 3316TIP3   OH234142   5.482   0.661  17.567 -0.5852  0.5458  0.4097
 3316TIP3    H134143   5.469   0.713  17.487 -0.3884  0.7036  0.4804
 3316TIP3    H234144   5.495   0.726  17.636 -0.8682  0.4115  0.5934
 3317TIP3   OH234145   3.481   3.498  18.918 -0.4171 -0.1415  0.7278
 3317TIP3    H134146   3.489   3.538  19.005  0.0248 -0.5291  0.8740
 3317TIP3    H234147   3.560   3.444  18.910 -0.6796 -0.4605  0.2711
 3318TIP3   OH234148   1.956   3.134  19.893  0.5132  0.0105 -0.2353
 3318TIP3    H134149   2.001   3.153  19.975 -0.9463  0.6711  0.4450
 3318TIP3    H234150   1.884   3.076  19.918 -1.8080  2.6021 -0.4950
 3319TIP3   OH234151   3.261   4.925  18.506 -0.0181 -0.8169  0.0922
 3319TIP3    H134152   3.242   4.839  18.470  0.4903 -1.3497  1.0589
 3319TIP3    H234153   3.350   4.917  18.542  0.3467  0.3403 -0.5123
 3320TIP3   OH234154   2.114   4.853  16.994  0.0603 -0.4591  0.0860
 3320TIP3    H134155   2.173   4.921  16.960 -0.2729  0.0676  0.5394
 3320TIP3    H234156   2.034   4.900  17.018 -1.1636 -1.3752 -1.9579
 3321TIP3   OH234157   2.829   5.274  16.859 -0.0653 -0.4263  0.0062
 3321TIP3    H134158   2.776   5.234  16.928 -0.0133 -0.3086  0.1158
 3321TIP3    H234159   2.876   5.201  16.818  1.2220 -0.3239  1.2219
 3322TIP3   OH234160   5.048   6.499  20.208 -0.1917 -0.3048  0.1567
 3322TIP3    H134161   5.022   6.559  20.139  0.9459 -0.3744 -0.3590
 3322TIP3    H234162   4.967   6.480  20.256 -0.8239  0.4624 -0.5839
 3323TIP3   OH234163   0.043   3.408  19.462 -0.0720  0.0110 -0.0601
 3323TIP3    H134164  -0.029   3.470  19.448  0.3465  0.5326  0.0720
 3323TIP3    H234165  -0.001   3.323  19.472 -0.8909  0.6033  2.3453
 3324TIP3   OH234166   3.562   0.433  20.362 -0.8234  0.2118 -0.0768
 3324TIP3    H134167   3.583   0.489  20.288 -2.5822  0.0027 -0.7872
 3324TIP3    H234168   3.535   0.494  20.431  1.7447  0.4729  0.8039
 3325TIP3   OH234169   0.851   6.350  18.490 -0.4872  0.6506  0.8613
 3325TIP3    H134170   0.861   6.273  18.435  0.6744  1.1088  0.3942
 3325TIP3    H234171   0.799   6.411  18.437 -1.9058 -0.0079  1.4621
 3326TIP3   OH234172   6.236   3.694  17.680 -0.1616  0.3433  0.1189
 3326TIP3    H134173   6.305   3.630  17.695  0.2702  1.1516  1.7804
 3326TIP3    H234174   6.155   3.648  17.704 -0.1734 -0.3725 -1.1637
 3327TIP3   OH234175   0.176   6.350  20.219 -0.0583 -0.9875  0.2373
 3327TIP3    H134176   0.236   6.276  20.227  0.4219 -0.7982 -1.2705
 3327TIP3    H234177   0.228   6.425  20.249 -0.2415 -1.1197  0.8998
 3328TIP3   OH234178   4.159   5.550  16.105 -0.6722 -0.8106 -0.2821
 3328TIP3    H134179   4.187   5.577  16.018  1.8104 -0.4731  0.5302
 3328TIP3    H234180   4.222   5.481  16.130 -0.1297  0.3845  1.9121
 3329TIP3   OH234181   3.762   4.241  18.668 -0.0733  0.1971 -0.2111
 3329TIP3    H134182   3.833   4.229  18.604  0.2152  1.8669 -0.2500
 3329TIP3    H234183   3.806   4.272  18.747 -0.5784 -0.5572  0.3786
 3330TIP3   OH234184   4.243   5.335  17.831  0.7453  0.0223  1.1283
 3330TIP3    H134185   4.328   5.331  17.875  1.8773  0.8774 -0.8494
 3330TIP3    H234186   4.264   5.335  17.737 -1.3352  1.6314  0.5760
 3331TIP3   OH234187   0.594   5.074  16.910 -0.9292 -0.1902  0.0257
 3331TIP3    H134188   0.685   5.101  16.920 -0.9205 -0.9737  3.0608
 3331TIP3    H234189   0.549   5.153  16.879  0.4188  0.9193  0.7927
 3332TIP3   OH234190   0.244   5.826  17.937  0.1996 -0.0891  0.7531
 3332TIP3    H134191   0.273   5.810  17.847  1.1535  1.7187  0.6907
 3332TIP3    H234192   0.168   5.769  17.948 -0.5425  0.3471 -1.5330
 3333TIP3   OH234193   5.373   1.054  18.023 -0.2378 -0.4209  0.4335
 3333TIP3    H134194   5.298   1.013  18.066  0.2550 -3.3117 -1.1744
 3333TIP3    H234195   5.443   0.988  18.030  2.1209  1.9953  1.5444
 3334TIP3   OH234196   4.000   5.497  19.221  0.0891 -0.2185  0.1237
 3334TIP3    H134197   4.063   5.485  19.150 -0.4774 -0.7014 -0.3025
 3334TIP3    H234198   3.982   5.409  19.253 -1.7064 -0.2837 -0.9410
 3335TIP3   OH234199   0.538   0.924  19.906  0.1604  0.2101 -0.5120
 3335TIP3    H134200   0.531   0.959  19.995 -1.7718  0.2167 -0.6434
 3335TIP3    H234201   0.509   0.833  19.914 -0.8463  0.4575 -1.2814
 3336TIP3   OH234202   6.357   0.075  17.575  0.4383 -0.0678  0.9589
 3336TIP3    H134203   6.267   0.107  17.580  0.5133  0.1198  1.1376
 3336TIP3    H234204   6.399   0.132  17.510  0.6500  0.3932  1.4921
 3337TIP3   OH234205   2.965   6.397  18.648 -0.0070  0.3962  0.0232
 3337TIP3    H134206   2.870   6.385  18.657 -0.0355  0.5908 -0.0122
 3337TIP3    H234207   2.990   6.446  18.727  0.4206 -1.5552  1.1570
 3338TIP3   OH234208   1.263   2.544  17.746  0.2158  0.3499 -0.6585
 3338TIP3    H134209   1.248   2.607  17.817  0.4345  1.0857 -1.2539
 3338TIP3    H234210   1.286   2.463  17.791  1.4090  1.0798  0.1077
 3339TIP3   OH234211   2.524   0.511  18.553 -0.3516 -0.6175 -0.1311
 3339TIP3    H134212   2.444   0.480  18.511 -0.3183 -1.2187  0.2308
 3339TIP3    H234213   2.593   0.492  18.489 -0.0984 -2.8580  0.6976
 3340TIP3   OH234214   4.997   1.943  18.316  0.0638  0.2806  0.1513
 3340TIP3    H134215   5.008   1.855  18.352  0.6176  0.4008  0.2775
 3340TIP3    H234216   5.026   2.002  18.386 -1.8333  0.6446  0.6915
 3341TIP3   OH234217   1.666   0.476  18.160  0.6386 -0.2759  0.1652
 3341TIP3    H134218   1.619   0.393  18.169 -0.7590  0.4850  0.2450
 3341TIP3    H234219   1.756   0.456  18.185  0.2604 -1.6929  0.4746
 3342TIP3   OH234220   2.571   0.311  17.760  0.3138 -0.3289 -0.2044
 3342TIP3    H134221   2.610   0.224  17.767 -0.0690 -0.5415 -0.6789
 3342TIP3    H234222   2.478   0.295  17.745  0.5193  0.0995 -2.2954
 3343TIP3   OH234223   0.067   4.070  19.831 -0.3717  0.3536 -0.0146
 3343TIP3    H134224   0.084   4.036  19.919  1.0703  0.5668 -0.1832
 3343TIP3    H234225   0.060   3.992  19.777 -0.3076  0.2473  0.1280
 3344TIP3   OH234226   1.137   1.199  20.066  0.5588  0.3088  0.3702
 3344TIP3    H134227   1.167   1.289  20.080  1.5225  0.2464 -1.0862
 3344TIP3    H234228   1.207   1.145  20.102  0.1128  0.1363  0.9835
 3345TIP3   OH234229   3.841   5.193  18.301  0.1320 -0.2493  0.4656
 3345TIP3    H134230   3.818   5.187  18.208  1.0612  0.5963  0.1666
 3345TIP3    H234231   3.905   5.123  18.314  0.2456 -0.1595  0.3917
 3346TIP3   OH234232   1.567   1.110  19.256  0.2065 -0.0421 -0.6936
 3346TIP3    H134233   1.501   1.062  19.206  0.4066  0.3792 -1.3794
 3346TIP3    H234234   1.624   1.042  19.292 -0.9837 -0.4577  0.4983
 3347TIP3   OH234235   1.109   2.108  17.009 -0.0603  0.0427  0.0400
 3347TIP3    H134236   1.201   2.117  16.982  0.5869 -0.8877  1.7568
 3347TIP3    H234237   1.096   2.177  17.074 -0.4186 -0.1254  0.1486
 3348TIP3   OH234238   1.953   5.639  17.401  0.0179 -0.5754  0.2575
 3348TIP3    H134239   1.860   5.638  17.422 -0.7231 -0.6352 -2.6180
 3348TIP3    H234240   1.977   5.732  17.405  0.4553 -0.7103  2.9981
 3349TIP3   OH234241   4.817   4.647  16.903 -0.4450  0.2575  0.3772
 3349TIP3    H134242   4.730   4.610  16.890 -0.6725  0.2422  1.7140
 3349TIP3    H234243   4.821   4.723  16.845 -2.0258  1.2866  1.5370
 3350TIP3   OH234244   0.929   0.263  20.048  0.1174 -0.5861 -0.8319
 3350TIP3    H134245   0.945   0.357  20.043  0.1478 -0.6363 -1.8848
 3350TIP3    H234246   0.943   0.241  20.140 -0.0464  0.4622 -0.5451
 3351TIP3   OH234247   3.965   0.384  19.114 -0.1091 -0.1428 -0.2262
 3351TIP3    H134248   3.963   0.343  19.028 -0.4077 -0.0564 -0.2614
 3351TIP3    H234249   4.029   0.454  19.106 -1.4721  1.0841 -0.9332
 3352TIP3   OH234250   0.033   5.745  20.200  0.2212  0.8969  0.1401
 3352TIP3    H134251  -0.020   5.818  20.231 -1.8544  0.3132 -1.7436
 3352TIP3    H234252  -0.017   5.708  20.127  1.9185 -1.4811  0.0502
 3353TIP3   OH234253   3.798   6.064  19.829 -0.2364 -0.2656 -0.0229
 3353TIP3    H134254   3.727   6.106  19.878 -0.6355  0.5221 -1.2123
 3353TIP3    H234255   3.758   6.041  19.745  0.6449 -0.7735 -0.3080
 3354TIP3   OH234256   1.534   2.870  18.668  0.3594  0.2039 -0.5107
 3354TIP3    H134257   1.595   2.833  18.732 -0.2250 -1.0151 -0.6102
 3354TIP3    H234258   1.540   2.811  18.593 -0.1332  0.6967 -0.9441
 3355TIP3   OH234259   3.074   6.490  20.502 -0.2046  0.2752 -0.6307
 3355TIP3    H134260   3.047   6.531  20.585  0.5230  0.9979 -0.7410
 3355TIP3    H234261   3.060   6.558  20.436 -1.2403 -0.4505 -1.2006
 3356TIP3   OH234262   4.109   1.713  17.300 -0.2753  1.0343  0.4357
 3356TIP3    H134263   4.176   1.735  17.365  0.3839  2.0453 -0.5465
 3356TIP3    H234264   4.145   1.744  17.217 -0.7288 -0.9736 -0.5711
 3357TIP3   OH234265   1.350   4.085  18.574 -0.9473  0.1767 -0.0900
 3357TIP3    H134266   1.367   3.999  18.536  0.5578 -0.1885  1.2597
 3357TIP3    H234267   1.256   4.099  18.562 -1.1255 -1.4121 -0.8064
 3358TIP3   OH234268   3.186   4.584  17.884  0.2543 -0.1998 -0.0252
 3358TIP3    H134269   3.166   4.650  17.951  2.4442  0.4303  0.1029
 3358TIP3    H234270   3.209   4.636  17.807  2.6115 -0.7174  0.2557
 3359TIP3   OH234271   4.361   1.657  20.289  0.3945 -0.0065  0.4573
 3359TIP3    H134272   4.287   1.698  20.243 -0.2702 -1.6368 -0.0107
 3359TIP3    H234273   4.325   1.633  20.375  1.0795  1.3096  1.1270
 3360TIP3   OH234274   0.013   2.407  18.589 -0.0069 -0.2339 -0.3251
 3360TIP3    H134275   0.022   2.491  18.634  0.8662  0.3748 -1.5757
 3360TIP3    H234276  -0.081   2.396  18.576 -0.2225 -0.0771  0.9674
 3361TIP3   OH234277   1.878   1.220  20.240  0.1489  0.6621 -0.2611
 3361TIP3    H134278   1.956   1.238  20.188 -0.3443 -1.2162 -1.7512
 3361TIP3    H234279   1.835   1.305  20.249  0.1013  1.0584 -3.2614
 3362TIP3   OH234280   1.832   6.280  18.049 -0.3814  0.6456  0.4385
 3362TIP3    H134281   1.916   6.305  18.010  1.1080 -1.0400  2.3634
 3362TIP3    H234282   1.803   6.205  17.998 -0.3840  0.8040  0.2034
 3363TIP3   OH234283   1.018   1.955  17.661 -0.5980  0.2591  0.0368
 3363TIP3    H134284   1.009   1.992  17.574 -0.4830  0.5370  0.1445
 3363TIP3    H234285   0.982   1.866  17.653  1.0623 -0.3870 -0.7410
 3364TIP3   OH234286   3.436   6.183  19.952 -0.1671  0.3309 -0.1938
 3364TIP3    H134287   3.432   6.278  19.949 -2.1973  0.2686 -1.0978
 3364TIP3    H234288   3.425   6.156  19.860  0.6885 -0.7803  0.0099
 3365TIP3   OH234289   5.694   3.232  20.130  0.6813 -0.8964  0.4757
 3365TIP3    H134290   5.761   3.257  20.193 -0.0594 -0.7982  1.2458
 3365TIP3    H234291   5.653   3.315  20.104  1.1540 -0.9074 -0.3456
 3366TIP3   OH234292   0.961   5.512  18.347 -0.0002 -0.0928  0.0728
 3366TIP3    H134293   0.958   5.463  18.265 -0.0709 -1.9504  1.1410
 3366TIP3    H234294   0.992   5.599  18.322 -1.5316 -0.1089 -2.1419
 3367TIP3   OH234295   5.712   0.926  17.583 -0.0540 -0.1629 -0.6447
 3367TIP3    H134296   5.666   0.872  17.519  0.1088  0.4495 -1.2922
 3367TIP3    H234297   5.659   0.921  17.662  0.9068 -2.7904 -0.0557
 3368TIP3   OH234298   2.935   1.579  17.967 -0.1625  0.0074  0.1006
 3368TIP3    H134299   3.028   1.598  17.957 -0.0978  0.4664  1.3752
 3368TIP3    H234300   2.925   1.488  17.940  0.6403 -0.0175 -0.1118
 3369TIP3   OH234301   3.502   3.734  18.743 -0.3266 -0.3237  0.2990
 3369TIP3    H134302   3.508   3.653  18.793 -1.0655 -1.9855 -2.1660
 3369TIP3    H234303   3.414   3.734  18.706  0.3383  0.5849 -1.3761
 3370TIP3   OH234304   1.599   0.864  20.028  0.2002  0.0633  0.0597
 3370TIP3    H134305   1.650   0.894  20.103  1.1562 -0.5716 -0.3127
 3370TIP3    H234306   1.597   0.768  20.037  0.8646 -0.0722 -1.0450
 3371TIP3   OH234307   5.928   3.303  17.178 -0.0657  0.1218 -0.0202
 3371TIP3    H134308   6.013   3.264  17.162 -0.5169 -0.5400 -0.8817
 3371TIP3    H234309   5.878   3.234  17.222 -0.1505  0.5122  0.5029
 3372TIP3   OH234310   4.969   5.544  20.439 -0.3210 -0.0611 -0.6530
 3372TIP3    H134311   5.032   5.614  20.450 -1.6920  1.0753  0.3771
 3372TIP3    H234312   4.917   5.570  20.362 -1.2679  0.4403  0.1352
 3373TIP3   OH234313   2.020   2.859  17.742  0.2568  0.1480  0.2043
 3373TIP3    H134314   2.038   2.938  17.690  0.3054 -1.2979 -2.1603
 3373TIP3    H234315   2.045   2.882  17.831 -0.6449  3.1004 -0.1937
 3374TIP3   OH234316   0.690   5.096  18.731 -0.2536 -0.1568  0.3250
 3374TIP3    H134317   0.757   5.096  18.799 -0.6329  0.6742  0.7097
 3374TIP3    H234318   0.723   5.157  18.665 -0.7779  0.5075  0.6704
 3375TIP3   OH234319   4.996   6.064  19.683  0.3475  0.3065 -0.3523
 3375TIP3    H134320   4.905   6.067  19.653  0.6304 -0.5720 -1.3410
 3375TIP3    H234321   5.034   6.147  19.654  0.3427 -0.0993 -1.5467
 3376TIP3   OH234322   1.030   2.938  18.649 -0.4975  0.0735 -0.4466
 3376TIP3    H134323   1.021   2.955  18.555  0.2124  1.6624 -0.2529
 3376TIP3    H234324   1.056   2.846  18.654 -1.6421 -0.3617 -1.7356
 3377TIP3   OH234325   5.042   6.173  17.379 -0.0511  0.3877  0.4039
 3377TIP3    H134326   4.960   6.134  17.348 -0.3520  1.1894  0.1676
 3377TIP3    H234327   5.030   6.267  17.366  1.1647  0.4691 -0.2518
 3378TIP3   OH234328   4.507   0.254  17.794  0.2590  0.3335 -0.6137
 3378TIP3    H134329   4.467   0.206  17.867 -0.1774 -0.7416 -1.5352
 3378TIP3    H234330   4.434   0.269  17.733  0.6737  0.9643 -0.9618
 3379TIP3   OH234331   0.003   0.644  18.715 -0.4187  0.0162  0.2567
 3379TIP3    H134332  -0.065   0.707  18.737 -1.5866 -1.2140  0.2769
 3379TIP3    H234333   0.063   0.692  18.658 -1.6640  0.9260 -0.3095
 3380TIP3   OH234334   4.894   4.473  18.735 -0.5867 -0.5325 -0.2069
 3380TIP3    H134335   4.928   4.410  18.672  1.1459  0.7115 -0.5934
 3380TIP3    H234336   4.855   4.542  18.682 -2.4678 -1.2379  0.2095
 3381TIP3   OH234337   2.608   5.842  18.769  0.2214 -0.3189  0.3675
 3381TIP3    H134338   2.692   5.854  18.724  1.0119 -0.9516  1.6214
 3381TIP3    H234339   2.568   5.766  18.727  0.0837  0.2285 -0.5044
 3382TIP3   OH234340   1.725   4.406  19.215  0.0764  0.1731 -0.2451
 3382TIP3    H134341   1.817   4.433  19.219  0.3661 -0.8702  1.1901
 3382TIP3    H234342   1.696   4.406  19.306 -0.4087 -2.5100 -0.3251
 3383TIP3   OH234343   2.574   3.657  17.158 -0.1187  0.0464 -0.4290
 3383TIP3    H134344   2.660   3.616  17.159 -0.3074 -0.4352 -1.7280
 3383TIP3    H234345   2.513   3.584  17.150 -0.5800  0.4619 -0.7536
 3384TIP3   OH234346   2.569   6.189  18.100 -0.2315 -0.3481  0.2027
 3384TIP3    H134347   2.478   6.168  18.081  0.1141  0.1132 -2.2175
 3384TIP3    H234348   2.565   6.252  18.172 -1.6537 -2.0307  1.6931
 3385TIP3   OH234349   0.053   3.750  19.064 -0.6541 -0.1630  0.6227
 3385TIP3    H134350   0.028   3.658  19.060  0.3242 -0.5643  2.4479
 3385TIP3    H234351   0.008   3.784  19.142 -0.3209  0.6624  0.4641
 3386TIP3   OH234352   6.194   6.043  19.115  0.5586  0.0700  0.4808
 3386TIP3    H134353   6.123   5.990  19.152 -1.2828  1.3166 -1.0851
 3386TIP3    H234354   6.157   6.081  19.035  2.8298  1.2287 -0.1112
 3387TIP3   OH234355   3.357   0.681  19.063  0.0892  0.2624  0.0385
 3387TIP3    H134356   3.263   0.664  19.074 -0.5039  0.3938 -3.6071
 3387TIP3    H234357   3.361   0.767  19.022  1.8480  0.3972  0.4358
 3388TIP3   OH234358   2.410   5.362  19.245  0.1984 -0.0999  0.3846
 3388TIP3    H134359   2.467   5.285  19.244  2.0748  1.2263  0.3791
 3388TIP3    H234360   2.397   5.381  19.337  0.4284  0.0721  0.3807
 3389TIP3   OH234361   4.215   2.481  20.130  0.0481 -0.1997  0.1777
 3389TIP3    H134362   4.280   2.550  20.122 -0.1522  0.1201  1.0852
 3389TIP3    H234363   4.265   2.400  20.127  0.2015 -0.0808 -1.7424
 3390TIP3   OH234364   6.445   5.706  17.414 -0.4660  0.5074  0.1962
 3390TIP3    H134365   6.509   5.636  17.402 -1.7139 -0.8407  1.2026
 3390TIP3    H234366   6.457   5.762  17.337  0.2871 -1.0023 -0.8403
 3391TIP3   OH234367   4.697   2.802  17.907  0.0195  0.4629 -0.0836
 3391TIP3    H134368   4.738   2.850  17.979  0.8909 -1.4993  0.8051
 3391TIP3    H234369   4.769   2.780  17.848 -0.0083 -1.2214  0.4357
 3392TIP3   OH234370   0.480   0.944  18.486 -0.1065  0.2638  0.0203
 3392TIP3    H134371   0.575   0.937  18.480 -0.1176  0.0125  0.1194
 3392TIP3    H234372   0.449   0.927  18.397 -0.1044 -0.5126  0.1585
 3393TIP3   OH234373   4.500   3.614  18.663 -0.4996  0.3484 -0.5168
 3393TIP3    H134374   4.546   3.566  18.732 -2.8251  0.4303  1.2121
 3393TIP3    H234375   4.553   3.601  18.585  2.2236  0.1815  1.2457
 3394TIP3   OH234376   6.115   4.256  19.440 -0.4916  0.0999  0.3308
 3394TIP3    H134377   6.161   4.173  19.449 -0.8790 -0.2651 -0.9104
 3394TIP3    H234378   6.035   4.244  19.492 -0.5248 -0.2891  0.1948
 3395TIP3   OH234379   0.475   2.855  20.179  0.1916  0.2497  0.4965
 3395TIP3    H134380   0.422   2.777  20.162  1.7026 -0.5390 -0.7682
 3395TIP3    H234381   0.411   2.923  20.198 -1.3192 -0.5824 -1.3095
 3396TIP3   OH234382   1.474   6.217  17.513  0.3785 -0.4003 -0.1836
 3396TIP3    H134383   1.446   6.308  17.517  0.0904 -0.5104  0.2828
 3396TIP3    H234384   1.395   6.168  17.492  0.5442 -0.5413 -0.4962
 3397TIP3   OH234385   1.443   6.222  20.211  0.1934  0.0425  0.2671
 3397TIP3    H134386   1.359   6.199  20.250  0.7400 -0.8316  0.9568
 3397TIP3    H234387   1.446   6.317  20.213 -0.0063  0.0274  1.9066
 3398TIP3   OH234388   6.199   2.631  18.177  0.0870 -0.0998 -0.4790
 3398TIP3    H134389   6.155   2.702  18.225  0.3610  0.2292 -0.7117
 3398TIP3    H234390   6.279   2.615  18.227 -0.2232 -0.6019 -0.1345
 3399TIP3   OH234391   2.466   3.073  19.894  0.0317 -0.1583 -0.4621
 3399TIP3    H134392   2.424   2.987  19.888 -2.7941  0.9371  1.4545
 3399TIP3    H234393   2.510   3.073  19.979 -0.2547  0.3753 -0.3090
 3400TIP3   OH234394   5.222   1.235  18.939  0.1234 -0.2690  0.9470
 3400TIP3    H134395   5.310   1.224  18.902  0.1314  0.8365  0.6003
 3400TIP3    H234396   5.170   1.269  18.866 -0.1731  0.7089  1.5865
 3401TIP3   OH234397   0.431   5.852  18.964  0.0284 -0.4018 -0.2357
 3401TIP3    H134398   0.377   5.887  18.894  0.4118 -0.9530 -0.8227
 3401TIP3    H234399   0.379   5.863  19.043 -0.7415 -0.5136 -0.7227
 3402TIP3   OH234400   2.833   0.840  19.234 -0.0726  0.4399  0.0826
 3402TIP3    H134401   2.915   0.883  19.257  0.0148 -0.0534  0.6891
 3402TIP3    H234402   2.857   0.749  19.217 -0.2766  0.5894 -1.0922
 3403TIP3   OH234403   5.323   0.156  18.028 -0.0186 -0.3687  0.8222
 3403TIP3    H134404   5.251   0.218  18.032  0.4156  0.3284 -1.0539
 3403TIP3    H234405   5.286   0.073  18.057 -1.1843  0.3025  1.2865
 3404TIP3   OH234406   4.548   5.696  18.846 -0.7681 -0.0339 -0.1218
 3404TIP3    H134407   4.636   5.734  18.853  0.7985 -3.0800 -1.4411
 3404TIP3    H234408   4.499   5.758  18.792  0.1198  2.3102  1.5903
 3405TIP3   OH234409   5.293   5.752  17.256  0.5088  0.0031  0.7403
 3405TIP3    H134410   5.346   5.769  17.179 -1.2938 -0.3722 -0.6457
 3405TIP3    H234411   5.279   5.838  17.296  0.5696  0.3450  0.0320
 3406TIP3   OH234412   1.660   5.431  18.930  0.1998 -0.6187 -0.2899
 3406TIP3    H134413   1.721   5.385  18.989  1.6947 -1.1671 -2.1629
 3406TIP3    H234414   1.638   5.511  18.977  1.3490 -1.0205  1.0279
 3407TIP3   OH234415   5.769   5.082  19.798  0.2273 -0.2888  0.1773
 3407TIP3    H134416   5.851   5.073  19.749  0.3320  0.1907  0.2615
 3407TIP3    H234417   5.787   5.149  19.864  0.2046 -1.1884  1.1308
 3408TIP3   OH234418   2.319   0.167  19.555  0.8248 -0.2504  0.2172
 3408TIP3    H134419   2.231   0.190  19.526  0.0461 -0.7348  2.0420
 3408TIP3    H234420   2.356   0.250  19.585  0.5451 -0.2388  0.5376
 3409TIP3   OH234421   1.231   3.380  19.121  0.2906  0.3508  0.3311
 3409TIP3    H134422   1.265   3.317  19.185 -0.6244  0.6473  1.1251
 3409TIP3    H234423   1.308   3.430  19.094  0.6717  0.3560  1.3621
 3410TIP3   OH234424   3.258   1.728  18.446  0.0090 -0.3194 -0.1139
 3410TIP3    H134425   3.289   1.738  18.536 -1.4868 -0.5331  0.4561
 3410TIP3    H234426   3.181   1.785  18.441 -0.5176 -1.0754 -0.9448
 3411TIP3   OH234427   4.025   3.609  18.665  0.4240  0.4545  0.2765
 3411TIP3    H134428   3.972   3.621  18.744  1.0782  1.2839  0.6087
 3411TIP3    H234429   3.961   3.610  18.593 -0.1543 -0.0768  0.7701
 3412TIP3   OH234430   4.636   4.723  18.251 -0.0743 -0.7584 -0.4159
 3412TIP3    H134431   4.656   4.649  18.194  1.1239  0.2323 -1.3523
 3412TIP3    H234432   4.721   4.767  18.263 -0.4343 -0.5002  1.5334
 3413TIP3   OH234433   6.424   6.145  20.058 -0.1039  0.2649  0.0988
 3413TIP3    H134434   6.488   6.157  20.129  0.3785  0.8508 -0.4144
 3413TIP3    H234435   6.380   6.230  20.052  0.3288  0.4332 -0.7457
 3414TIP3   OH234436   4.226   5.080  19.095  0.0962  0.0033  0.6799
 3414TIP3    H134437   4.180   5.140  19.154  2.2893  0.3476  2.1471
 3414TIP3    H234438   4.317   5.110  19.096  0.9680 -2.4097  0.2207
 3415TIP3   OH234439   2.998   3.009  19.659  0.5172 -0.4102  0.4035
 3415TIP3    H134440   2.943   2.943  19.616 -1.1064  1.2809 -0.2153
 3415TIP3    H234441   3.071   3.021  19.599 -0.1353 -0.3102 -0.3895
 3416TIP3   OH234442   6.469   5.597  19.804  0.3218 -0.1819  0.7292
 3416TIP3    H134443   6.550   5.583  19.756 -0.8886 -0.8473 -1.2573
 3416TIP3    H234444   6.412   5.643  19.742 -0.8117  0.3241  2.0851
 3417TIP3   OH234445   2.323   4.213  17.405 -0.2302  0.0496  0.1521
 3417TIP3    H134446   2.283   4.136  17.446  0.6150 -1.0798 -1.0325
 3417TIP3    H234447   2.414   4.188  17.392  0.1303  1.3769 -0.0106
 3418TIP3   OH234448   1.382   5.144  19.003  0.0491  0.4508  0.2479
 3418TIP3    H134449   1.329   5.152  19.082  0.0604  0.7235  0.2294
 3418TIP3    H234450   1.399   5.051  18.995  0.1915  0.4383  0.6623
 3419TIP3   OH234451   6.594   3.799  16.785  0.6874  0.0936  0.6833
 3419TIP3    H134452   6.675   3.758  16.754  0.1206 -0.5131 -0.0512
 3419TIP3    H234453   6.601   3.890  16.758  0.6725 -0.1918 -0.3466
 3420TIP3   OH234454   2.416   3.136  20.196 -0.7438 -0.6403  0.0945
 3420TIP3    H134455   2.380   3.048  20.205 -0.5812 -0.5042  2.6566
 3420TIP3    H234456   2.511   3.125  20.202 -0.7218 -0.2819  0.4364
 3421TIP3   OH234457   0.257   0.715  19.743 -0.5587 -0.3185 -0.1277
 3421TIP3    H134458   0.182   0.656  19.737 -0.4925 -0.2562 -2.7946
 3421TIP3    H234459   0.220   0.803  19.732 -0.2133 -0.2178 -0.5237
 3422TIP3   OH234460   1.225   0.324  17.493  0.1620 -0.2690 -0.5766
 3422TIP3    H134461   1.257   0.386  17.559  0.1729 -0.5524 -0.3138
 3422TIP3    H234462   1.240   0.368  17.409  0.2660  0.0402 -0.3973
 3423TIP3   OH234463   0.699   1.222  19.917  0.1622  0.1245 -0.1489
 3423TIP3    H134464   0.749   1.200  19.996  0.1428  0.5237 -0.0201
 3423TIP3    H234465   0.608   1.204  19.940  0.1816  0.0168 -0.1575
 3424TIP3   OH234466   6.320   5.992  18.323  0.3295  0.4666  0.0239
 3424TIP3    H134467   6.405   6.028  18.349  0.6001  0.9370 -1.4227
 3424TIP3    H234468   6.339   5.904  18.292  0.5465  1.0797 -1.6721
 3425TIP3   OH234469   3.235   0.999  20.149  0.6672  0.5138 -0.3115
 3425TIP3    H134470   3.148   0.962  20.165  0.8054  0.4117  0.2335
 3425TIP3    H234471   3.248   1.060  20.222  1.1916  0.2773 -0.2025
 3426TIP3   OH234472   3.605   4.871  20.063  0.1300 -0.3734 -0.7054
 3426TIP3    H134473   3.640   4.786  20.040  1.0391 -0.0083 -0.7177
 3426TIP3    H234474   3.567   4.905  19.982 -2.0689 -1.5895 -0.2573
 3427TIP3   OH234475   6.660   6.710  20.307 -0.6784  0.0060 -0.1034
 3427TIP3    H134476   6.583   6.661  20.338 -2.0746  1.7436 -0.6559
 3427TIP3    H234477   6.633   6.801  20.313  2.0376  0.7952  1.4187
 3428TIP3   OH234478   5.498   5.834  18.294  0.4217  0.3895  0.5253
 3428TIP3    H134479   5.562   5.805  18.229 -0.6585 -0.2896 -0.2939
 3428TIP3    H234480   5.465   5.917  18.260 -0.8756 -0.4467 -0.4024
 3429TIP3   OH234481   5.477   0.092  17.521  0.4394 -0.2480  0.2829
 3429TIP3    H134482   5.393   0.088  17.476  0.7960  0.3628 -0.4694
 3429TIP3    H234483   5.542   0.086  17.450  1.0110  0.8268  0.7036
 3430TIP3   OH234484   4.108   4.987  17.838 -0.2591 -0.4404 -0.2479
 3430TIP3    H134485   4.093   4.901  17.878  2.6020 -0.8456  0.1585
 3430TIP3    H234486   4.147   5.040  17.907 -0.6795  0.7532 -0.8921
 3431TIP3   OH234487   5.202   2.480  18.511  0.6603  0.0968 -0.6360
 3431TIP3    H134488   5.189   2.574  18.517 -1.5299 -0.1093 -1.2033
 3431TIP3    H234489   5.171   2.446  18.594 -0.9384 -0.2855 -1.3512
 3432TIP3   OH234490   0.064   4.512  17.171 -0.3669  0.1482  0.0354
 3432TIP3    H134491   0.113   4.513  17.088  0.6841  0.1380  0.6396
 3432TIP3    H234492   0.002   4.584  17.163  0.9207  1.2892 -0.0827
 3433TIP3   OH234493   5.324   0.453  17.636 -0.5542 -0.4380  0.0222
 3433TIP3    H134494   5.379   0.529  17.620  0.1696 -1.4785 -3.2063
 3433TIP3    H234495   5.370   0.403  17.703  0.4071  0.5769  0.1458
 3434TIP3   OH234496   6.561   2.692  18.436  0.2020 -0.4056 -0.1225
 3434TIP3    H134497   6.493   2.626  18.423  0.8901 -0.9050 -1.3310
 3434TIP3    H234498   6.575   2.693  18.531 -1.6343 -0.1192  0.1807
 3435TIP3   OH234499   0.108   0.060  17.942 -0.3576 -0.0018 -0.4383
 3435TIP3    H134500   0.116   0.097  18.030 -0.2247 -0.2661 -0.3382
 3435TIP3    H234501   0.061   0.127  17.891 -0.1649  0.2796 -0.2458
 3436TIP3   OH234502   5.663   3.857  19.690 -0.1496 -0.0052  0.4425
 3436TIP3    H134503   5.737   3.807  19.655  0.3878  0.9476  0.1749
 3436TIP3    H234504   5.586   3.809  19.661  0.3584 -1.1525  0.9280
 3437TIP3   OH234505   6.145   6.290  18.673 -0.6140 -0.4683 -0.3888
 3437TIP3    H134506   6.136   6.240  18.593 -1.7064 -0.3627 -0.3399
 3437TIP3    H234507   6.240   6.300  18.685 -0.4363 -0.9693 -1.3483
 3438TIP3   OH234508   1.530   3.249  18.838 -0.3240  0.0084  0.1174
 3438TIP3    H134509   1.511   3.337  18.806 -0.0632 -0.2351 -0.7367
 3438TIP3    H234510   1.583   3.264  18.917  1.5284  0.6323 -1.1657
 3439TIP3   OH234511   1.318   4.124  18.249 -0.1180  0.0143  0.4661
 3439TIP3    H134512   1.266   4.130  18.330 -0.3255 -2.2310  0.5585
 3439TIP3    H234513   1.253   4.121  18.179  0.0356  0.7976  0.2740
 3440TIP3   OH234514   2.917   0.787  18.677  0.4629  0.1648 -0.3155
 3440TIP3    H134515   2.962   0.706  18.699 -1.7687 -0.4226  2.6907
 3440TIP3    H234516   2.902   0.830  18.761 -1.1437  2.1933 -1.5404
 3441TIP3   OH234517   0.371   0.308  19.848 -0.5998  0.3707 -0.2014
 3441TIP3    H134518   0.420   0.283  19.926 -0.4705 -0.7425 -0.6169
 3441TIP3    H234519   0.434   0.355  19.794 -0.7509  1.3441  0.4493
 3442TIP3   OH234520   1.341   5.715  18.123 -0.2358 -0.0231 -0.2169
 3442TIP3    H134521   1.368   5.759  18.203 -0.2242  0.3504 -0.4249
 3442TIP3    H234522   1.262   5.666  18.148  0.9424 -1.6154  0.5373
 3443TIP3   OH234523   0.159   1.485  18.901 -0.1886 -0.2194  0.2188
 3443TIP3    H134524   0.168   1.431  18.823  1.9083 -0.4374  0.5510
 3443TIP3    H234525   0.096   1.553  18.876 -1.4971 -1.7125 -0.7949
 3444TIP3   OH234526   0.555   2.739  17.355  0.0660 -0.4035 -0.5251
 3444TIP3    H134527   0.600   2.657  17.372  2.0289  0.7457  0.2032
 3444TIP3    H234528   0.552   2.783  17.440 -0.9711  0.2842 -0.8927
 3445TIP3   OH234529   1.741   3.161  16.658 -0.8243  0.5610 -0.0585
 3445TIP3    H134530   1.660   3.126  16.621 -0.5912  0.1546 -0.1805
 3445TIP3    H234531   1.712   3.238  16.708 -1.2915  0.3864 -0.0516
 3446TIP3   OH234532   4.363   4.903  18.062  0.6320 -0.2963 -0.0900
 3446TIP3    H134533   4.456   4.904  18.042  0.8541 -1.8424  0.6912
 3446TIP3    H234534   4.355   4.844  18.137 -1.1282 -1.3854 -1.0414
 3447TIP3   OH234535   5.385   3.650  20.299 -0.4250  0.2644  0.1836
 3447TIP3    H134536   5.303   3.632  20.344 -0.2820  0.4388  0.5219
 3447TIP3    H234537   5.440   3.573  20.317 -0.4718  0.2047  0.0671
 3448TIP3   OH234538   4.421   1.574  19.020 -0.0174 -0.2138  0.0095
 3448TIP3    H134539   4.421   1.669  19.020 -0.1962 -0.2024  1.2585
 3448TIP3    H234540   4.354   1.549  19.084  1.1160 -1.1478  0.8820
 3449TIP3   OH234541   0.304   0.342  18.092  0.2349  0.5252  0.0872
 3449TIP3    H134542   0.251   0.330  18.014  0.8702  0.6045 -0.3624
 3449TIP3    H234543   0.367   0.270  18.090 -0.7485 -0.4131  1.3710
 3450TIP3   OH234544   1.957   5.622  17.844  0.1326  0.7899 -0.2686
 3450TIP3    H134545   1.939   5.537  17.883  1.2605  0.6496 -0.0187
 3450TIP3    H234546   1.958   5.606  17.750 -1.8436  0.9817 -0.3647
 3451TIP3   OH234547   2.657   3.696  17.605 -0.0507  0.1919 -0.2226
 3451TIP3    H134548   2.616   3.736  17.529  0.8528  0.4292 -0.6064
 3451TIP3    H234549   2.680   3.607  17.576 -0.9039 -0.1743  0.2123
 3452TIP3   OH234550   6.697   4.135  19.005 -0.6002 -0.1370  0.1720
 3452TIP3    H134551   6.685   4.061  18.945  0.5990  0.7445 -1.2269
 3452TIP3    H234552   6.771   4.110  19.059  2.1711  1.3234 -2.6216
 3453TIP3   OH234553   2.032   6.134  19.798  0.3842 -0.0061  0.5032
 3453TIP3    H134554   1.966   6.066  19.804  0.9746 -0.6178  0.1595
 3453TIP3    H234555   1.982   6.216  19.799 -0.7738 -0.4341 -3.4284
 3454TIP3   OH234556   3.024   0.398  17.752  0.4615 -0.1971  0.5601
 3454TIP3    H134557   2.981   0.413  17.667  1.8568  1.6865  0.1029
 3454TIP3    H234558   3.070   0.314  17.741 -1.2819 -1.1514  0.3170
 3455TIP3   OH234559   4.195   3.750  19.364  0.4056 -0.3618  0.3987
 3455TIP3    H134560   4.263   3.686  19.345  1.4732  0.1223  2.3866
 3455TIP3    H234561   4.204   3.816  19.295  1.6839 -0.5147  0.4047
 3456TIP3   OH234562   0.990   6.378  19.561 -0.8329 -0.5017  0.4209
 3456TIP3    H134563   0.945   6.338  19.487  0.4300  0.7322 -1.0865
 3456TIP3    H234564   1.069   6.325  19.573  1.0790  1.5619 -1.8735
 3457TIP3   OH234565   4.549   5.434  18.929 -0.1612  0.0219  0.1743
 3457TIP3    H134566   4.503   5.514  18.904  1.9384  1.1659 -0.2796
 3457TIP3    H234567   4.636   5.464  18.956 -0.2534 -1.8130  2.9014
 3458TIP3   OH234568   1.933   6.193  17.562 -1.1358  0.2019 -0.3810
 3458TIP3    H134569   2.012   6.217  17.513 -0.6468 -0.4186  0.0967
 3458TIP3    H234570   1.944   6.235  17.647 -0.7094 -0.9037  0.1335
 3459TIP3   OH234571   0.769   2.783  19.050  0.3322  0.4431  0.5663
 3459TIP3    H134572   0.864   2.787  19.057  0.3609  0.9167 -0.0297
 3459TIP3    H234573   0.753   2.771  18.956 -0.1768 -0.3540  0.7406
 3460TIP3   OH234574   3.015   3.870  18.205  0.2080  0.3757  0.5359
 3460TIP3    H134575   3.046   3.852  18.293  1.8409  0.9633  0.1098
 3460TIP3    H234576   3.049   3.799  18.152  1.3537  1.3135 -0.0361
 3461TIP3   OH234577   1.470   3.452  17.347 -0.3424 -0.0186  0.0876
 3461TIP3    H134578   1.409   3.428  17.277  0.3927  1.9385 -1.3176
 3461TIP3    H234579   1.552   3.410  17.322 -0.3690 -0.2807  0.4300
 3462TIP3   OH234580   4.902   0.172  18.902  0.0575  0.0334  0.5233
 3462TIP3    H134581   4.939   0.130  18.980  1.6276  0.2366 -0.0744
 3462TIP3    H234582   4.959   0.248  18.886 -1.0312  0.7543 -0.0628
 3463TIP3   OH234583   4.620   6.582  18.008  0.2834  0.3924  0.1467
 3463TIP3    H134584   4.545   6.606  17.954 -0.0109  0.5663  0.6191
 3463TIP3    H234585   4.622   6.648  18.077  1.0215  0.5310  0.0027
 3464TIP3   OH234586   6.065   3.082  18.638  0.7445 -0.3100 -0.4324
 3464TIP3    H134587   5.991   3.043  18.592  0.1741  0.8717 -0.5387
 3464TIP3    H234588   6.048   3.176  18.638  0.2700 -0.2588  2.8751
 3465TIP3   OH234589   5.011   3.767  19.665 -0.0590  0.3052  0.0787
 3465TIP3    H134590   5.092   3.717  19.654  0.3188  0.3826  2.1689
 3465TIP3    H234591   5.002   3.815  19.583 -1.1845 -4.0796 -2.7221
 3466TIP3   OH234592   4.531   2.998  18.416 -0.1219 -0.5540  0.5933
 3466TIP3    H134593   4.474   3.039  18.351 -1.2004 -0.9287  1.2640
 3466TIP3    H234594   4.499   3.031  18.500  1.6545  0.4138  0.9286
 3467TIP3   OH234595   4.513   1.839  18.921  0.0763  0.4150 -0.1922
 3467TIP3    H134596   4.575   1.827  18.849  0.9775 -0.0416  0.6272
 3467TIP3    H234597   4.441   1.889  18.883 -0.7805 -2.0450 -2.1441
 3468TIP3   OH234598   2.065   3.034  17.062 -0.0185 -0.3025  0.0537
 3468TIP3    H134599   1.995   3.084  17.104 -2.7872 -1.9722 -2.2378
 3468TIP3    H234600   2.076   3.076  16.976 -0.5458 -1.9723 -0.8646
 3469TIP3   OH234601   6.223   1.919  19.607 -0.0255  0.2707 -0.3541
 3469TIP3    H134602   6.233   1.874  19.523  0.9182  1.0184 -0.6591
 3469TIP3    H234603   6.312   1.945  19.631 -0.1947 -0.4852  1.2077
 3470TIP3   OH234604   4.218   1.899  18.042  0.2504 -0.0417  0.5929
 3470TIP3    H134605   4.126   1.890  18.066  0.3458 -2.0834  0.3682
 3470TIP3    H234606   4.235   1.993  18.046 -2.7587  0.8429 -2.7862
 3471TIP3   OH234607   1.110   5.619  16.665 -0.4680 -0.1635 -0.0776
 3471TIP3    H134608   1.045   5.649  16.602 -1.3249  1.3107  1.4219
 3471TIP3    H234609   1.190   5.666  16.640 -0.3152 -0.9055 -1.0652
 3472TIP3   OH234610   0.547   5.796  17.035  0.0944  0.2726  0.0037
 3472TIP3    H134611   0.618   5.733  17.029 -0.2035 -0.0187 -0.4971
 3472TIP3    H234612   0.590   5.878  17.061  0.6253  0.1221 -0.3728
 3473TIP3   OH234613   2.523   0.632  18.222  0.5584 -0.4580  0.1463
 3473TIP3    H134614   2.527   0.553  18.276 -1.1334 -1.9293 -1.7261
 3473TIP3    H234615   2.430   0.643  18.203  1.0043  0.5362 -1.6699
 3474TIP3   OH234616   1.510   3.621  18.589 -1.0029 -0.3720 -0.1238
 3474TIP3    H134617   1.560   3.609  18.670 -0.1657 -1.1547 -0.7318
 3474TIP3    H234618   1.423   3.648  18.618  0.0107  1.9645  0.9476
 3475TIP3   OH234619   5.643   4.047  20.044 -0.1325  0.3398  0.2841
 3475TIP3    H134620   5.571   4.109  20.056 -1.0059 -0.4416 -0.7761
 3475TIP3    H234621   5.605   3.962  20.064 -0.0042 -0.2812 -1.8973
 3476TIP3   OH234622   6.453   3.097  18.409 -0.4589  0.0292 -0.6726
 3476TIP3    H134623   6.522   3.124  18.470 -1.4036  2.0835 -0.4279
 3476TIP3    H234624   6.432   3.008  18.436  2.1191 -0.7228 -0.8219
 3477TIP3   OH234625   0.769   4.883  16.376 -0.2681  0.1762  0.2370
 3477TIP3    H134626   0.722   4.966  16.374 -0.3026  0.1865  1.0222
 3477TIP3    H234627   0.727   4.830  16.309 -0.0289  0.8963 -0.5077
 3478TIP3   OH234628   5.897   5.321  19.541  0.3568  0.0662  0.2701
 3478TIP3    H134629   5.889   5.301  19.448  1.4161 -0.2926  0.2383
 3478TIP3    H234630   5.935   5.242  19.580  0.0632  0.2675  0.9810
 3479TIP3   OH234631   6.191   2.052  18.467 -0.0833  0.2953  0.0290
 3479TIP3    H134632   6.155   2.127  18.419  0.6309  0.1318 -0.7822
 3479TIP3    H234633   6.215   2.088  18.552  2.0662  1.5001 -0.9980
 3480TIP3   OH234634   6.270   5.483  18.905 -0.2369 -0.7942  0.1728
 3480TIP3    H134635   6.283   5.407  18.961 -0.3234  1.4246  3.4505
 3480TIP3    H234636   6.212   5.451  18.835  1.2511 -4.1316  0.2852
 3481TIP3   OH234637   2.980   2.256  17.307  0.0790 -0.3054 -0.3559
 3481TIP3    H134638   3.025   2.323  17.255  1.1552 -0.1022  0.7949
 3481TIP3    H234639   2.943   2.196  17.242 -0.2855  0.9995 -1.3896
 3482TIP3   OH234640   4.960   0.761  19.780 -0.0709  0.5960 -0.4771
 3482TIP3    H134641   4.946   0.841  19.728 -1.5612 -0.8296 -2.4182
 3482TIP3    H234642   4.884   0.757  19.838  1.3512  1.9271  1.6221
 3483TIP3   OH234643   6.076   2.796  18.357  0.2760 -0.2067 -0.3787
 3483TIP3    H134644   6.007   2.775  18.420 -0.1511  1.5134 -0.2008
 3483TIP3    H234645   6.149   2.827  18.411  0.9025 -1.2353 -0.6138
 3484TIP3   OH234646   1.420   3.186  19.178  0.2492  0.5108  0.2425
 3484TIP3    H134647   1.513   3.202  19.161 -0.1007  1.5073 -0.8350
 3484TIP3    H234648   1.418   3.102  19.225  1.6026 -0.1562 -0.8308
 3485TIP3   OH234649   3.433   0.626  17.232  0.3950 -0.1019 -0.0769
 3485TIP3    H134650   3.491   0.644  17.158  0.6305  0.7101  0.2834
 3485TIP3    H234651   3.440   0.705  17.287  1.3493 -1.2534  1.5429
 3486TIP3   OH234652   0.482   0.496  19.282 -0.2695  0.4096  0.3428
 3486TIP3    H134653   0.474   0.589  19.303 -3.1642  0.9274 -2.3150
 3486TIP3    H234654   0.392   0.466  19.272  0.6318 -1.9989 -1.5277
 3487TIP3   OH234655   5.616   6.112  20.497  0.2331 -0.2134 -0.2460
 3487TIP3    H134656   5.710   6.112  20.515  0.2869 -0.7310 -0.5063
 3487TIP3    H234657   5.600   6.028  20.455 -0.3066 -0.0252 -0.4203
 3488TIP3   OH234658   1.377   5.573  17.867 -0.0779 -0.2718  0.7830
 3488TIP3    H134659   1.312   5.606  17.929  0.8595  1.3625  0.9561
 3488TIP3    H234660   1.461   5.586  17.912  0.5284 -0.2786 -0.3099
 3489TIP3   OH234661   3.400   2.677  19.553 -0.9571  0.0952  0.1410
 3489TIP3    H134662   3.414   2.763  19.593 -1.2458  0.3452 -0.2932
 3489TIP3    H234663   3.486   2.635  19.556 -0.9948  0.0632  1.1220
 3490TIP3   OH234664   3.719   5.487  19.805 -0.0403  0.1288 -0.4344
 3490TIP3    H134665   3.681   5.541  19.874  1.6679  0.7074  0.1208
 3490TIP3    H234666   3.814   5.503  19.812  0.3629 -1.6046 -1.4035
 3491TIP3   OH234667   2.492   6.202  18.662 -0.1014 -0.5327 -0.3656
 3491TIP3    H134668   2.492   6.172  18.752 -2.0491  4.5981  1.7531
 3491TIP3    H234669   2.400   6.202  18.637 -0.0834  1.9047 -0.6797
 3492TIP3   OH234670   0.517   1.482  18.789 -0.4900  0.3279 -0.0851
 3492TIP3    H134671   0.484   1.537  18.860 -0.6289  0.1223  0.0111
 3492TIP3    H234672   0.496   1.531  18.709  1.0751  1.3160  0.0702
 3493TIP3   OH234673   3.415   0.367  17.053  0.3290  0.3553 -0.3744
 3493TIP3    H134674   3.385   0.323  17.132  0.5256  0.6132 -0.1537
 3493TIP3    H234675   3.454   0.298  17.000  0.1258  0.1683 -0.2822
 3494TIP3   OH234676   6.403   1.485  19.941 -0.3322 -0.2963  0.0826
 3494TIP3    H134677   6.445   1.438  20.013  0.8279  0.5143 -0.0328
 3494TIP3    H234678   6.327   1.527  19.980 -0.8888 -1.5108  0.3718
 3495TIP3   OH234679   5.486   0.287  17.241  0.9407 -0.5433  0.6770
 3495TIP3    H134680   5.558   0.274  17.179  0.6053  0.5648  0.0288
 3495TIP3    H234681   5.516   0.356  17.299  0.4120 -0.0725  0.4014
 3496TIP3   OH234682   3.084   0.237  19.468 -0.8426 -0.4826  0.1805
 3496TIP3    H134683   3.024   0.171  19.432 -0.7950 -1.0420  1.1034
 3496TIP3    H234684   3.143   0.258  19.396 -0.4217 -1.9678  0.0647
 3497TIP3   OH234685   4.172   5.134  18.052  0.1039  0.6083  0.1257
 3497TIP3    H134686   4.135   5.218  18.026  0.0763  0.5742  0.0544
 3497TIP3    H234687   4.240   5.156  18.115  1.0626  0.7926 -0.9269
 3498TIP3   OH234688   4.055   4.828  18.739 -0.1493  0.0872  0.1904
 3498TIP3    H134689   4.042   4.878  18.658 -1.6600  1.0886  1.0173
 3498TIP3    H234690   4.141   4.855  18.770 -0.0084  0.5018 -0.5270
 3499TIP3   OH234691   0.088   4.637  19.185 -0.3910 -0.1725  0.2017
 3499TIP3    H134692  -0.000   4.664  19.211  0.1095  0.9338  0.7630
 3499TIP3    H234693   0.146   4.678  19.248  0.5897 -0.3086 -0.5920
 3500TIP3   OH234694   6.009   4.249  17.268 -0.2704  0.6630 -0.0393
 3500TIP3    H134695   6.016   4.211  17.181 -1.6423  0.9580 -0.3055
 3500TIP3    H234696   5.924   4.219  17.300  0.5058 -0.0167  1.4919
 3501TIP3   OH234697   2.168   6.149  19.532  0.0740  0.4810  0.0289
 3501TIP3    H134698   2.110   6.082  19.566  0.7146  0.1959  0.5709
 3501TIP3    H234699   2.257   6.119  19.553  0.5824 -0.1630 -2.6695
 3502TIP3   OH234700   5.994   1.523  17.420 -0.2449  0.4598  0.4251
 3502TIP3    H134701   6.045   1.544  17.341 -1.7334 -0.0586 -0.7173
 3502TIP3    H234702   6.029   1.438  17.449 -0.2727  0.2307 -0.1927
 3503TIP3   OH234703   3.230   3.112  18.505  0.0154 -0.0603  0.2962
 3503TIP3    H134704   3.190   3.091  18.590  0.5799 -1.9535  0.1243
 3503TIP3    H234705   3.156   3.118  18.445 -0.3357  0.6629  0.7816
 3504TIP3   OH234706   3.946   0.599  19.455  0.3534 -0.1465  0.2566
 3504TIP3    H134707   3.942   0.607  19.551 -1.8401 -0.4133  0.2307
 3504TIP3    H234708   3.966   0.506  19.440  0.4941 -0.1497  0.4501
 3505TIP3   OH234709   0.629   3.319  18.319 -0.3366  0.2095  0.0979
 3505TIP3    H134710   0.607   3.227  18.332 -0.1197 -0.1843 -1.9972
 3505TIP3    H234711   0.544   3.364  18.321 -0.5632 -0.2003 -0.0441
 3506TIP3   OH234712   1.062   3.193  19.672  0.3384 -0.3173  0.4800
 3506TIP3    H134713   1.023   3.207  19.759  0.1611  0.7712  0.2417
 3506TIP3    H234714   1.133   3.130  19.688 -0.1783 -0.7167  1.2782
 3507TIP3   OH234715   0.398   3.925  18.747 -0.1698 -0.5029 -0.2489
 3507TIP3    H134716   0.391   3.849  18.805 -1.4890  1.1028  1.8224
 3507TIP3    H234717   0.355   3.996  18.794  1.4248  1.7031 -1.8948
 3508TIP3   OH234718   4.951   1.458  19.347 -0.0137 -0.0258 -0.1790
 3508TIP3    H134719   4.943   1.525  19.415 -1.1270  0.8878 -1.1685
 3508TIP3    H234720   4.929   1.504  19.266 -0.7763 -1.5908 -0.8949
 3509TIP3   OH234721   4.251   5.188  17.220 -0.1477 -0.1946 -0.4325
 3509TIP3    H134722   4.166   5.185  17.175 -0.7396  0.4839  0.5880
 3509TIP3    H234723   4.308   5.234  17.159 -0.6874 -0.0984 -0.8765
 3510TIP3   OH234724   3.802   6.589  20.211  0.4658  0.3552  0.7591
 3510TIP3    H134725   3.879   6.617  20.162 -0.0456  0.0579 -0.2391
 3510TIP3    H234726   3.799   6.494  20.200 -0.1794  0.3878  0.5639
 3511TIP3   OH234727   1.083   3.807  17.317  0.1763 -0.4874 -0.1655
 3511TIP3    H134728   1.095   3.715  17.294  0.2637  0.0581 -2.5405
 3511TIP3    H234729   1.135   3.856  17.253  0.5168  1.2399  1.3154
 3512TIP3   OH234730   4.597   3.543  20.048  0.5043  0.7282  0.0986
 3512TIP3    H134731   4.602   3.557  19.953  2.6058 -1.5445 -0.2206
 3512TIP3    H234732   4.675   3.587  20.083  0.5276  0.3063  0.5825
 3513TIP3   OH234733   2.407   0.186  16.682  0.6296  0.0654 -0.0485
 3513TIP3    H134734   2.447   0.106  16.648  0.2872 -0.4382  0.6982
 3513TIP3    H234735   2.426   0.252  16.616  0.1159 -0.8416 -1.1335
 3514TIP3   OH234736   1.133   6.083  17.811  0.5077  0.3939  0.4753
 3514TIP3    H134737   1.080   6.138  17.870 -0.1631  1.2639 -0.8904
 3514TIP3    H234738   1.153   6.140  17.737 -0.0943 -1.1518 -0.9414
 3515TIP3   OH234739   3.321   2.538  18.284  0.2901 -0.0056  0.1771
 3515TIP3    H134740   3.406   2.533  18.328 -0.0217  0.1152  0.8074
 3515TIP3    H234741   3.321   2.623  18.240  0.6892 -0.2179 -0.2417
 3516TIP3   OH234742   4.469   1.070  19.577 -0.1062  0.4493  0.1548
 3516TIP3    H134743   4.501   1.039  19.492 -0.5322  0.0430  0.1361
 3516TIP3    H234744   4.374   1.066  19.570 -0.1484 -0.3795  0.9240
 3517TIP3   OH234745   2.683   5.738  19.584 -0.2246  0.1654 -0.4902
 3517TIP3    H134746   2.698   5.646  19.605  2.0370  0.0357 -2.2480
 3517TIP3    H234747   2.590   5.744  19.566 -0.4444 -1.7646 -0.2128
 3518TIP3   OH234748   6.176   1.799  19.351  0.1442  0.7262 -0.2701
 3518TIP3    H134749   6.129   1.716  19.343  0.8764  0.2631  0.0740
 3518TIP3    H234750   6.155   1.848  19.272 -0.2615  0.1909 -0.4910
 3519TIP3   OH234751   6.627   6.248  16.728 -0.2074 -0.1978  0.2350
 3519TIP3    H134752   6.597   6.158  16.723  0.2244 -0.3673  0.5984
 3519TIP3    H234753   6.705   6.251  16.673  0.7638 -0.4741  1.5505
 3520TIP3   OH234754   3.634   4.082  19.105 -0.8210 -0.3942  0.2621
 3520TIP3    H134755   3.601   4.024  19.036 -0.6963  0.1493 -0.2626
 3520TIP3    H234756   3.725   4.055  19.118 -1.4813 -2.0669  1.8902
 3521TIP3   OH234757   3.695   2.619  19.536  0.1913 -0.4372  0.4881
 3521TIP3    H134758   3.725   2.653  19.451  0.6224 -2.7270 -0.3549
 3521TIP3    H234759   3.744   2.669  19.600  0.9397  0.3702 -0.6704
 3522TIP3   OH234760   2.438   6.133  19.532  0.3573 -0.2767  0.3634
 3522TIP3    H134761   2.515   6.093  19.494  1.7486 -1.2494  3.8432
 3522TIP3    H234762   2.432   6.219  19.490  2.2949 -0.8205 -1.1566
 3523TIP3   OH234763   1.004   3.719  19.349  0.4313 -0.4804  0.0662
 3523TIP3    H134764   0.917   3.760  19.343  0.5688  0.0312  1.2574
 3523TIP3    H234765   0.989   3.628  19.325 -0.3209 -0.2542 -0.3554
 3524TIP3   OH234766   2.327   6.597  18.298 -0.2187 -0.4296 -0.0941
 3524TIP3    H134767   2.404   6.546  18.276  0.0314 -0.8387  1.5756
 3524TIP3    H234768   2.359   6.686  18.312 -0.2896 -0.2944 -0.7473
 3525TIP3   OH234769   2.314   1.893  17.058 -0.3516  0.1338 -0.9784
 3525TIP3    H134770   2.385   1.886  16.994 -0.4579  1.4207 -1.2650
 3525TIP3    H234771   2.275   1.978  17.040  0.0478  0.8299  1.2423
 3526TIP3   OH234772   0.050   5.654  17.166 -0.4201 -0.0958 -0.6030
 3526TIP3    H134773   0.112   5.601  17.115 -1.9317  0.0295 -2.7182
 3526TIP3    H234774   0.058   5.742  17.128 -0.4136  0.4033  0.5265
 3527TIP3   OH234775   0.719   1.688  19.517  0.0986 -0.0912 -0.0697
 3527TIP3    H134776   0.681   1.767  19.556 -0.3682 -1.6671  2.9242
 3527TIP3    H234777   0.646   1.628  19.506  0.8968 -1.2739  0.8181
 3528TIP3   OH234778   4.186   5.473  19.034  0.1995  0.2842 -0.2706
 3528TIP3    H134779   4.214   5.561  19.006 -0.1479  0.4458 -0.1229
 3528TIP3    H234780   4.197   5.418  18.956  3.2685 -0.2379  0.3892
 3529TIP3   OH234781   2.699   6.420  19.491  0.1502  0.2440 -0.8011
 3529TIP3    H134782   2.716   6.513  19.473 -0.8826  0.3532 -1.2666
 3529TIP3    H234783   2.643   6.421  19.569  2.1930 -0.1135  0.7520
 3530TIP3   OH234784   2.364   3.257  18.836 -0.1257  0.5789 -0.2829
 3530TIP3    H134785   2.441   3.292  18.791  0.1514 -1.4791 -1.5568
 3530TIP3    H234786   2.398   3.227  18.921  0.5752 -0.4430 -0.8877
 3531TIP3   OH234787   5.013   5.880  20.150  0.0669 -0.2589 -0.3135
 3531TIP3    H134788   4.972   5.895  20.065  1.1630  0.2090 -0.7780
 3531TIP3    H234789   4.949   5.913  20.214  0.5976  2.5903 -1.1193
 3532TIP3   OH234790   4.302   0.258  17.630 -0.2184  0.1827  0.2671
 3532TIP3    H134791   4.251   0.184  17.663  0.3581  0.7351  2.6001
 3532TIP3    H234792   4.237   0.324  17.608 -0.6075  0.4621  2.1283
 3533TIP3   OH234793   3.301   1.109  20.391 -0.5117 -0.5987 -0.3466
 3533TIP3    H134794   3.255   1.193  20.388 -0.8202 -0.7753 -0.6830
 3533TIP3    H234795   3.376   1.125  20.448 -2.0037 -0.8082  1.7980
 3534TIP3   OH234796   5.917   4.532  18.477 -0.3671 -0.1361  0.0711
 3534TIP3    H134797   5.894   4.532  18.570 -0.6259 -2.2792  0.0708
 3534TIP3    H234798   5.979   4.459  18.469 -2.0415 -1.4536 -1.7697
 3535TIP3   OH234799   2.747   5.737  20.170 -0.3563 -0.1280  0.8516
 3535TIP3    H134800   2.759   5.697  20.256 -1.3797  0.2758  1.1943
 3535TIP3    H234801   2.654   5.758  20.166 -0.2319  0.2675 -0.1779
 3536TIP3   OH234802   0.223   1.881  18.851  0.6974 -0.7260 -0.5655
 3536TIP3    H134803   0.229   1.976  18.843  1.9857 -0.8062 -0.7523
 3536TIP3    H234804   0.172   1.867  18.931 -0.9218  0.0990 -1.3934
 3537TIP3   OH234805   6.669   4.482  19.932 -0.0819 -0.0442 -0.2244
 3537TIP3    H134806   6.629   4.562  19.965 -1.4227 -0.5021 -0.6771
 3537TIP3    H234807   6.666   4.421  20.006  3.0512  0.9633  0.8864
 3538TIP3   OH234808   4.730   0.237  16.803 -0.0514  0.4084 -0.4163
 3538TIP3    H134809   4.676   0.172  16.848  0.2074 -0.0836 -0.8122
 3538TIP3    H234810   4.813   0.192  16.787  1.0486  1.5848  1.4836
 3539TIP3   OH234811   3.265   5.414  18.762  0.0365 -0.3798 -0.0498
 3539TIP3    H134812   3.355   5.384  18.753 -0.1577 -1.8537  2.0757
 3539TIP3    H234813   3.248   5.466  18.684  1.7766 -2.4899 -1.9631
 3540TIP3   OH234814   1.838   6.278  20.086  0.1245 -0.0769 -0.0453
 3540TIP3    H134815   1.780   6.203  20.100 -1.0362  0.5196 -1.3775
 3540TIP3    H234816   1.913   6.242  20.040  0.7963 -0.8410  1.5842
 3541TIP3   OH234817   6.681   4.576  17.855 -0.0829  0.0149 -0.2182
 3541TIP3    H134818   6.751   4.548  17.796 -0.0363 -0.0019 -0.1550
 3541TIP3    H234819   6.727   4.619  17.928  0.0211 -2.0520  1.0003
 3542TIP3   OH234820   5.015   6.164  18.884 -0.1843 -0.0529  0.0844
 3542TIP3    H134821   4.979   6.221  18.816  1.4487  0.1099 -0.6844
 3542TIP3    H234822   5.061   6.224  18.943 -1.0578 -0.2642  1.0040
 3543TIP3   OH234823   3.004   1.059  19.148 -0.0866 -0.2099 -0.2341
 3543TIP3    H134824   3.084   1.022  19.185  0.3430  0.4567 -0.4820
 3543TIP3    H234825   2.971   1.119  19.215  0.0242  0.0681 -0.4238
 3544TIP3   OH234826   5.334   4.645  19.709 -0.0146  0.1598 -0.3027
 3544TIP3    H134827   5.324   4.585  19.783  1.0545 -0.9185 -0.9911
 3544TIP3    H234828   5.415   4.693  19.727  0.5448 -0.4936 -1.0073
 3545TIP3   OH234829   0.888   1.241  18.083  0.0603 -0.1779  0.2973
 3545TIP3    H134830   0.968   1.267  18.130 -0.0857 -0.2784  0.6003
 3545TIP3    H234831   0.819   1.294  18.122 -0.1212 -0.5133  0.4314
 3546TIP3   OH234832   2.351   4.615  19.460 -0.1929 -0.2610 -1.1952
 3546TIP3    H134833   2.361   4.531  19.415 -0.3531 -0.4727 -0.8362
 3546TIP3    H234834   2.384   4.680  19.397  2.2754 -0.7959 -0.5778
 3547TIP3   OH234835   4.058   0.088  19.312  0.1658  0.1940  0.5391
 3547TIP3    H134836   4.066   0.010  19.367  1.1993  0.0172  0.1561
 3547TIP3    H234837   4.145   0.126  19.311 -0.4417  1.6519  1.1236
 3548TIP3   OH234838   4.600   4.421  20.054 -0.7831  0.2094  0.1319
 3548TIP3    H134839   4.585   4.420  20.148 -1.6021  0.2459  0.0131
 3548TIP3    H234840   4.563   4.338  20.023 -1.1178  0.4878 -0.2337
 3549TIP3   OH234841   1.008   2.998  20.149 -0.5374 -0.0587  0.0676
 3549TIP3    H134842   1.001   3.092  20.131 -1.0821 -0.5022 -2.4298
 3549TIP3    H234843   0.926   2.976  20.193 -0.8041  0.4728 -0.1526
 3550TIP3   OH234844   3.175   4.373  18.972 -0.3991 -0.0832  0.0725
 3550TIP3    H134845   3.261   4.342  19.001 -0.4185  1.7602  2.3682
 3550TIP3    H234846   3.116   4.300  18.989  0.1153 -0.0877  2.1583
 3551TIP3   OH234847   5.385   1.122  20.090  0.2842 -0.3659 -0.3907
 3551TIP3    H134848   5.389   1.063  20.165 -0.7399  1.1861  0.9693
 3551TIP3    H234849   5.300   1.105  20.050  0.2106 -0.1765 -0.3160
 3552TIP3   OH234850   6.224   1.312  18.207  0.3804 -0.2311 -0.4927
 3552TIP3    H134851   6.213   1.228  18.163  0.3113 -0.8844  0.7282
 3552TIP3    H234852   6.141   1.328  18.251  0.1318  0.8563 -1.2940
 3553TIP3   OH234853   4.948   6.423  17.752  0.0161  0.2489  0.2107
 3553TIP3    H134854   4.922   6.331  17.747  0.1667  0.1219  1.4143
 3553TIP3    H234855   5.043   6.421  17.737 -0.1646  0.3652 -1.0441
 3554TIP3   OH234856   5.673   0.039  17.331  0.1280  0.3311  0.0755
 3554TIP3    H134857   5.674   0.084  17.246  0.3602  0.9065  0.3770
 3554TIP3    H234858   5.762   0.006  17.342 -0.1608 -0.6093 -0.3510
 3555TIP3   OH234859   3.021   1.848  18.953 -0.0305  0.1171  0.0288
 3555TIP3    H134860   3.045   1.756  18.940 -0.0895  0.1010  0.0341
 3555TIP3    H234861   2.934   1.855  18.915  0.4918  0.4670 -1.1373
 3556TIP3   OH234862   3.951   1.792  19.472  0.0146  0.0935 -0.8246
 3556TIP3    H134863   3.994   1.873  19.444 -0.9636  0.8510 -0.1776
 3556TIP3    H234864   3.868   1.820  19.509  0.8796 -0.8919  2.1630
 3557TIP3   OH234865   6.480   4.236  19.323  0.3916 -0.4630 -0.0629
 3557TIP3    H134866   6.491   4.257  19.230  0.5040  0.5676  0.1717
 3557TIP3    H234867   6.568   4.244  19.360 -0.1055  2.4660  0.7565
 3558TIP3   OH234868   2.352   2.681  19.119 -0.6927  0.1097  0.0422
 3558TIP3    H134869   2.315   2.769  19.114  1.2859  0.9777 -0.4209
 3558TIP3    H234870   2.379   2.671  19.210 -3.4193 -1.1849  0.8087
 3559TIP3   OH234871   3.277   5.432  19.998  0.3996  0.1050 -0.6184
 3559TIP3    H134872   3.327   5.511  19.979 -0.8950  0.6472 -1.9468
 3559TIP3    H234873   3.208   5.461  20.057 -0.9992  0.3629 -2.2831
 3560TIP3   OH234874   4.024   3.345  18.463 -0.7704  0.4692 -0.4956
 3560TIP3    H134875   4.082   3.290  18.515 -2.3906  0.8038  1.8208
 3560TIP3    H234876   4.046   3.434  18.489 -1.6049  0.6462 -0.3779
 3561TIP3   OH234877   0.247   2.896  19.162 -0.3661 -0.2813  0.1780
 3561TIP3    H134878   0.154   2.882  19.180 -1.2129  2.0465 -1.8183
 3561TIP3    H234879   0.292   2.827  19.212 -3.1933 -2.1713  0.3464
 3562TIP3   OH234880   6.151   2.998  18.187  0.3004  0.3961  0.1467
 3562TIP3    H134881   6.083   3.065  18.185 -0.4075 -0.3161 -1.8409
 3562TIP3    H234882   6.118   2.933  18.249 -0.9783 -0.0508 -0.9619
 3563TIP3   OH234883   6.008   4.435  17.710 -0.2391  0.1801 -0.6217
 3563TIP3    H134884   5.960   4.392  17.781  1.1298 -2.0495 -0.9693
 3563TIP3    H234885   5.940   4.460  17.647 -1.3203  0.9089  0.7686
 3564TIP3   OH234886   3.149   4.681  20.159 -0.7969 -0.3622  0.3559
 3564TIP3    H134887   3.229   4.717  20.195 -0.3609  0.2365 -1.1667
 3564TIP3    H234888   3.081   4.745  20.183 -0.7196 -0.5230  1.0384
 3565TIP3   OH234889   5.828   6.534  17.639 -0.1456 -0.2889 -0.3768
 3565TIP3    H134890   5.836   6.630  17.639 -3.0974  0.0591  0.7890
 3565TIP3    H234891   5.742   6.517  17.600 -0.7089 -2.2906  1.5103
 3566TIP3   OH234892   2.396   0.299  17.102  0.2825 -0.1866  0.3289
 3566TIP3    H134893   2.442   0.380  17.123  0.8836 -1.0215  2.5178
 3566TIP3    H234894   2.327   0.292  17.167 -1.5644 -0.1129 -1.5282
 3567TIP3   OH234895   1.081   6.301  18.900 -0.0891  0.4395 -0.0458
 3567TIP3    H134896   1.130   6.324  18.979 -1.9475 -0.3415  1.4180
 3567TIP3    H234897   1.001   6.259  18.932 -0.5966 -0.5631 -2.3784
 3568TIP3   OH234898   0.560   5.571  19.474 -0.0092  0.4887 -0.5831
 3568TIP3    H134899   0.553   5.624  19.554 -1.3246  1.6351 -1.4102
 3568TIP3    H234900   0.621   5.501  19.497 -0.6880  0.5259  1.5721
 3569TIP3   OH234901   5.057   0.096  19.647  0.0554  0.0558  0.6582
 3569TIP3    H134902   5.033   0.075  19.738  0.4806  0.3180  0.8315
 3569TIP3    H234903   4.977   0.079  19.597 -0.1372 -0.2410  1.0585
 3570TIP3   OH234904   4.357   1.369  19.409 -0.2666  0.5236  0.2625
 3570TIP3    H134905   4.429   1.432  19.406  0.3101 -0.1498 -0.9793
 3570TIP3    H234906   4.324   1.375  19.499  0.2150  2.0743  0.3685
 3571TIP3   OH234907   0.299   4.908  20.052  0.2039  0.1320 -0.0833
 3571TIP3    H134908   0.356   4.834  20.032  0.1140 -0.2808  1.1037
 3571TIP3    H234909   0.323   4.975  19.987  1.1321 -0.5002 -0.4129
 3572TIP3   OH234910   5.034   0.333  19.205 -0.4528  0.3840 -0.9270
 3572TIP3    H134911   5.079   0.412  19.174 -0.0711  0.1975 -0.8583
 3572TIP3    H234912   5.035   0.341  19.301  0.7310 -0.3152 -0.8626
 3573TIP3   OH234913   2.476   1.681  18.287  0.4786 -0.1104 -0.3340
 3573TIP3    H134914   2.421   1.726  18.352 -0.4571 -0.5233 -0.8170
 3573TIP3    H234915   2.454   1.724  18.204 -0.0685 -1.1173 -0.7245
 3574TIP3   OH234916   5.790   0.710  18.592 -0.2959  0.0701 -0.5493
 3574TIP3    H134917   5.868   0.654  18.600  0.0615  0.3963 -1.5700
 3574TIP3    H234918   5.770   0.736  18.682  0.2107 -0.7802 -0.1744
 3575TIP3   OH234919   0.548   6.307  20.131 -0.2303 -0.2040 -0.1399
 3575TIP3    H134920   0.494   6.276  20.058  0.9212  0.6426 -1.4038
 3575TIP3    H234921   0.635   6.274  20.111  0.5841  1.9485 -0.3912
 3576TIP3   OH234922   5.061   2.396  17.398 -0.1594  0.0624 -0.1227
 3576TIP3    H134923   5.033   2.323  17.344 -2.5618  0.8014 -0.0221
 3576TIP3    H234924   5.114   2.451  17.340  0.7692 -1.1872 -0.4858
 3577TIP3   OH234925   0.540   0.345  18.778  0.1214  0.2392  0.3815
 3577TIP3    H134926   0.592   0.425  18.779 -0.5359  0.6728  1.0460
 3577TIP3    H234927   0.589   0.285  18.835  0.2096  0.4409  0.5229
 3578TIP3   OH234928   5.431   2.401  18.855 -0.2124 -0.3374 -0.0994
 3578TIP3    H134929   5.467   2.318  18.824  1.1681  0.7451 -1.5844
 3578TIP3    H234930   5.421   2.453  18.776 -0.9997  0.9477  0.8140
 3579TIP3   OH234931   6.504   4.760  18.450 -0.0572  0.3959 -0.2524
 3579TIP3    H134932   6.421   4.729  18.488  0.8824 -0.9241  0.8702
 3579TIP3    H234933   6.478   4.808  18.372 -1.8261 -1.1673 -0.7262
 3580TIP3   OH234934   2.120   4.497  18.641 -0.3531  0.0116  0.0379
 3580TIP3    H134935   2.034   4.538  18.654 -0.7938 -0.4812 -1.2102
 3580TIP3    H234936   2.152   4.534  18.559  0.6635  0.2232  0.5087
 3581TIP3   OH234937   3.944   2.757  18.847  0.3695 -0.3874 -0.1734
 3581TIP3    H134938   3.870   2.697  18.854  0.4492 -0.5226 -0.4610
 3581TIP3    H234939   3.989   2.750  18.931 -0.1118 -0.0811  0.1068
 3582TIP3   OH234940   2.381   1.921  19.945  0.1558 -0.0552 -0.4700
 3582TIP3    H134941   2.302   1.920  19.892  0.6680  1.1859 -1.3109
 3582TIP3    H234942   2.434   1.848  19.912  0.6128  0.9005 -1.9422
 3583TIP3   OH234943   6.532   3.785  20.728  0.2685 -0.1424  0.4273
 3583TIP3    H134944   6.491   3.755  20.808 -1.2493 -1.9586 -0.9337
 3583TIP3    H234945   6.464   3.834  20.682  0.4047 -0.9796 -0.7067
 3584TIP3   OH234946   2.884   1.786  17.798 -0.3186 -0.0366  0.3729
 3584TIP3    H134947   2.941   1.737  17.739 -0.6744 -0.2835  0.2272
 3584TIP3    H234948   2.844   1.720  17.854 -1.4280 -0.0231 -0.3615
 3585TIP3   OH234949   1.089   6.126  19.644  0.2891 -0.6122  0.5654
 3585TIP3    H134950   0.995   6.116  19.630  0.2196  1.9765 -1.6650
 3585TIP3    H234951   1.128   6.047  19.605 -0.7457  0.8929 -4.2486
 3586TIP3   OH234952   5.683   1.684  19.562  0.0733  0.9340  0.1878
 3586TIP3    H134953   5.770   1.666  19.597 -0.4879 -0.7879  0.8360
 3586TIP3    H234954   5.624   1.665  19.635 -1.1353 -2.6045 -1.4740
 3587TIP3   OH234955   1.748   0.318  17.574  0.0425  0.4309 -0.6810
 3587TIP3    H134956   1.833   0.285  17.603 -0.4465  0.5163  0.9523
 3587TIP3    H234957   1.707   0.243  17.531  0.7675  0.2614 -1.0862
 3588TIP3   OH234958   1.615   3.120  18.587 -0.2689  0.2383 -0.3075
 3588TIP3    H134959   1.580   3.031  18.579 -0.6358  0.1928  1.4114
 3588TIP3    H234960   1.569   3.157  18.663  1.0863  1.3167  0.0253
 3589TIP3   OH234961   0.775   0.771  17.786 -0.6402  0.5551 -0.4830
 3589TIP3    H134962   0.712   0.699  17.791 -0.6406  0.4765 -1.3747
 3589TIP3    H234963   0.737   0.831  17.722  0.2224  0.4594 -1.1015
 3590TIP3   OH234964   0.203   4.361  19.605  0.5004  0.3487 -0.3587
 3590TIP3    H134965   0.159   4.426  19.550  0.4659  0.6571  0.0353
 3590TIP3    H234966   0.253   4.308  19.543 -1.1073 -0.5820 -0.9313
 3591TIP3   OH234967   1.975   3.789  17.461 -0.5016  0.0073 -0.2967
 3591TIP3    H134968   1.989   3.827  17.548 -0.1133 -0.7543 -0.0160
 3591TIP3    H234969   1.910   3.720  17.474  1.1335 -1.5979 -0.1617
 3592TIP3   OH234970   5.335   2.845  20.131  0.4082 -0.4634 -0.3344
 3592TIP3    H134971   5.383   2.916  20.088 -0.1094  0.9179  1.2663
 3592TIP3    H234972   5.243   2.865  20.113  0.1893  0.1188  1.3151
 3593TIP3   OH234973   0.996   0.657  18.173  0.7327 -0.4311 -0.6880
 3593TIP3    H134974   1.050   0.617  18.241  0.3052  2.4252  1.5374
 3593TIP3    H234975   0.909   0.664  18.212  0.8621  2.8519 -0.7015
 3594TIP3   OH234976   3.966   0.312  20.072  0.2458 -0.0883  0.1913
 3594TIP3    H134977   3.986   0.367  20.148  1.7270  0.0202 -0.2419
 3594TIP3    H234978   3.871   0.321  20.060  0.2451  1.2458  0.9907
 3595TIP3   OH234979   1.761   1.400  19.965  0.1619  0.0825  0.1236
 3595TIP3    H134980   1.754   1.308  19.940 -1.5894 -0.4598  2.3277
 3595TIP3    H234981   1.714   1.447  19.896  1.4532 -0.5481 -1.2688
 3596TIP3   OH234982   6.181   6.079  17.362 -0.6444  0.5428  0.4203
 3596TIP3    H134983   6.198   6.131  17.440  2.5195  0.4237 -0.0503
 3596TIP3    H234984   6.209   6.135  17.289 -0.7471 -0.4082 -0.3740
 3597TIP3   OH234985   2.183   5.772  17.870  0.3524 -0.0891 -0.3468
 3597TIP3    H134986   2.167   5.848  17.926  0.7175  0.4234 -0.9209
 3597TIP3    H234987   2.103   5.719  17.876 -0.2256  0.7498 -0.5797
 3598TIP3   OH234988   1.937   0.322  17.818  0.0807  0.6065 -0.2121
 3598TIP3    H134989   2.023   0.328  17.778  0.2105  1.2468  0.1526
 3598TIP3    H234990   1.929   0.401  17.872 -0.7372  0.5678 -0.2539
 3599TIP3   OH234991   0.943   3.898  17.054  1.0615 -0.8947  0.2189
 3599TIP3    H134992   1.017   3.938  17.099  1.2015 -1.9934  0.9887
 3599TIP3    H234993   0.948   3.931  16.964  1.3428  0.5653  0.7503
 3600TIP3   OH234994   3.016   6.327  17.941 -0.0174  0.6992 -0.1667
 3600TIP3    H134995   3.088   6.321  18.004 -0.9153 -2.4824  0.7757
 3600TIP3    H234996   3.044   6.393  17.878  2.0417  2.2553  2.1574
 3601TIP3   OH234997   6.510   4.336  18.496  0.0001 -0.1492  0.3277
 3601TIP3    H134998   6.442   4.367  18.437  0.3091  0.1739  0.1345
 3601TIP3    H234999   6.476   4.352  18.584 -0.3194 -0.3208  0.2355
 3602TIP3   OH235000   3.038   3.574  17.718  0.0232 -0.0990 -0.5561
 3602TIP3    H135001   2.952   3.536  17.736  0.4884 -0.8339  0.2263
 3602TIP3    H235002   3.073   3.520  17.647  1.5559 -2.6717  1.9378
 3603TIP3   OH235003   3.632   4.508  18.719 -0.2137 -0.0342  0.5123
 3603TIP3    H135004   3.699   4.497  18.652 -0.9329 -0.6410 -0.1265
 3603TIP3    H235005   3.576   4.431  18.711 -0.9348  0.4053  1.0890
 3604TIP3   OH235006   6.403   1.968  17.303 -0.2340 -0.6664  0.2546
 3604TIP3    H135007   6.349   1.910  17.249 -0.6362 -0.1577  0.1057
 3604TIP3    H235008   6.347   1.994  17.375 -0.1790 -0.1711  0.1226
 3605TIP3   OH235009   0.719   0.081  17.677  0.1111  0.0395 -0.0158
 3605TIP3    H135010   0.814   0.087  17.681  0.0221  1.2263  3.6571
 3605TIP3    H235011   0.690   0.167  17.648  0.0987 -0.0061 -0.1419
 3606TIP3   OH235012   1.999   4.206  17.533 -0.0370 -0.2480  0.5422
 3606TIP3    H135013   2.076   4.159  17.564 -1.5233 -2.5529  1.0080
 3606TIP3    H235014   2.009   4.208  17.438  0.1114 -1.5475  0.5017
 3607TIP3   OH235015   3.723   4.353  18.357  0.4208 -0.0703 -1.0126
 3607TIP3    H135016   3.806   4.309  18.373  0.6198 -0.1462 -2.1470
 3607TIP3    H235017   3.662   4.315  18.419  1.4925  0.8067  0.6479
 3608TIP3   OH235018   1.447   5.745  20.153  0.3870 -0.6982  0.5517
 3608TIP3    H135019   1.489   5.661  20.169  0.6434 -0.7278 -0.2366
 3608TIP3    H235020   1.366   5.723  20.107  0.6269 -0.5051  0.0202
 3609TIP3   OH235021   6.305   5.769  19.161 -0.0679 -0.0798 -0.1960
 3609TIP3    H135022   6.263   5.841  19.208  1.8598 -0.0164  1.5183
 3609TIP3    H235023   6.237   5.701  19.157 -1.9253  1.7153 -1.8274
 3610TIP3   OH235024   5.967   0.607  18.809 -0.3861 -0.4475 -0.5831
 3610TIP3    H135025   6.005   0.576  18.727  0.3008 -0.1644 -0.3833
 3610TIP3    H235026   5.880   0.568  18.812 -1.2159  1.1054 -2.3915
 3611TIP3   OH235027   0.348   2.032  17.205  0.3007  0.2297  0.0067
 3611TIP3    H135028   0.368   1.939  17.209 -2.6270 -0.4670  1.6271
 3611TIP3    H235029   0.416   2.073  17.259 -0.0928 -1.4203  1.8952
 3612TIP3   OH235030   2.488   6.449  17.861 -0.0413 -0.0459 -0.4623
 3612TIP3    H135031   2.445   6.497  17.933 -0.3862  0.5187 -1.0351
 3612TIP3    H235032   2.523   6.370  17.903 -2.0656 -0.7832 -0.0451
 3613TIP3   OH235033   5.532   0.858  17.790  0.0942  0.3958  0.2920
 3613TIP3    H135034   5.512   0.787  17.850  1.7020  0.1125  0.5422
 3613TIP3    H235035   5.574   0.925  17.844  0.0491  0.8578 -0.2298
 3614TIP3   OH235036   2.578   3.571  18.524  0.0444  0.7329 -0.0797
 3614TIP3    H135037   2.576   3.644  18.586 -2.2119 -0.4991  1.4603
 3614TIP3    H235038   2.487   3.546  18.514  0.6724 -1.3617 -1.1800
 3615TIP3   OH235039   5.146   2.065  19.715  0.7400  0.4895 -0.0201
 3615TIP3    H135040   5.239   2.071  19.690  0.9669 -1.2047  0.3175
 3615TIP3    H235041   5.143   2.104  19.802  1.0688  0.8548 -0.1646
 3616TIP3   OH235042   0.034   4.247  19.392  0.0998  0.5153 -0.1088
 3616TIP3    H135043   0.031   4.153  19.405  0.6948  0.6817  1.5056
 3616TIP3    H235044   0.081   4.259  19.310  1.1539 -0.5564  0.3194
 3617TIP3   OH235045   6.096   5.909  20.214  0.5083  0.1231  0.1204
 3617TIP3    H135046   6.076   5.913  20.120  0.0308  2.0968  0.2726
 3617TIP3    H235047   6.015   5.880  20.255  0.0497  1.3645  0.1081
 3618TIP3   OH235048   3.390   5.723  17.322  0.1274 -0.7229  0.2080
 3618TIP3    H135049   3.358   5.785  17.257  0.3558  0.0067  0.7786
 3618TIP3    H235050   3.313   5.696  17.370  0.0499 -0.7478  0.0694
 3619TIP3   OH235051   0.746   0.580  16.890 -0.4100 -0.3440  0.0546
 3619TIP3    H135052   0.657   0.614  16.890  0.0250  0.8576  0.1443
 3619TIP3    H235053   0.739   0.493  16.849 -1.3056  0.6570 -2.0961
 3620TIP3   OH235054   0.076   0.107  17.369 -0.0066 -0.2012  0.1859
 3620TIP3    H135055   0.041   0.125  17.456  0.8931 -1.9606  0.9676
 3620TIP3    H235056   0.011   0.051  17.327 -0.7219  1.1222 -0.5500
 3621TIP3   OH235057   6.223   2.431  20.205 -0.6946 -0.1846  0.3918
 3621TIP3    H135058   6.312   2.452  20.177 -0.7419 -1.6257 -0.9966
 3621TIP3    H235059   6.167   2.493  20.159 -0.4193  0.8941  1.4682
 3622TIP3   OH235060   5.163   5.897  17.012 -0.4879  0.2177 -0.2179
 3622TIP3    H135061   5.135   5.828  16.952 -0.8866 -0.3668  0.6124
 3622TIP3    H235062   5.230   5.945  16.964 -1.4421  0.3462 -1.4630
 3623TIP3   OH235063   2.069   1.032  16.888 -0.4766  0.2139  0.5359
 3623TIP3    H135064   2.099   0.946  16.858  0.0365  0.3890  0.5324
 3623TIP3    H235065   1.973   1.027  16.885 -0.4395  0.0735 -0.6930
 3624TIP3   OH235066   2.785   5.612  18.341 -0.5463 -0.1434  0.3778
 3624TIP3    H135067   2.862   5.668  18.349  0.0528 -1.0645  1.3527
 3624TIP3    H235068   2.777   5.569  18.426 -0.1401 -2.6033 -0.7219
 3625TIP3   OH235069   3.180   1.260  18.751 -0.3070 -0.1886 -0.6459
 3625TIP3    H135070   3.174   1.201  18.826 -1.9756 -1.1679 -1.5000
 3625TIP3    H235071   3.262   1.236  18.707  0.3372 -0.0630  0.4446
 3626TIP3   OH235072   4.946   2.819  20.382 -0.6004  0.3025 -0.4947
 3626TIP3    H135073   4.890   2.808  20.305  0.7647 -3.2464 -1.2328
 3626TIP3    H235074   4.886   2.824  20.456 -1.9082  1.0784 -1.5690
 3627TIP3   OH235075   0.734   2.658  18.443 -0.2943  0.5074  0.2904
 3627TIP3    H135076   0.675   2.649  18.368  0.1768 -2.6431  0.1675
 3627TIP3    H235077   0.678   2.693  18.513 -1.8287 -0.4679 -0.3843
 3628TIP3   OH235078   0.418   3.025  17.729 -0.1622  0.1255 -0.2406
 3628TIP3    H135079   0.446   2.954  17.671  1.3359  0.8244 -0.4143
 3628TIP3    H235080   0.326   3.039  17.707  0.0605 -0.4179 -1.6171
 3629TIP3   OH235081   3.766   0.854  20.153 -0.3480  0.0722 -0.3179
 3629TIP3    H135082   3.841   0.847  20.093 -1.4833  0.8956 -1.8973
 3629TIP3    H235083   3.764   0.946  20.178  0.1240 -0.2632  1.0623
 3630TIP3   OH235084   0.498   4.681  20.170  0.6372 -0.1776 -0.1845
 3630TIP3    H135085   0.506   4.723  20.084 -0.2031  0.2780 -0.0500
 3630TIP3    H235086   0.504   4.753  20.233 -2.9653  0.1509 -0.0108
 3631TIP3   OH235087   5.821   2.708  19.504  0.4942 -0.0675 -0.7899
 3631TIP3    H135088   5.763   2.634  19.522  0.8579  0.0416  1.1052
 3631TIP3    H235089   5.764   2.785  19.508  0.7609  0.0823  1.5397
 3632TIP3   OH235090   1.802   5.533  18.458  0.9975  0.3982 -0.7415
 3632TIP3    H135091   1.750   5.519  18.378  0.7206  0.2510 -0.5381
 3632TIP3    H235092   1.771   5.617  18.492 -0.9053 -0.8088  0.7138
 3633TIP3   OH235093   5.576   0.721  18.218  0.1182 -0.1754  0.3042
 3633TIP3    H135094   5.611   0.784  18.281 -0.4891  0.4016  0.0822
 3633TIP3    H235095   5.582   0.765  18.134 -0.3210 -0.4089  0.1471
 3634TIP3   OH235096   5.879   3.819  20.038 -0.0693 -0.3887  0.0532
 3634TIP3    H135097   5.821   3.824  20.114 -0.4958 -0.1056 -0.2814
 3634TIP3    H235098   5.966   3.809  20.075 -0.1579  0.7180  0.6165
 3635TIP3   OH235099   6.063   6.523  20.146  0.6636  0.1958  0.1984
 3635TIP3    H135100   5.998   6.575  20.194 -0.2099  0.1667 -0.9113
 3635TIP3    H235101   6.095   6.581  20.078  1.9574  0.2605  0.8332
 3636TIP3   OH235102   4.593   4.122  20.277  0.4614  0.1828 -0.6166
 3636TIP3    H135103   4.646   4.197  20.251  0.0066 -0.0274 -2.2624
 3636TIP3    H235104   4.577   4.135  20.371  0.3468  2.1748 -0.8659
 3637TIP3   OH235105   4.203   3.415  19.151 -0.3515 -0.5929  0.1463
 3637TIP3    H135106   4.284   3.382  19.189  0.4926  1.4070  0.1630
 3637TIP3    H235107   4.135   3.356  19.184  0.7992 -0.9501  1.9600
 3638TIP3   OH235108   1.109   5.491  19.685 -0.0623 -0.6620 -0.1252
 3638TIP3    H135109   1.124   5.405  19.726  0.7466 -1.0454 -1.1778
 3638TIP3    H235110   1.117   5.553  19.756  1.0573 -1.3345  0.3648
 3639TIP3   OH235111   3.638   0.573  20.141  0.2033 -0.1790  0.1379
 3639TIP3    H135112   3.663   0.529  20.060 -1.3105 -0.8731 -0.0052
 3639TIP3    H235113   3.598   0.655  20.113 -0.5879 -0.5511  0.1303
 3640TIP3   OH235114   2.871   3.183  17.541 -0.5485  0.3086  0.3147
 3640TIP3    H135115   2.938   3.115  17.530  0.5310  1.0405  1.9185
 3640TIP3    H235116   2.865   3.225  17.455  1.6023  0.6649  0.2817
 3641TIP3   OH235117   5.078   3.534  20.127 -0.1019  0.0198 -0.6043
 3641TIP3    H135118   5.163   3.571  20.105 -0.6238  0.3548 -2.2009
 3641TIP3    H235119   5.097   3.444  20.155  0.6386 -0.5749 -2.8471
 3642TIP3   OH235120   3.806   1.860  19.102 -0.0219  0.1095 -0.1464
 3642TIP3    H135121   3.717   1.866  19.137  0.2362 -0.3957  0.6110
 3642TIP3    H235122   3.820   1.944  19.059 -1.3454 -0.2894 -1.4428
 3643TIP3   OH235123   1.624   5.946  18.752  0.4173 -0.9093 -0.7849
 3643TIP3    H135124   1.586   6.013  18.695 -0.7093 -2.1173 -1.4979
 3643TIP3    H235125   1.562   5.874  18.750  2.4218 -2.7227 -1.4896
 3644TIP3   OH235126   1.321   0.861  17.751  0.2168 -0.1515  0.0970
 3644TIP3    H135127   1.396   0.802  17.743 -0.8040 -1.5758  0.5525
 3644TIP3    H235128   1.359   0.948  17.745  2.0975 -0.7748  1.6480
 3645TIP3   OH235129   3.585   1.033  18.531 -0.5145 -0.7335  0.4864
 3645TIP3    H135130   3.567   1.017  18.439  0.7544 -1.8982  0.4157
 3645TIP3    H235131   3.677   1.060  18.534 -0.8098  0.2695  1.3239
 3646TIP3   OH235132   5.656   2.959  19.789  0.2223 -0.1386  0.3045
 3646TIP3    H135133   5.609   2.877  19.806 -0.3313  0.4217  1.6391
 3646TIP3    H235134   5.642   2.976  19.696  1.6359 -2.3367 -0.3801
 3647TIP3   OH235135   0.617   5.713  19.682  0.7550  0.1734  0.8481
 3647TIP3    H135136   0.623   5.658  19.760  1.4166  0.8148  1.2619
 3647TIP3    H235137   0.642   5.801  19.713  0.7393  0.4911 -0.0214
 3648TIP3   OH235138   2.666   3.202  19.401  0.0448 -0.2738  0.0587
 3648TIP3    H135139   2.755   3.223  19.373 -0.0773 -0.7442 -0.7270
 3648TIP3    H235140   2.627   3.158  19.325 -0.8735 -0.0248  0.3753
 3649TIP3   OH235141   3.367   6.568  17.416  0.3424 -0.4381 -0.0270
 3649TIP3    H135142   3.357   6.557  17.510 -0.0808 -0.1826 -0.0384
 3649TIP3    H235143   3.364   6.479  17.381 -1.1646 -0.4501  0.0571
 3650TIP3   OH235144   1.307   3.752  17.472 -0.8990 -0.2659  0.3968
 3650TIP3    H135145   1.222   3.768  17.430  0.2219  3.8203 -0.8004
 3650TIP3    H235146   1.356   3.700  17.409 -1.9807 -1.3600  0.4332
 3651TIP3   OH235147   5.038   3.935  17.748  0.2631 -0.3111 -0.5117
 3651TIP3    H135148   5.040   3.890  17.663 -0.0184  1.2736 -1.3781
 3651TIP3    H235149   5.122   3.911  17.789  1.0414  0.0256 -1.8417
 3652TIP3   OH235150   3.368   3.929  17.332 -0.3671  0.3393  0.2289
 3652TIP3    H135151   3.348   3.970  17.248  0.6268 -2.6196 -1.6032
 3652TIP3    H235152   3.462   3.910  17.327 -0.5347 -0.9364  1.5175
 3653TIP3   OH235153   4.900   6.153  20.103 -0.0775  0.4385 -0.0596
 3653TIP3    H135154   4.990   6.176  20.079  0.7471  0.7304  2.8856
 3653TIP3    H235155   4.882   6.072  20.055  0.7229  1.7088 -2.7225
 3654TIP3   OH235156   2.205   4.714  19.139  0.2998 -0.2272  0.3887
 3654TIP3    H135157   2.188   4.808  19.134  0.1134 -0.2872 -0.1544
 3654TIP3    H235158   2.208   4.684  19.048 -0.6776 -0.9183  0.5535
 3655TIP3   OH235159   2.515   5.488  18.357 -0.5855 -0.8027  0.0837
 3655TIP3    H135160   2.554   5.575  18.362 -1.7879 -0.2355 -0.0795
 3655TIP3    H235161   2.437   5.493  18.413  0.5954 -2.5054  2.0478
 3656TIP3   OH235162   2.720   6.066  19.405 -0.2352 -0.3829  0.5188
 3656TIP3    H135163   2.783   6.014  19.456  0.4964  1.0033  1.0699
 3656TIP3    H235164   2.769   6.144  19.380 -1.5086  0.3408  0.2509
 3657TIP3   OH235165   4.550   2.186  19.901  0.4987  0.0567 -0.0422
 3657TIP3    H135166   4.588   2.168  19.815 -1.1053 -0.3261 -0.7138
 3657TIP3    H235167   4.583   2.115  19.957  1.9797  0.6083 -0.1786
 3658TIP3   OH235168   0.028   6.189  16.966  0.7073  0.4645  0.5023
 3658TIP3    H135169   0.108   6.199  16.916  1.2841  0.9598  1.4875
 3658TIP3    H235170  -0.043   6.202  16.903  1.3196 -2.0095 -0.8232
 3659TIP3   OH235171   1.837   4.273  18.094  0.7653 -0.9300 -0.1644
 3659TIP3    H135172   1.853   4.300  18.184  0.0809 -0.0253 -0.3026
 3659TIP3    H235173   1.799   4.350  18.052  0.9742 -1.3730 -1.1994
 3660TIP3   OH235174   2.513   0.033  20.034  0.7469 -0.8881 -0.2728
 3660TIP3    H135175   2.547   0.118  20.062  0.2290 -0.0171 -2.1105
 3660TIP3    H235176   2.586  -0.027  20.046  1.6614  0.1479 -0.4357
 3661TIP3   OH235177   1.735   2.614  19.249  0.6606  0.6222  0.1312
 3661TIP3    H135178   1.651   2.631  19.206  1.0674 -0.0576 -0.9761
 3661TIP3    H235179   1.728   2.523  19.280  1.0414  0.5072 -0.1122
 3662TIP3   OH235180   6.650   0.710  17.533  0.6972 -0.1881 -0.1681
 3662TIP3    H135181   6.579   0.728  17.471  1.5153 -0.3312 -1.1907
 3662TIP3    H235182   6.697   0.637  17.494  2.3455  0.9287 -0.3698
 3663TIP3   OH235183   5.722   0.118  19.372  0.3059  0.3057 -0.5204
 3663TIP3    H135184   5.667   0.178  19.322  0.5650 -1.6638 -3.4370
 3663TIP3    H235185   5.809   0.129  19.334  0.0537 -2.9598 -2.4099
 3664TIP3   OH235186   0.180   2.174  17.951  0.8686  0.1839 -0.0277
 3664TIP3    H135187   0.211   2.157  18.040  1.2969  0.7922 -0.0550
 3664TIP3    H235188   0.097   2.127  17.945  0.3532  0.9395  1.0137
 3665TIP3   OH235189   6.330   0.645  20.152 -0.4717 -0.0143  0.4031
 3665TIP3    H135190   6.404   0.681  20.202  0.8756  1.0998 -2.1467
 3665TIP3    H235191   6.370   0.575  20.099 -1.5430 -0.3342  0.0062
 3666TIP3   OH235192   2.099   5.584  19.491  0.7861 -0.1672 -0.1026
 3666TIP3    H135193   2.013   5.580  19.532 -0.0967  1.2927 -1.7071
 3666TIP3    H235194   2.084   5.558  19.400  1.7335  1.4827 -0.7777
 3667TIP3   OH235195   2.465   3.386  18.268  0.1067 -0.3664 -0.5547
 3667TIP3    H135196   2.402   3.423  18.330  0.6051 -2.6873  1.4679
 3667TIP3    H235197   2.412   3.333  18.209 -0.0700 -0.6484 -0.1475
 3668TIP3   OH235198   6.098   2.068  18.161 -0.0363  0.0368 -0.0953
 3668TIP3    H135199   6.146   2.136  18.208 -1.3015  0.1193  1.1109
 3668TIP3    H235200   6.140   2.066  18.074 -0.2365  2.6542 -0.3298
 3669TIP3   OH235201   6.188   4.396  19.989  0.3624  0.0368 -0.3188
 3669TIP3    H135202   6.192   4.357  19.901 -1.3626 -1.0105  0.0331
 3669TIP3    H235203   6.279   4.422  20.007  0.9070 -0.5189 -2.0510
 3670TIP3   OH235204   5.869   5.976  18.629  0.3134  0.3826 -0.5731
 3670TIP3    H135205   5.903   6.017  18.550 -0.3955  1.0345 -0.5578
 3670TIP3    H235206   5.816   5.903  18.598 -1.0772  1.4431 -0.8097
 3671TIP3   OH235207   2.655   0.366  19.582 -0.0662 -0.0620  0.7740
 3671TIP3    H135208   2.712   0.385  19.656 -0.5122  1.6343  0.7213
 3671TIP3    H235209   2.567   0.371  19.617 -0.3635  2.3044 -0.1029
 3672TIP3   OH235210   1.930   1.356  19.272 -0.0752 -0.1341  0.0504
 3672TIP3    H135211   1.989   1.294  19.314 -1.3989 -0.4413  1.5602
 3672TIP3    H235212   1.894   1.408  19.345 -1.2523  0.3956 -0.8676
 3673TIP3   OH235213   6.685   2.435  19.719  0.2611 -0.4343  0.1418
 3673TIP3    H135214   6.614   2.377  19.691 -0.5347  1.4988 -2.1785
 3673TIP3    H235215   6.746   2.435  19.645  0.4601  1.2668  0.2785
 3674TIP3   OH235216   6.107   1.823  17.901 -0.4655  0.1351 -0.4642
 3674TIP3    H135217   6.013   1.816  17.888 -0.4754 -2.2111  0.3935
 3674TIP3    H235218   6.145   1.783  17.822 -0.2075  0.5530 -0.5517
 3675TIP3   OH235219   4.889   2.049  17.517 -0.2533 -0.0727 -0.5184
 3675TIP3    H135220   4.919   2.117  17.577 -0.2423  0.7202 -1.4045
 3675TIP3    H235221   4.964   2.032  17.460 -0.9546  0.8470 -1.7774
 3676TIP3   OH235222   0.928   5.278  18.975  0.0345  0.3225 -0.0537
 3676TIP3    H135223   0.896   5.310  18.891 -1.3864 -0.8970 -0.0231
 3676TIP3    H235224   0.962   5.356  19.019  0.6502  1.0051 -1.6683
 3677TIP3   OH235225   0.674   4.535  19.791  0.0299  0.3309  0.4607
 3677TIP3    H135226   0.590   4.513  19.753  1.0563 -0.0783 -1.7276
 3677TIP3    H235227   0.738   4.490  19.736  1.6233 -1.8111  3.7615
 3678TIP3   OH235228   4.762   3.871  17.834 -0.0169 -0.1670 -0.6718
 3678TIP3    H135229   4.839   3.903  17.787  0.4365  0.9277  0.7438
 3678TIP3    H235230   4.773   3.904  17.924 -1.7377 -0.6635 -0.2398
 3679TIP3   OH235231   6.257   5.934  18.024 -0.0406 -0.5473 -0.2346
 3679TIP3    H135232   6.256   6.006  18.088 -1.5095 -0.2768 -0.5330
 3679TIP3    H235233   6.301   5.863  18.070 -0.9748 -0.3278  1.0734
 3680TIP3   OH235234   3.440   3.805  19.942 -0.0465  0.0344  0.4060
 3680TIP3    H135235   3.352   3.841  19.945  0.1144  0.5702 -0.6457
 3680TIP3    H235236   3.496   3.879  19.917  0.9851  0.1347  2.7200
 3681TIP3   OH235237   3.651   2.047  19.865 -0.1452  0.0483  0.1492
 3681TIP3    H135238   3.579   2.060  19.927 -0.9884 -0.2158 -0.7413
 3681TIP3    H235239   3.703   2.127  19.871 -0.2243  0.0345  1.1667
 3682TIP3   OH235240   1.887   1.326  19.615  0.2898  0.1935 -0.1848
 3682TIP3    H135241   1.973   1.304  19.580  1.1140  1.6381  0.8431
 3682TIP3    H235242   1.860   1.249  19.665  2.1517  0.6549  1.6219
 3683TIP3   OH235243   4.467   5.099  17.835  0.1242 -0.3110  0.2630
 3683TIP3    H135244   4.386   5.113  17.884 -1.1988 -1.6490 -1.4239
 3683TIP3    H235245   4.521   5.046  17.894 -1.6177 -2.3017  0.1707
 3684TIP3   OH235246   1.695   2.361  19.092  0.1590  0.0002  0.0729
 3684TIP3    H135247   1.748   2.305  19.036 -0.1167 -1.3020  1.0563
 3684TIP3    H235248   1.680   2.440  19.040  1.0046 -0.6147 -1.1551
 3685TIP3   OH235249   2.214   6.233  18.613  0.4334  0.0213  0.2952
 3685TIP3    H135250   2.138   6.189  18.652  0.0762 -1.0930 -1.5424
 3685TIP3    H235251   2.201   6.225  18.518  2.7010  0.0503 -0.0793
 3686TIP3   OH235252   5.393   5.772  19.472  0.3543 -0.1586 -0.3179
 3686TIP3    H135253   5.449   5.814  19.407  0.0974 -0.3780 -0.6852
 3686TIP3    H235254   5.304   5.795  19.446  0.2944  1.4760  1.1351
 3687TIP3   OH235255   3.057   6.565  18.211 -0.1816  0.0551  0.3605
 3687TIP3    H135256   3.050   6.571  18.116  1.8159 -0.7955  0.1090
 3687TIP3    H235257   2.979   6.517  18.238 -1.7096  1.8444 -0.5959
 3688TIP3   OH235258   5.708   4.715  17.616 -0.0424 -0.2853  0.5678
 3688TIP3    H135259   5.675   4.679  17.698  0.8810 -1.1284  0.5952
 3688TIP3    H235260   5.768   4.648  17.582  0.9169  0.7729  0.0799
 3689TIP3   OH235261   5.462   1.216  18.796 -0.3107  0.1994  0.4442
 3689TIP3    H135262   5.475   1.299  18.750  0.3049 -0.4201 -0.5323
 3689TIP3    H235263   5.539   1.164  18.773 -0.7763 -0.7124  0.8994
 3690TIP3   OH235264   4.632   3.445  18.835  0.0584 -0.3016  0.1753
 3690TIP3    H135265   4.697   3.492  18.888  0.8390  0.1186 -1.1030
 3690TIP3    H235266   4.666   3.356  18.829  0.7163 -0.0006 -0.7679
 3691TIP3   OH235267   5.312   0.271  19.796  0.1187  0.2211 -0.3512
 3691TIP3    H135268   5.373   0.282  19.869  0.6362 -0.8087 -0.6102
 3691TIP3    H235269   5.359   0.307  19.721 -0.1831  0.7608 -0.2816
 3692TIP3   OH235270   2.369   2.362  17.470 -0.4910  0.2571 -0.4065
 3692TIP3    H135271   2.387   2.298  17.401 -2.3904 -1.0498  0.2346
 3692TIP3    H235272   2.287   2.404  17.443 -0.1662  1.2195  0.0508
 3693TIP3   OH235273   6.699   2.860  17.639  0.4405  0.0247  0.0428
 3693TIP3    H135274   6.688   2.765  17.636  1.5164 -0.1203  0.1041
 3693TIP3    H235275   6.673   2.891  17.552  1.4518 -0.5047 -0.4696
 3694TIP3   OH235276   1.499   4.319  18.443  0.7703  0.1521  0.0658
 3694TIP3    H135277   1.554   4.269  18.383  0.0997  1.0445 -1.3594
 3694TIP3    H235278   1.443   4.254  18.485  0.6322 -0.4002 -0.9618
 3695TIP3   OH235279   4.434   2.901  19.031 -0.0208 -0.0985 -0.2891
 3695TIP3    H135280   4.429   2.895  19.127  2.3998 -0.2820 -0.0947
 3695TIP3    H235281   4.395   2.985  19.010 -0.7748 -0.1382  0.8342
 3696TIP3   OH235282   6.248   3.865  17.271  0.5051  0.0368  0.4798
 3696TIP3    H135283   6.254   3.924  17.346  0.6391  0.5483  0.0685
 3696TIP3    H235284   6.217   3.920  17.199 -0.9749 -0.7342  0.4871
 3697TIP3   OH235285   0.166   2.314  17.728 -0.1697 -0.1497  0.2304
 3697TIP3    H135286   0.228   2.262  17.678  0.1600  0.1556  0.3204
 3697TIP3    H235287   0.160   2.270  17.813 -0.7517 -0.6837 -0.0769
 3698TIP3   OH235288   4.386   4.448  19.655 -0.0176  0.1667 -0.7238
 3698TIP3    H135289   4.437   4.511  19.706 -0.4921 -0.2983  0.3561
 3698TIP3    H235290   4.386   4.484  19.566  2.6547 -0.1157 -0.9146
 3699TIP3   OH235291   0.061   2.106  19.005 -0.4711  0.4754 -0.1083
 3699TIP3    H135292   0.047   2.169  18.934 -0.0083 -1.2759 -1.8799
 3699TIP3    H235293   0.132   2.143  19.057 -0.7109  1.7444 -0.6512
 3700TIP3   OH235294   5.891   5.502  19.983  0.1186 -0.0533 -0.1514
 3700TIP3    H135295   5.832   5.572  20.012  0.4493 -0.4362  1.5697
 3700TIP3    H235296   5.907   5.521  19.891 -1.0537  1.2308 -0.1259
 3701TIP3   OH235297   2.907   5.677  19.327  0.6110 -0.4891  0.5902
 3701TIP3    H135298   2.861   5.735  19.388  0.9805  0.7234 -0.2438
 3701TIP3    H235299   3.000   5.695  19.342  0.6877  0.3255 -0.7874
 3702TIP3   OH235300   5.094   4.404  18.417  0.6425 -0.0346  0.2474
 3702TIP3    H135301   5.089   4.362  18.504 -0.0971  0.5969  0.5172
 3702TIP3    H235302   5.174   4.368  18.378  0.8719 -0.4871  1.1060
 3703TIP3   OH235303   1.140   5.393  19.358 -0.1233 -0.1055  0.5335
 3703TIP3    H135304   1.159   5.484  19.380  1.9719  0.3345 -2.6042
 3703TIP3    H235305   1.181   5.342  19.428  1.4310  1.3073  0.7042
 3704TIP3   OH235306   6.377   5.744  20.120  0.0060  0.3019 -0.0304
 3704TIP3    H135307   6.295   5.694  20.123  1.0659 -1.4691  1.4405
 3704TIP3    H235308   6.367   5.809  20.189  0.3801 -0.8951  1.1972
 3705TIP3   OH235309   1.018   1.379  17.540 -0.2856  0.2451  0.0796
 3705TIP3    H135310   1.077   1.390  17.615 -1.5540  2.8097  0.8463
 3705TIP3    H235311   1.074   1.355  17.467  1.4361  0.7187  1.1953
 3706TIP3   OH235312   3.986   6.045  17.883 -0.4003 -0.0803  0.5099
 3706TIP3    H135313   3.942   6.056  17.798  1.7179  0.3511 -0.6063
 3706TIP3    H235314   3.997   5.951  17.892 -0.8745 -0.1457  0.4569
 3707TIP3   OH235315   4.639   0.282  17.203 -0.1021  0.4941 -0.0381
 3707TIP3    H135316   4.582   0.273  17.127  1.1394 -0.1794 -0.9237
 3707TIP3    H235317   4.618   0.207  17.259 -0.7081  0.7507  0.0852
 3708TIP3   OH235318   5.643   3.508  20.156 -0.1255  0.3616  0.4595
 3708TIP3    H135319   5.678   3.573  20.217 -2.4465  1.8864  0.3102
 3708TIP3    H235320   5.662   3.543  20.069  0.0303  0.0312  0.3609
 3709TIP3   OH235321   0.822   2.980  19.761  0.3226  0.1735 -0.2738
 3709TIP3    H135322   0.870   3.047  19.810  0.5660 -0.4679  0.3806
 3709TIP3    H235323   0.782   2.925  19.828 -0.5169  0.1130 -0.8171
 3710TIP3   OH235324   3.574   1.870  19.236 -0.1816  0.3351 -0.0968
 3710TIP3    H135325   3.498   1.852  19.180 -0.1266  0.3724 -0.1823
 3710TIP3    H235326   3.563   1.810  19.310 -0.7857  0.9910  0.3539
 3711TIP3   OH235327   2.007   5.227  20.173  0.3795 -0.0199  0.2707
 3711TIP3    H135328   2.044   5.139  20.177  1.9849  0.5732 -0.7790
 3711TIP3    H235329   1.918   5.214  20.140  1.1289 -1.1409 -1.4324
 3712TIP3   OH235330   4.740   2.210  17.202 -0.1669 -0.1513 -0.2144
 3712TIP3    H135331   4.711   2.237  17.115  1.1409 -0.1480 -0.6706
 3712TIP3    H235332   4.836   2.210  17.197 -0.0689 -0.3360  1.1707
 3713TIP3   OH235333   6.520   0.306  18.895 -0.0403 -0.2303  0.1043
 3713TIP3    H135334   6.550   0.342  18.812 -0.8724 -2.2081 -1.1243
 3713TIP3    H235335   6.425   0.315  18.893 -0.0958 -0.6170  0.6812
 3714TIP3   OH235336   2.018   2.603  19.493 -0.1566  0.2074 -0.5797
 3714TIP3    H135337   1.995   2.517  19.459 -1.7822  0.9620 -1.5333
 3714TIP3    H235338   2.095   2.629  19.443  0.6131 -0.8413  0.0219
 3715TIP3   OH235339   2.270   2.302  17.101 -0.0412 -0.1508  0.0149
 3715TIP3    H135340   2.310   2.369  17.046  2.9977 -1.9199 -0.1667
 3715TIP3    H235341   2.239   2.236  17.039 -1.8360  0.4097  0.2560
 3716TIP3   OH235342   2.171   0.597  18.706  0.0009  0.3675 -0.1615
 3716TIP3    H135343   2.172   0.691  18.722  1.2220  0.5804 -1.3605
 3716TIP3    H235344   2.256   0.566  18.737 -0.4206 -0.3813  0.3094
 3717TIP3   OH235345   5.133   4.699  20.064  0.1041  0.2279  0.0791
 3717TIP3    H135346   5.048   4.656  20.072  1.0482 -1.5311  1.1628
 3717TIP3    H235347   5.119   4.766  19.997 -2.1339  0.0203  0.2561
 3718TIP3   OH235348   4.140   3.966  19.572 -0.3626  0.1355 -0.0494
 3718TIP3    H135349   4.188   4.026  19.515  2.0416 -1.2950  0.3233
 3718TIP3    H235350   4.101   3.902  19.513 -1.4167  1.0129 -0.3266
 3719TIP3   OH235351   5.514   4.906  18.049 -0.4360 -0.7706 -0.1096
 3719TIP3    H135352   5.536   4.995  18.075 -1.1105 -0.9380  1.1436
 3719TIP3    H235353   5.437   4.884  18.103  0.4839 -2.5505  0.5531
 3720TIP3   OH235354   0.379   1.307  17.278  0.1303  0.1165 -0.3089
 3720TIP3    H135355   0.365   1.304  17.183 -0.3775  0.3904 -0.2499
 3720TIP3    H235356   0.364   1.217  17.308 -2.0568  0.4524 -0.1918
 3721TIP3   OH235357   2.376   2.007  18.185 -0.2087 -0.6273  0.8124
 3721TIP3    H135358   2.367   1.998  18.280  0.0095  1.3083  1.0648
 3721TIP3    H235359   2.467   2.033  18.172 -0.6647  0.8487  0.2850
 3722TIP3   OH235360   5.061   3.199  18.271  0.1526 -0.1518 -0.1869
 3722TIP3    H135361   4.999   3.171  18.338  0.7885 -1.0253  0.0503
 3722TIP3    H235362   5.030   3.286  18.245  0.4261  0.6588  1.9418
 3723TIP3   OH235363   5.734   5.623  17.851 -0.1036 -0.1612 -0.4628
 3723TIP3    H135364   5.717   5.717  17.837 -2.5550 -0.6857 -1.3760
 3723TIP3    H235365   5.779   5.596  17.771 -0.0776  0.0538 -0.5246
 3724TIP3   OH235366   0.880   4.168  19.514 -0.1739  0.0373 -0.3152
 3724TIP3    H135367   0.863   4.132  19.601 -0.5072 -0.3285 -0.5329
 3724TIP3    H235368   0.970   4.142  19.495 -0.1231  0.0575 -0.1131
 3725TIP3   OH235369   2.159   6.432  17.641  0.4212 -0.2119 -0.1397
 3725TIP3    H135370   2.158   6.461  17.549 -0.3815  0.8858  0.1965
 3725TIP3    H235371   2.210   6.351  17.640  2.5484  1.0665 -1.1589
 3726TIP3   OH235372   6.572   4.462  18.125  0.5008 -0.1267 -1.0643
 3726TIP3    H135373   6.652   4.496  18.165  0.5626 -0.9475 -0.4758
 3726TIP3    H235374   6.575   4.496  18.035  0.0939  2.1652 -0.2722
 3727TIP3   OH235375   3.815   5.522  17.074 -0.0174  0.2720  0.0051
 3727TIP3    H135376   3.733   5.547  17.032 -0.3831 -0.6025  0.1801
 3727TIP3    H235377   3.866   5.482  17.004  1.1233  2.6087 -0.6152
 3728TIP3   OH235378   3.261   2.525  18.758 -0.2871  0.3138 -0.1896
 3728TIP3    H135379   3.188   2.577  18.792 -1.0069 -0.3823 -0.6314
 3728TIP3    H235380   3.262   2.447  18.814  0.4262  0.5323  0.1106
 3729TIP3   OH235381   2.879   6.387  18.345  0.0173 -0.3709  0.0963
 3729TIP3    H135382   2.790   6.364  18.373 -0.5896  0.5432 -0.9643
 3729TIP3    H235383   2.906   6.455  18.405 -0.5965  0.3702 -0.4425
 3730TIP3   OH235384   2.372   0.503  16.862  0.1229  0.2947  0.2683
 3730TIP3    H135385   2.452   0.508  16.914  0.9444  0.3235 -0.9552
 3730TIP3    H235386   2.313   0.566  16.903  1.3485  1.5478  0.1587
 3731TIP3   OH235387   2.414   4.187  18.374  0.2558 -0.6058 -0.4342
 3731TIP3    H135388   2.426   4.135  18.453 -0.9515 -1.0773 -0.5378
 3731TIP3    H235389   2.487   4.161  18.317  0.6999 -0.8214  0.2251
 3732TIP3   OH235390   1.531   4.727  18.039  0.0825  0.6852 -0.6799
 3732TIP3    H135391   1.565   4.809  18.003 -1.7802  1.2140 -1.3635
 3732TIP3    H235392   1.438   4.744  18.054  0.2467 -0.3120  2.1198
 3733TIP3   OH235393   1.892   2.343  19.750  0.0211  0.1815  0.5298
 3733TIP3    H135394   1.806   2.381  19.733 -0.3171 -0.8420 -0.1435
 3733TIP3    H235395   1.875   2.251  19.767  1.0370 -0.1681 -0.2430
 3734TIP3   OH235396   1.905   6.546  17.280  0.3848 -0.1115  0.1436
 3734TIP3    H135397   1.828   6.601  17.264  0.1565 -0.0402  1.4101
 3734TIP3    H235398   1.961   6.600  17.336  0.5173 -0.8616  0.7430
 3735TIP3   OH235399   1.526   1.323  20.088 -0.1242  0.0325  0.2262
 3735TIP3    H135400   1.523   1.345  19.995 -0.5348  2.2274  0.7058
 3735TIP3    H235401   1.582   1.390  20.127 -2.2005  0.9090  1.9523
 3736TIP3   OH235402   0.645   6.460  17.701 -0.6434 -0.2540  0.3302
 3736TIP3    H135403   0.573   6.419  17.654 -0.7780 -0.0091  0.3194
 3736TIP3    H235404   0.605   6.489  17.784 -0.2654 -1.2576  0.8817
 3737TIP3   OH235405   1.934   5.849  18.582  0.3751 -0.0885  0.2268
 3737TIP3    H135406   1.864   5.826  18.644  1.0327 -2.0699  0.2974
 3737TIP3    H235407   2.008   5.795  18.608  1.3326  0.5440 -1.0555
 3738TIP3   OH235408   6.483   0.121  18.563  0.5575 -0.1003 -0.0607
 3738TIP3    H135409   6.574   0.132  18.591  0.5488 -1.4467  0.5848
 3738TIP3    H235410   6.489   0.096  18.471  0.8598 -0.2359 -0.0071
 3739TIP3   OH235411   4.793   2.924  18.450 -0.6587  0.4867 -0.2062
 3739TIP3    H135412   4.802   2.829  18.441 -1.2081  0.3748  0.3152
 3739TIP3    H235413   4.701   2.936  18.473 -0.9834  1.2583 -1.7563
 3740TIP3   OH235414   4.103   1.350  17.327  0.2050  0.4248 -0.4940
 3740TIP3    H135415   4.086   1.302  17.246 -1.0304  0.4421 -0.2675
 3740TIP3    H235416   4.016   1.371  17.360  0.6890  0.1850  0.9759
 3741TIP3   OH235417   0.397   4.384  20.208  0.0800  0.4269  0.3870
 3741TIP3    H135418   0.403   4.443  20.283  0.4910  1.8540 -0.7271
 3741TIP3    H235419   0.483   4.389  20.167 -0.6661  1.0830 -1.1815
 3742TIP3   OH235420   5.025   5.742  18.481 -0.4813  0.0922  0.5858
 3742TIP3    H135421   5.100   5.698  18.441 -0.1269 -0.9241  2.2642
 3742TIP3    H235422   5.041   5.737  18.576 -2.6752 -0.2033  1.0075
 3743TIP3   OH235423   1.167   3.541  17.301  0.2739 -0.4231 -0.0472
 3743TIP3    H135424   1.101   3.481  17.334  0.0391 -0.4337 -0.5303
 3743TIP3    H235425   1.237   3.485  17.268 -0.4759 -0.4792 -1.6102
 3744TIP3   OH235426   1.774   6.062  17.881  0.0052  0.3247 -0.5578
 3744TIP3    H135427   1.710   6.011  17.930  1.2244 -0.4021  0.3542
 3744TIP3    H235428   1.769   6.028  17.792 -0.7637  0.1713 -0.4589
 3745TIP3   OH235429   4.246   2.168  18.014 -0.1134  0.2041 -0.2387
 3745TIP3    H135430   4.260   2.262  18.021  1.5375 -0.0505  0.3648
 3745TIP3    H235431   4.303   2.140  17.943 -0.8880 -0.3045 -0.6810
 3746TIP3   OH235432   2.957   3.935  18.698  0.0508 -0.2449  0.1990
 3746TIP3    H135433   2.903   4.012  18.683 -0.5882 -0.6156  0.5309
 3746TIP3    H235434   3.033   3.968  18.746 -0.3618  0.1396  0.6097
 3747TIP3   OH235435   4.241   1.109  19.833  0.1663  0.3642  0.2379
 3747TIP3    H135436   4.309   1.174  19.853  0.5857  0.2765 -0.8237
 3747TIP3    H235437   4.167   1.161  19.800  1.2175  0.2571 -2.5678
 3748TIP3   OH235438   2.931   5.229  18.225  0.0945  0.0879 -0.0385
 3748TIP3    H135439   2.929   5.286  18.302  0.1218 -0.6160  0.4889
 3748TIP3    H235440   2.888   5.148  18.253 -0.0514 -0.1146 -0.8167
 3749TIP3   OH235441   4.831   2.850  18.138  0.2963 -0.0305  0.4866
 3749TIP3    H135442   4.925   2.833  18.149  0.1678 -1.3124 -0.1769
 3749TIP3    H235443   4.807   2.903  18.214  1.3800 -0.4312  1.1355
 3750TIP3   OH235444   3.959   2.105  18.415 -0.2251  0.2306  0.3970
 3750TIP3    H135445   4.030   2.160  18.448  1.0775 -0.7159 -0.6957
 3750TIP3    H235446   3.918   2.157  18.346  0.4390  0.2072 -0.0329
 3751TIP3   OH235447   1.110   1.220  19.798  0.3245 -0.2420 -0.2752
 3751TIP3    H135448   1.122   1.315  19.795  0.8612 -0.3317 -1.6313
 3751TIP3    H235449   1.111   1.199  19.892 -0.1314  1.1130  0.0660
 3752TIP3   OH235450   3.225   4.581  19.615  0.3500 -0.0692 -0.8918
 3752TIP3    H135451   3.148   4.553  19.564 -0.2528  0.4529 -0.2982
 3752TIP3    H235452   3.189   4.606  19.700  1.0202  1.3039 -0.9942
 3753TIP3   OH235453   4.246   0.386  19.363 -0.0589  0.0099  0.4930
 3753TIP3    H135454   4.191   0.452  19.322 -2.7898 -1.8520  0.9427
 3753TIP3    H235455   4.214   0.380  19.453  1.0268 -1.0101  0.8372
 3754TIP3   OH235456   5.819   6.334  19.094 -0.0782 -0.1446 -0.2565
 3754TIP3    H135457   5.816   6.381  19.011  2.6319  1.1639  0.2674
 3754TIP3    H235458   5.807   6.402  19.161  2.6982 -0.2532  0.4829
 3755TIP3   OH235459   4.303   5.171  18.759 -0.2556 -0.2132  0.0109
 3755TIP3    H135460   4.217   5.206  18.782  0.0183  0.3057  0.2471
 3755TIP3    H235461   4.363   5.206  18.825  0.2671  0.0527 -0.5901
 3756TIP3   OH235462   1.483   4.887  20.233  0.0400  0.1609  0.0502
 3756TIP3    H135463   1.504   4.797  20.206 -0.9630  0.2135 -0.9620
 3756TIP3    H235464   1.559   4.914  20.285  0.7331 -0.9773 -0.3237
 3757TIP3   OH235465   5.086   0.293  17.989  0.0438  0.1860 -0.0095
 3757TIP3    H135466   5.048   0.380  17.999  0.5389  0.4224 -0.1515
 3757TIP3    H235467   5.121   0.291  17.900 -0.8685 -0.5249 -0.3660
 3758TIP3   OH235468   0.143   2.944  19.905  0.2455 -0.2140 -0.1226
 3758TIP3    H135469   0.204   2.871  19.894 -0.2158 -0.8321  1.2308
 3758TIP3    H235470   0.058   2.902  19.918  0.0176  0.5519  0.9259
 3759TIP3   OH235471   3.358   5.413  17.215  0.7542  0.3268  0.3791
 3759TIP3    H135472   3.384   5.493  17.261 -2.6491  1.6178  0.3433
 3759TIP3    H235473   3.394   5.423  17.127  1.3483  1.2413  0.7096
 3760TIP3   OH235474   4.953   1.865  19.093 -0.2717 -0.3585  0.1025
 3760TIP3    H135475   4.940   1.777  19.057  0.2284 -1.4478  2.4112
 3760TIP3    H235476   4.998   1.851  19.176  0.9749  2.1883 -0.0369
 3761TIP3   OH235477   1.738   5.834  18.261  0.4704  0.1667  0.5625
 3761TIP3    H135478   1.792   5.911  18.278 -0.6690  0.6886  1.9945
 3761TIP3    H235479   1.801   5.765  18.239  1.5936  1.1476  0.6243
 3762TIP3   OH235480   0.156   0.368  17.852  0.1774  0.4882 -0.2050
 3762TIP3    H135481   0.113   0.307  17.792 -0.1473 -0.2016  0.6969
 3762TIP3    H235482   0.150   0.453  17.809 -0.5305  0.1063 -0.8902
 3763TIP3   OH235483   5.100   2.105  18.533  0.2182  0.0977 -0.0853
 3763TIP3    H135484   5.180   2.058  18.556 -2.2100 -4.5779 -0.1660
 3763TIP3    H235485   5.055   2.118  18.617 -0.6051 -0.8134 -0.3643
 3764TIP3   OH235486   3.118   5.231  19.819 -0.5424 -0.1404 -0.2324
 3764TIP3    H135487   3.119   5.137  19.838 -0.6142  0.0387  0.7131
 3764TIP3    H235488   3.168   5.271  19.891  0.9823  0.3917 -1.5511
 3765TIP3   OH235489   2.330   1.403  18.178 -0.5142 -0.2120 -0.3716
 3765TIP3    H135490   2.297   1.331  18.231 -0.4073  0.7863  1.1153
 3765TIP3    H235491   2.277   1.478  18.204  1.1015  0.8237  0.0833
 3766TIP3   OH235492   4.308   0.542  19.033  0.4526 -0.6887 -0.1031
 3766TIP3    H135493   4.254   0.570  19.107  0.2813 -0.5674 -0.2722
 3766TIP3    H235494   4.398   0.547  19.065  0.4371  0.2213 -0.1827
 3767TIP3   OH235495   1.788   1.642  19.704  0.2842  0.1758  0.2921
 3767TIP3    H135496   1.751   1.602  19.625  3.4658  2.0194 -2.3545
 3767TIP3    H235497   1.855   1.581  19.733  0.3677  0.3578  0.4886
 3768TIP3   OH235498   4.826   3.692  20.107  0.1086 -0.0782  0.0050
 3768TIP3    H135499   4.899   3.637  20.135  0.7251  0.4684 -0.4748
 3768TIP3    H235500   4.865   3.754  20.045 -0.7978  0.1217 -0.3898
 3769TIP3   OH235501   1.139   6.311  17.633 -0.5116  0.1862  0.3641
 3769TIP3    H135502   1.067   6.349  17.584 -0.3354 -1.8986 -1.6879
 3769TIP3    H235503   1.215   6.367  17.614 -1.0252  0.9430  0.5097
 3770TIP3   OH235504   4.382   3.537  20.245 -0.1072 -0.1454 -0.1055
 3770TIP3    H135505   4.457   3.549  20.188  0.2111  1.1507  0.5554
 3770TIP3    H235506   4.306   3.551  20.189  0.1712 -0.1222 -0.4785
 3771TIP3   OH235507   1.738   3.047  19.090  0.2540  0.0633  0.2134
 3771TIP3    H135508   1.699   3.054  19.178  1.0771 -1.6233  0.7523
 3771TIP3    H235509   1.738   3.137  19.057 -2.3480  0.4130  0.9295
 3772TIP3   OH235510   5.687   6.249  17.365 -0.3524  0.0338 -0.0285
 3772TIP3    H135511   5.779   6.250  17.389 -0.6249 -0.9177  1.1389
 3772TIP3    H235512   5.682   6.301  17.284  1.3671 -0.8955 -0.7715
 3773TIP3   OH235513   5.344   1.989  18.587  0.1438  0.0720  0.2356
 3773TIP3    H135514   5.406   1.949  18.526 -0.9756 -0.6625 -0.4529
 3773TIP3    H235515   5.399   2.044  18.644  1.2968  0.2097 -0.9583
 3774TIP3   OH235516   5.250   2.765  18.481  0.3709  0.7381  0.0922
 3774TIP3    H135517   5.252   2.778  18.576 -1.0462  1.4338  0.0499
 3774TIP3    H235518   5.283   2.847  18.445 -0.9060  1.2203 -0.0298
 3775TIP3   OH235519   6.116   3.450  20.432  0.0218 -0.5958  0.2769
 3775TIP3    H135520   6.137   3.411  20.516  2.5168  2.1930  1.1297
 3775TIP3    H235521   6.146   3.540  20.439 -2.5610  0.6836 -2.5624
 3776TIP3   OH235522   0.391   1.645  18.986 -0.4541 -0.1717  0.3203
 3776TIP3    H135523   0.297   1.630  18.974 -0.1913 -1.0391 -0.8598
 3776TIP3    H235524   0.404   1.642  19.080 -1.6970  0.5198  0.5370
 3777TIP3   OH235525   0.205   0.281  17.208 -0.3753 -0.1170 -0.2874
 3777TIP3    H135526   0.190   0.252  17.118 -1.2077 -0.1938 -0.1301
 3777TIP3    H235527   0.149   0.225  17.262 -1.6823  1.4450  0.0550
 3778TIP3   OH235528   1.031   1.204  17.803 -0.3385 -0.2304  0.1875
 3778TIP3    H135529   0.997   1.252  17.878 -1.3975 -0.3398 -0.2046
 3778TIP3    H235530   1.057   1.119  17.838  0.2831  0.1397  0.6374
 3779TIP3   OH235531   3.027   1.716  19.374 -0.2115 -0.0454 -0.7289
 3779TIP3    H135532   3.095   1.703  19.440 -1.4390  0.6506  0.6997
 3779TIP3    H235533   3.051   1.799  19.332 -2.4126  2.6219  2.7475
 3780TIP3   OH235534   5.566   2.039  18.259 -0.2047  0.0289 -0.0993
 3780TIP3    H135535   5.545   1.966  18.318  1.0700  0.4081  0.8604
 3780TIP3    H235536   5.621   2.000  18.191 -0.2510 -0.0700 -0.0809
 3781TIP3   OH235537   3.991   5.511  19.793 -0.0752  0.1560  0.0096
 3781TIP3    H135538   4.038   5.482  19.715  0.3539 -2.9679  1.2788
 3781TIP3    H235539   4.034   5.466  19.866 -0.9752  2.2858  2.0195
 3782TIP3   OH235540   2.338   0.451  18.379 -0.4162  0.2881  0.0746
 3782TIP3    H135541   2.338   0.401  18.298 -0.2293  1.0298 -0.3935
 3782TIP3    H235542   2.264   0.416  18.429 -0.0003 -0.7741 -0.0343
 3783TIP3   OH235543   1.569   3.002  19.635 -0.6441 -0.3514  0.4449
 3783TIP3    H135544   1.610   2.955  19.563  2.3491 -0.4381  2.0420
 3783TIP3    H235545   1.606   3.090  19.631  0.5750 -0.7047  2.5116
 3784TIP3   OH235546   6.267   5.191  16.792 -0.1496 -0.4417 -0.1280
 3784TIP3    H135547   6.205   5.149  16.732 -0.6020  1.2762 -0.9402
 3784TIP3    H235548   6.347   5.138  16.786  0.2215  0.2850 -3.1699
 3785TIP3   OH235549   1.998   6.606  19.558 -0.4357  0.0722  0.3590
 3785TIP3    H135550   1.927   6.620  19.496 -0.7996 -1.0143  0.5038
 3785TIP3    H235551   1.976   6.662  19.633 -0.5956  0.5160 -0.0163
 3786TIP3   OH235552   0.550   5.720  17.503 -0.3822  0.5274 -0.3582
 3786TIP3    H135553   0.616   5.727  17.572  0.5211  1.2020 -1.2641
 3786TIP3    H235554   0.594   5.751  17.424 -1.4005 -0.2136 -1.2477
 3787TIP3   OH235555   3.328   4.114  18.167 -0.4462  0.2997 -0.1938
 3787TIP3    H135556   3.252   4.079  18.121  0.2665 -1.6465  0.0122
 3787TIP3    H235557   3.292   4.162  18.241 -1.4858  0.0925 -0.5476
 3788TIP3   OH235558   2.257   5.727  18.434  0.4234  0.0816  0.3299
 3788TIP3    H135559   2.258   5.672  18.512  1.3967  1.8716  1.6368
 3788TIP3    H235560   2.347   5.754  18.422  0.1550  0.4809 -0.9830
 3789TIP3   OH235561   4.712   4.371  19.532  0.5667  0.6946 -0.4495
 3789TIP3    H135562   4.747   4.421  19.459  0.0371  0.4907 -0.8558
 3789TIP3    H235563   4.618   4.393  19.533  0.3209 -0.2961 -0.6586
 3790TIP3   OH235564   3.663   5.386  18.084 -0.6317 -0.0895  0.8736
 3790TIP3    H135565   3.684   5.331  18.008  0.8328  1.0263  0.4274
 3790TIP3    H235566   3.701   5.471  18.063 -0.8009  0.4366  2.5646
 3791TIP3   OH235567   1.146   0.577  18.407 -0.2698  0.3722 -0.5721
 3791TIP3    H135568   1.236   0.550  18.387  0.1003  0.5623  0.7009
 3791TIP3    H235569   1.112   0.508  18.463 -0.4695  0.9078 -0.0183
 3792TIP3   OH235570   0.649   2.916  18.110  0.6443  0.3880 -0.1634
 3792TIP3    H135571   0.624   2.824  18.112 -0.3131  0.6278 -0.5031
 3792TIP3    H235572   0.633   2.947  18.199  3.5498 -0.3901  0.7326
 3793TIP3   OH235573   0.791   2.764  17.772  0.1286  0.0426  0.6587
 3793TIP3    H135574   0.866   2.724  17.729  1.2926  1.8738  0.8650
 3793TIP3    H235575   0.747   2.691  17.817  0.7177 -1.3556 -0.9415
 3794TIP3   OH235576   6.713   0.642  19.622 -0.0396  0.1340 -0.0101
 3794TIP3    H135577   6.774   0.636  19.548  0.5107  0.5963  0.4013
 3794TIP3    H235578   6.641   0.695  19.589  0.6624  1.1801  0.0728
 3795TIP3   OH235579   3.566   6.012  18.176 -0.0694  0.1160 -0.0229
 3795TIP3    H135580   3.533   6.002  18.266 -1.2244  1.1185 -0.3079
 3795TIP3    H235581   3.542   5.929  18.134  0.4807 -0.3632  0.5816
 3796TIP3   OH235582   4.118   2.076  18.985  0.2836  0.1310  0.1283
 3796TIP3    H135583   4.073   1.994  18.966 -3.6614  2.5878 -2.8395
 3796TIP3    H235584   4.191   2.078  18.924 -0.3248 -0.6902 -0.6622
 3797TIP3   OH235585   5.143   0.919  17.881  0.1929  0.6166 -0.9686
 3797TIP3    H135586   5.196   0.998  17.875 -1.8863  2.3808  1.5193
 3797TIP3    H235587   5.129   0.907  17.975 -4.2188  0.7032 -1.3930
 3798TIP3   OH235588   2.897   2.537  19.559 -0.4343 -0.4677 -0.1323
 3798TIP3    H135589   2.985   2.566  19.584 -0.0566 -0.1413 -1.7461
 3798TIP3    H235590   2.840   2.576  19.625  0.6177 -0.5826  0.8713
 3799TIP3   OH235591   5.982   3.265  20.026  0.1247  0.3617  0.1804
 3799TIP3    H135592   5.939   3.185  20.054 -0.7191  0.1155 -1.6846
 3799TIP3    H235593   5.979   3.322  20.103 -2.9496  0.0951  0.3821
 3800TIP3   OH235594   3.706   6.705  18.533  0.3496 -0.8671  0.0081
 3800TIP3    H135595   3.626   6.744  18.568  0.9560 -0.6659  1.2182
 3800TIP3    H235596   3.693   6.706  18.438 -0.7550 -0.1424  0.1420
 3801TIP3   OH235597   0.840   1.235  18.390 -0.3148 -0.1019  0.3867
 3801TIP3    H135598   0.886   1.164  18.345 -0.0162 -0.7146  1.6145
 3801TIP3    H235599   0.761   1.250  18.339  0.7834  0.3586 -1.2698
 3802TIP3   OH235600   1.500   3.424  17.855  0.4307  0.2523  0.7691
 3802TIP3    H135601   1.512   3.333  17.828 -1.2174  0.1944  0.1150
 3802TIP3    H235602   1.479   3.470  17.774  0.3395  1.0478  1.2353
 3803TIP3   OH235603   3.784   0.007  16.247 -0.0096  0.6308 -0.6866
 3803TIP3    H135604   3.744  -0.063  16.196  0.8753  0.3838 -1.0743
 3803TIP3    H235605   3.711   0.050  16.292 -0.5776 -0.4630 -0.5367
 3804TIP3   OH235606   2.948   0.762  19.789  0.1548  0.0998 -0.4274
 3804TIP3    H135607   2.985   0.848  19.809 -0.0120  0.4203 -1.4395
 3804TIP3    H235608   3.013   0.721  19.733  0.2552 -0.4636  0.0977
 3805TIP3   OH235609   2.995   4.205  19.581 -0.3627 -0.1645 -0.2985
 3805TIP3    H135610   3.088   4.220  19.597 -0.7352  1.3454  0.8144
 3805TIP3    H235611   2.957   4.199  19.669 -1.1767 -1.9743 -0.7297
 3806TIP3   OH235612   3.155   2.991  19.421  0.1082 -0.0991  1.0238
 3806TIP3    H135613   3.082   2.960  19.366 -0.6220  1.7250  0.9030
 3806TIP3    H235614   3.232   2.981  19.365  0.0184 -2.1359  1.1832
 3807TIP3   OH235615   0.360   5.135  19.880  0.4158  0.2388 -0.5081
 3807TIP3    H135616   0.388   5.219  19.916  1.4139 -0.8584  1.4147
 3807TIP3    H235617   0.282   5.156  19.828  2.2433  2.7696 -2.5340
 3808TIP3   OH235618   4.267   1.414  17.589  0.5841  0.3402  0.4642
 3808TIP3    H135619   4.197   1.376  17.535  0.8716  1.0117 -0.3987
 3808TIP3    H235620   4.346   1.369  17.560  0.8569  1.2531 -0.2419
 3809TIP3   OH235621   2.224   4.120  19.195  0.0237 -0.0937 -0.0932
 3809TIP3    H135622   2.135   4.133  19.227 -0.3444  0.0743 -1.1363
 3809TIP3    H235623   2.258   4.047  19.247 -0.6637 -0.0450  0.4295
 3810TIP3   OH235624   6.230   3.748  18.725 -0.1812 -0.2717 -0.4521
 3810TIP3    H135625   6.141   3.754  18.690  0.4484  0.3569 -2.0326
 3810TIP3    H235626   6.277   3.695  18.662  0.7333 -0.0689  0.0451
 3811TIP3   OH235627   1.314   6.655  19.040 -0.0946  0.1955  0.0846
 3811TIP3    H135628   1.382   6.681  18.977  0.3140  0.9135  0.7989
 3811TIP3    H235629   1.233   6.690  19.004 -0.0430 -0.4255 -0.6370
 3812TIP3   OH235630   5.847   5.196  19.258  0.4909  0.4442  0.3131
 3812TIP3    H135631   5.790   5.169  19.331 -0.3823  0.4186 -0.3552
 3812TIP3    H235632   5.868   5.114  19.213  0.0321  0.5715 -0.1544
 3813TIP3   OH235633   2.511   2.844  19.720 -0.0615 -0.6187 -0.0218
 3813TIP3    H135634   2.469   2.914  19.669  1.1546 -0.6850 -1.1792
 3813TIP3    H235635   2.581   2.812  19.662  1.1541 -0.9396  1.5617
 3814TIP3   OH235636   6.646   4.765  17.184  0.0480 -0.4481 -0.2457
 3814TIP3    H135637   6.565   4.715  17.179 -0.2358  0.1059 -2.1108
 3814TIP3    H235638   6.659   4.799  17.095  1.3153  1.0547  0.4529
 3815TIP3   OH235639   6.378   4.368  19.561 -0.0356  0.3061  0.4407
 3815TIP3    H135640   6.348   4.323  19.482  1.1943  0.8656 -0.3823
 3815TIP3    H235641   6.374   4.461  19.538  1.0385  0.4414  0.7559
 3816TIP3   OH235642   5.700   2.689  18.768 -0.0822  0.0527  0.5503
 3816TIP3    H135643   5.771   2.713  18.708 -0.2071  1.0206  0.7676
 3816TIP3    H235644   5.745   2.654  18.845  0.1093 -0.4614  0.2056
 3817TIP3   OH235645   0.041   6.182  18.299  0.3896 -0.1349 -0.2525
 3817TIP3    H135646   0.109   6.124  18.264 -1.2719 -0.7675 -2.6992
 3817TIP3    H235647   0.032   6.251  18.233 -0.0457  1.0218  0.9670
 3818TIP3   OH235648   2.418   3.869  18.518 -0.2528 -0.3975  0.3056
 3818TIP3    H135649   2.467   3.835  18.593 -0.5767  0.1178  0.7591
 3818TIP3    H235650   2.364   3.939  18.554 -0.4848 -0.2032 -0.3961
 3819TIP3   OH235651   2.956   1.034  18.385 -0.1157  0.1061 -0.0293
 3819TIP3    H135652   2.962   1.056  18.292 -0.3301  1.0905  0.1748
 3819TIP3    H235653   2.903   0.954  18.388 -0.2606  0.1680 -0.7367
 3820TIP3   OH235654   3.440   6.591  17.107  0.5405  0.1721  0.5269
 3820TIP3    H135655   3.423   6.559  17.019  0.2705  2.4613 -0.3009
 3820TIP3    H235656   3.428   6.514  17.163 -4.3814 -0.3771 -0.8267
 3821TIP3   OH235657   0.847   1.685  17.621 -0.1252 -0.3964 -0.5770
 3821TIP3    H135658   0.869   1.697  17.528 -1.0643  2.1676 -0.5364
 3821TIP3    H235659   0.930   1.663  17.663  1.0182  1.8687 -1.5191
 3822TIP3   OH235660   0.065   4.712  18.675 -0.0308 -0.0460 -0.5439
 3822TIP3    H135661   0.057   4.784  18.613 -0.7756 -0.4228 -0.9084
 3822TIP3    H235662   0.015   4.641  18.635 -1.3025 -0.0170  0.9095
 3823TIP3   OH235663   1.777   2.913  16.789 -0.4183 -0.1316 -0.3445
 3823TIP3    H135664   1.683   2.898  16.795 -0.6301  1.2153 -0.1319
 3823TIP3    H235665   1.786   3.000  16.750  0.7814 -1.2392 -2.8091
 3824TIP3   OH235666   2.664   5.615  16.789  0.5730 -0.2288  0.2295
 3824TIP3    H135667   2.630   5.544  16.735  0.4927  0.9804 -1.3870
 3824TIP3    H235668   2.587   5.654  16.830  0.6737 -1.4213  1.6328
 3825TIP3   OH235669   6.361   3.554  18.939 -0.1430  0.2219  0.6794
 3825TIP3    H135670   6.314   3.497  19.001  1.6347 -0.1506  1.7617
 3825TIP3    H235671   6.374   3.500  18.862 -2.5120  0.7345 -0.1694
 3826TIP3   OH235672   4.432   3.312  19.234  0.5573  0.2113  0.2536
 3826TIP3    H135673   4.500   3.325  19.169 -1.1096 -1.4709 -1.9674
 3826TIP3    H235674   4.459   3.234  19.282  0.8829  0.3948  0.3744
 3827TIP3   OH235675   5.589   4.437  19.161  0.1803 -0.0386 -0.6681
 3827TIP3    H135676   5.673   4.410  19.124  0.0117 -1.0379 -0.3545
 3827TIP3    H235677   5.592   4.532  19.160  1.0941 -0.0590 -1.1640
 3828TIP3   OH235678   1.624   6.373  19.880  0.1744  0.2839 -0.4057
 3828TIP3    H135679   1.662   6.344  19.963  1.4786  2.1684 -0.3002
 3828TIP3    H235680   1.698   6.381  19.820 -0.6201 -0.0312 -1.4758
 3829TIP3   OH235681   1.197   0.999  18.422 -0.0367  0.5235 -0.6245
 3829TIP3    H135682   1.280   0.969  18.387 -0.1075  1.0283 -1.2389
 3829TIP3    H235683   1.208   1.093  18.435 -0.2375  0.4583  0.0814
 3830TIP3   OH235684   0.134   5.782  19.354  0.0174  0.2320  0.3645
 3830TIP3    H135685   0.207   5.763  19.296 -1.2886 -2.5915 -0.5073
 3830TIP3    H235686   0.057   5.751  19.307 -1.6064  1.6245  1.9315
 3831TIP3   OH235687   0.178   3.329  19.157  0.9364 -0.4225 -0.1662
 3831TIP3    H135688   0.244   3.261  19.169  0.3365 -1.1968 -1.1668
 3831TIP3    H235689   0.096   3.282  19.142  0.3412  0.5220  0.0187
 3832TIP3   OH235690   4.767   2.510  19.649 -0.0740  0.2024 -0.6185
 3832TIP3    H135691   4.730   2.552  19.727 -0.0389 -0.0148 -0.4842
 3832TIP3    H235692   4.693   2.468  19.606  0.1693 -1.1086  0.1974
 3833TIP3   OH235693   0.052   1.992  17.703 -0.4911  0.4138  0.4748
 3833TIP3    H135694  -0.041   2.007  17.717 -0.3830  0.0511  1.6984
 3833TIP3    H235695   0.075   2.050  17.631 -2.0798 -0.9896 -1.2611
 3834TIP3   OH235696   3.246   1.001  18.146 -0.6465 -0.2415  0.0018
 3834TIP3    H135697   3.159   0.980  18.111 -0.4915 -0.2548 -0.3852
 3834TIP3    H235698   3.307   0.972  18.077 -0.4298  1.6299 -0.6472
 3835TIP3   OH235699   2.308   3.532  18.444 -0.3201  0.1097 -0.6673
 3835TIP3    H135700   2.317   3.621  18.411  4.0038  0.8914  1.8731
 3835TIP3    H235701   2.237   3.537  18.508 -1.7764  0.9736 -2.2284
 3836TIP3   OH235702   5.860   4.986  17.386 -0.4229  0.4403 -0.0902
 3836TIP3    H135703   5.889   5.014  17.473 -1.0530 -1.1627  0.6674
 3836TIP3    H235704   5.802   5.057  17.356  0.5050  1.4307  0.3810
 3837TIP3   OH235705   2.853   5.825  18.653  0.2655  0.3739  0.2894
 3837TIP3    H135706   2.841   5.886  18.580 -0.8461  0.1666  0.2874
 3837TIP3    H235707   2.934   5.855  18.696 -0.7308  2.4700  0.8601
 3838TIP3   OH235708   3.008   5.654  20.391  0.8925 -0.1743 -0.3772
 3838TIP3    H135709   2.927   5.623  20.431  0.8383  0.3650 -0.0592
 3838TIP3    H235710   3.009   5.748  20.407  0.7922  0.0977 -1.7727
 3839TIP3   OH235711   1.450   5.064  18.145 -0.3313  0.6456  0.3371
 3839TIP3    H135712   1.530   5.071  18.094 -0.9861 -0.1639 -0.8672
 3839TIP3    H235713   1.470   4.999  18.212 -0.0527  0.2221 -0.1430
 3840TIP3   OH235714   0.500   4.764  19.671 -0.0742 -0.0083  0.0892
 3840TIP3    H135715   0.442   4.838  19.657 -0.9407 -0.9299 -1.4713
 3840TIP3    H235716   0.555   4.761  19.593  0.2692 -0.7265  0.3444
 3841TIP3   OH235717   0.034   1.546  18.554 -0.3301  0.1481  0.0266
 3841TIP3    H135718   0.091   1.592  18.616 -1.1400  0.3383  0.6404
 3841TIP3    H235719   0.063   1.455  18.559  0.6093  0.4078 -0.4451
 3842TIP3   OH235720   2.201   5.567  18.192  0.2007  0.5161 -0.1194
 3842TIP3    H135721   2.198   5.566  18.288  1.0710 -0.7152 -0.0792
 3842TIP3    H235722   2.118   5.528  18.165  0.3914 -0.0856  0.1586
 3843TIP3   OH235723   0.943   1.534  18.809  1.0297  0.1319 -0.2424
 3843TIP3    H135724   1.005   1.500  18.745  0.0895  0.8136 -1.5438
 3843TIP3    H235725   0.895   1.602  18.763  0.3778  0.7015  1.2176
 3844TIP3   OH235726   2.718   5.036  18.732 -0.5822 -0.2009  0.5976
 3844TIP3    H135727   2.640   5.056  18.681 -1.2486 -1.1639  1.1927
 3844TIP3    H235728   2.735   4.943  18.714 -0.0716 -0.2160  1.1118
 3845TIP3   OH235729   1.975   2.591  18.657  0.4225 -0.5025 -0.4276
 3845TIP3    H135730   1.949   2.673  18.699 -1.2135 -0.7109 -0.9416
 3845TIP3    H235731   2.068   2.602  18.638  0.6557  0.5083  1.1114
 3846TIP3   OH235732   6.146   5.069  20.146 -0.5139 -0.2774  0.2336
 3846TIP3    H135733   6.208   5.092  20.076  1.0925 -1.8653  1.0633
 3846TIP3    H235734   6.105   5.152  20.170  2.1208  1.0607  0.4015
 3847TIP3   OH235735   1.047   2.146  19.288  0.4907 -0.3218 -0.1484
 3847TIP3    H135736   1.113   2.120  19.223  0.4810 -0.2451 -0.1875
 3847TIP3    H235737   0.965   2.108  19.256  0.5653 -0.6676  0.0532
 3848TIP3   OH235738   0.845   5.136  16.553  0.5140 -0.7863 -0.0907
 3848TIP3    H135739   0.875   5.096  16.471  0.2417 -0.2505 -0.4586
 3848TIP3    H235740   0.753   5.156  16.537 -0.0985 -2.4540  1.0395
 3849TIP3   OH235741   4.450   3.962  19.361  0.4975 -0.1320  0.2335
 3849TIP3    H135742   4.398   3.921  19.292  0.1307  1.8879 -0.7930
 3849TIP3    H235743   4.406   4.046  19.376  2.5514  0.9661  0.4431
 3850TIP3   OH235744   0.834   2.748  19.430 -0.5118 -0.4208  0.3298
 3850TIP3    H135745   0.818   2.842  19.427 -0.8736 -0.4539  0.9034
 3850TIP3    H235746   0.928   2.740  19.446  0.0721 -0.2106 -2.5683
 3851TIP3   OH235747   5.783   5.248  20.010 -0.1163  0.6757 -0.1042
 3851TIP3    H135748   5.827   5.333  20.001 -1.1287  1.2962  0.5581
 3851TIP3    H235749   5.709   5.266  20.068  0.5953 -1.0208  1.4007
 3852TIP3   OH235750   2.639   3.082  17.669 -0.6512 -0.3953 -0.5357
 3852TIP3    H135751   2.566   3.144  17.662  0.5404  1.5265  2.3566
 3852TIP3    H235752   2.712   3.126  17.626 -0.3466 -0.8199 -0.4558
 3853TIP3   OH235753   3.551   4.616  17.664  0.1604 -0.0946 -0.0602
 3853TIP3    H135754   3.479   4.595  17.724  0.1190 -0.9885 -0.4000
 3853TIP3    H235755   3.578   4.704  17.688 -0.4680 -0.0898  0.6583
 3854TIP3   OH235756   4.728   3.941  17.582 -0.0541  0.5618 -0.2072
 3854TIP3    H135757   4.724   3.887  17.661  0.0086  1.4362  0.4128
 3854TIP3    H235758   4.637   3.945  17.552 -0.0572  0.1077 -0.2647
 3855TIP3   OH235759   4.754   2.094  18.286 -0.4954  0.4276  0.3154
 3855TIP3    H135760   4.810   2.145  18.228  1.6308  0.8529  2.5341
 3855TIP3    H235761   4.808   2.019  18.312 -1.2551  0.3454  1.8072
 3856TIP3   OH235762   2.220   0.239  16.919  0.1460 -0.1568 -0.5411
 3856TIP3    H135763   2.286   0.304  16.944 -0.2039  0.0510 -0.1626
 3856TIP3    H235764   2.249   0.209  16.832  1.9901 -1.6912  0.5110
 3857TIP3   OH235765   3.213   2.159  19.274 -0.7003  0.3446 -0.3847
 3857TIP3    H135766   3.168   2.243  19.262  0.1226  0.8324 -0.1204
 3857TIP3    H235767   3.184   2.128  19.359 -0.6409  0.5874 -0.2753
 3858TIP3   OH235768   0.523   4.230  18.230 -0.0573 -0.1320  0.3959
 3858TIP3    H135769   0.439   4.201  18.264 -0.6000  2.0718  1.0928
 3858TIP3    H235770   0.516   4.222  18.135 -0.7098 -0.8027  0.4992
 3859TIP3   OH235771   3.080   0.678  19.072  0.1934 -0.4701  0.2797
 3859TIP3    H135772   3.019   0.645  19.137  1.2127 -0.8410  1.0748
 3859TIP3    H235773   3.059   0.630  18.992  0.2843 -1.5511  0.8820
 3860TIP3   OH235774   1.040   0.453  18.926  0.8301 -0.3134 -0.1010
 3860TIP3    H135775   1.110   0.447  18.990  2.4531  0.9408 -1.6573
 3860TIP3    H235776   0.962   0.421  18.972  1.9445  0.3360  2.3831
 3861TIP3   OH235777   4.507   3.818  17.795  0.1874  0.5723 -0.0857
 3861TIP3    H135778   4.469   3.787  17.877  1.3556  0.4125  0.4176
 3861TIP3    H235779   4.598   3.836  17.817  0.6596 -0.0090 -1.4885
 3862TIP3   OH235780   0.810   3.993  19.145 -0.0956 -0.1027 -0.0210
 3862TIP3    H135781   0.735   4.029  19.097  0.2757  0.2339 -0.3474
 3862TIP3    H235782   0.770   3.937  19.212 -0.6125 -1.1831 -1.1784
 3863TIP3   OH235783   2.676   2.278  17.180  0.5145 -0.4757  0.1124
 3863TIP3    H135784   2.612   2.222  17.224 -0.6677 -0.6567 -1.7587
 3863TIP3    H235785   2.756   2.226  17.177 -0.1219 -1.4511 -0.2258
 3864TIP3   OH235786   0.863   5.742  19.055  0.4042  0.4227  0.1071
 3864TIP3    H135787   0.821   5.736  19.141  1.2017  0.9049  0.5505
 3864TIP3    H235788   0.794   5.772  18.996 -0.6496 -1.7397  0.1593
 3865TIP3   OH235789   3.892   3.217  19.902 -0.0969  0.6931 -0.1252
 3865TIP3    H135790   3.932   3.257  19.825 -1.5464 -0.2854 -1.4373
 3865TIP3    H235791   3.873   3.291  19.960  0.1612  1.5418 -1.0982
 3866TIP3   OH235792   4.567   5.258  17.609 -0.4975 -0.5289  0.1674
 3866TIP3    H135793   4.563   5.206  17.689 -1.2447 -0.3727  0.2382
 3866TIP3    H235794   4.502   5.219  17.551 -0.4139 -0.2413 -0.1241
 3867TIP3   OH235795   0.150   6.689  18.774 -0.2837  0.1413  0.1748
 3867TIP3    H135796   0.108   6.605  18.793 -0.8036  0.5686  0.9542
 3867TIP3    H235797   0.092   6.731  18.711  0.3980 -0.4155 -0.8535
 3868TIP3   OH235798   2.925   5.936  20.196 -0.2115 -1.1111  0.1956
 3868TIP3    H135799   2.993   5.916  20.260 -0.7560  0.8555  1.4924
 3868TIP3    H235800   2.863   5.864  20.202  0.4486 -1.6319  0.9010
 3869TIP3   OH235801   4.355   0.078  20.148 -0.4032 -0.1154 -0.0504
 3869TIP3    H135802   4.370   0.004  20.207  0.4306 -0.5338 -0.7605
 3869TIP3    H235803   4.324   0.148  20.205 -2.0731 -1.2608  0.5279
 3870TIP3   OH235804   2.932   6.040  16.718 -0.1389 -0.2299  0.1220
 3870TIP3    H135805   2.880   6.102  16.667 -0.6101  0.0605  0.9383
 3870TIP3    H235806   2.920   5.956  16.673 -2.0136 -0.3460  0.7406
 3871TIP3   OH235807   2.199   1.893  18.003 -0.4208  0.1809  0.3719
 3871TIP3    H135808   2.275   1.841  17.977  0.7209  1.4168  1.0712
 3871TIP3    H235809   2.230   1.945  18.076 -1.5147  1.8284 -0.2777
 3872TIP3   OH235810   2.778   1.337  19.048  0.0929  0.5351 -0.1301
 3872TIP3    H135811   2.820   1.325  19.134  0.2567 -0.3733 -0.3231
 3872TIP3    H235812   2.837   1.293  18.987 -1.6063 -1.6813 -0.2725
 3873TIP3   OH235813   0.325   2.148  18.712 -0.1865 -0.1820  0.9077
 3873TIP3    H135814   0.245   2.159  18.763 -0.2408 -2.9826  1.5811
 3873TIP3    H235815   0.342   2.235  18.675 -2.9770  0.7221  1.5051
 3874TIP3   OH235816   4.949   1.669  17.828  0.1532  0.0941 -0.0448
 3874TIP3    H135817   4.917   1.605  17.892 -2.3390 -0.5161 -1.7491
 3874TIP3    H235818   4.974   1.616  17.753  1.5697  0.9067 -0.1666
 3875TIP3   OH235819   1.284   5.060  17.929  0.0625 -0.4122  0.3288
 3875TIP3    H135820   1.286   5.153  17.906  0.0400 -0.6911 -0.8749
 3875TIP3    H235821   1.353   5.050  17.994  0.2093  0.4140  0.3130
 3876TIP3   OH235822   0.839   0.753  19.337 -0.3653 -0.4992  0.3585
 3876TIP3    H135823   0.878   0.840  19.323 -0.8302 -0.1324  1.2491
 3876TIP3    H235824   0.755   0.757  19.291  0.0974 -0.8669 -0.5328
 3877TIP3   OH235825   2.492   0.496  20.224 -0.4756 -0.3401  0.0580
 3877TIP3    H135826   2.526   0.501  20.135 -0.0595  1.7437  0.2726
 3877TIP3    H235827   2.398   0.486  20.214 -0.3470 -1.0432 -0.5790
 3878TIP3   OH235828   5.031   3.179  20.255 -0.6483 -0.0244  0.0633
 3878TIP3    H135829   5.066   3.120  20.322 -1.3884  0.2333  0.6920
 3878TIP3    H235830   5.106   3.197  20.198  0.1258  0.1091  1.0866
 3879TIP3   OH235831   3.870   1.009  18.511 -0.1641 -0.3269 -0.6568
 3879TIP3    H135832   3.838   0.940  18.453  2.5091 -1.6231 -0.7326
 3879TIP3    H235833   3.945   1.046  18.465  2.9557 -2.3260  2.3033
 3880TIP3   OH235834   6.408   2.326  17.484  0.6141  0.0625  0.2938
 3880TIP3    H135835   6.363   2.393  17.534  2.5442  1.3888  0.3732
 3880TIP3    H235836   6.367   2.327  17.398 -0.4139  0.2201  0.7771
 3881TIP3   OH235837   4.425   2.271  16.946 -0.2844 -0.6907  0.2130
 3881TIP3    H135838   4.388   2.358  16.963 -0.6820 -1.3923  3.5990
 3881TIP3    H235839   4.354   2.211  16.966  0.7372 -1.8949  0.3307
 3882TIP3   OH235840   4.419   0.391  17.023  0.4896 -0.3093 -0.2212
 3882TIP3    H135841   4.364   0.445  16.966  1.1704  0.1132 -0.4892
 3882TIP3    H235842   4.366   0.313  17.040  0.0405 -0.1744 -0.9484
 3883TIP3   OH235843   1.431   4.639  18.685  0.0178  0.0240 -0.6041
 3883TIP3    H135844   1.371   4.597  18.624 -0.8730  0.9419 -0.3690
 3883TIP3    H235845   1.516   4.635  18.641 -0.0214 -2.0148 -0.5874
 3884TIP3   OH235846   3.261   3.140  19.706 -0.0326  0.8429 -0.2788
 3884TIP3    H135847   3.337   3.178  19.749 -1.2268  3.1842 -0.0628
 3884TIP3    H235848   3.197   3.128  19.777  0.6239 -2.7751 -0.1192
 3885TIP3   OH235849   3.725   5.126  18.678  0.3838  0.1148 -0.3623
 3885TIP3    H135850   3.752   5.061  18.743  0.4741  0.3754 -0.1366
 3885TIP3    H235851   3.807   5.151  18.634  0.1955 -0.8499 -1.3315
 3886TIP3   OH235852   4.716   2.717  19.831 -0.3343  0.6274 -0.3973
 3886TIP3    H135853   4.653   2.774  19.788  0.4650  1.1654 -0.8890
 3886TIP3    H235854   4.787   2.776  19.857  0.4382 -0.1137 -0.7798
 3887TIP3   OH235855   4.771   6.675  18.340 -0.1043  0.2195 -0.2143
 3887TIP3    H135856   4.713   6.734  18.292 -0.2567  0.3639  0.1434
 3887TIP3    H235857   4.847   6.664  18.283 -0.0294  0.8391 -0.2372
 3888TIP3   OH235858   0.823   0.974  17.994  0.4861  0.5559 -0.0358
 3888TIP3    H135859   0.819   1.063  17.960 -1.9193  0.5794  0.0899
 3888TIP3    H235860   0.890   0.931  17.941 -0.1584  1.7290 -1.9340
 3889TIP3   OH235861   5.816   5.669  18.314  0.1314 -0.4088  0.4773
 3889TIP3    H135862   5.883   5.715  18.365 -0.0741  1.0643 -0.5239
 3889TIP3    H235863   5.825   5.703  18.225 -1.0605 -1.1904  0.0226
 3890TIP3   OH235864   3.236   4.519  18.491 -0.2087 -0.0143  0.0144
 3890TIP3    H135865   3.305   4.584  18.481 -0.0679 -0.2520 -0.5906
 3890TIP3    H235866   3.192   4.543  18.573  0.5286  0.1965  0.3590
 3891TIP3   OH235867   0.357   4.987  18.625 -0.0917  0.2394  0.6763
 3891TIP3    H135868   0.380   5.014  18.714  1.6049 -1.2305  0.7471
 3891TIP3    H235869   0.441   4.988  18.578 -1.2555  3.4102 -1.6711
 3892TIP3   OH235870   6.491   0.088  19.803 -0.0572  0.6609 -0.4479
 3892TIP3    H135871   6.508   0.045  19.887  1.4539  1.3772 -0.3465
 3892TIP3    H235872   6.402   0.061  19.779  0.0173 -0.6832  0.6868
 3893TIP3   OH235873   4.436   0.952  20.322  0.4098  0.4982  0.3446
 3893TIP3    H135874   4.441   0.887  20.251  0.1245  1.0143 -0.1602
 3893TIP3    H235875   4.401   0.903  20.396  0.4727  0.0032  0.0565
 3894TIP3   OH235876   0.921   5.837  19.490  0.3363  0.0157  0.3517
 3894TIP3    H135877   1.007   5.855  19.527 -0.0954  0.8077  0.9997
 3894TIP3    H235878   0.867   5.910  19.519 -0.1851  0.3473 -1.3284
 3895TIP3   OH235879   0.937   1.370  20.355 -0.1671 -0.0251  0.0842
 3895TIP3    H135880   1.030   1.394  20.363  0.8064 -2.4672 -2.1265
 3895TIP3    H235881   0.900   1.436  20.297  0.8927 -0.3534 -1.0219
 3896TIP3   OH235882   6.169   1.885  18.812 -0.2082  0.7712  0.2528
 3896TIP3    H135883   6.212   1.951  18.758  1.3678  0.4981  1.1062
 3896TIP3    H235884   6.188   1.802  18.768  1.1676  0.5382  1.2390
 3897TIP3   OH235885   4.632   4.944  18.013 -0.0664  0.1869 -0.0187
 3897TIP3    H135886   4.678   4.969  18.093  0.4749  2.0335 -0.8305
 3897TIP3    H235887   4.700   4.913  17.954 -0.1472  0.7587 -0.4332
 3898TIP3   OH235888   6.419   0.552  17.454 -0.2925  0.7086  0.2371
 3898TIP3    H135889   6.343   0.499  17.428  0.0009  0.5144 -0.2530
 3898TIP3    H235890   6.397   0.641  17.427  0.1303  0.4610 -0.9838
 3899TIP3   OH235891   0.531   4.540  17.530 -0.3443  0.0714  0.0917
 3899TIP3    H135892   0.623   4.535  17.555  0.1811 -0.7912 -1.8280
 3899TIP3    H235893   0.510   4.634  17.532  0.3950  0.2283  1.0748
 3900TIP3   OH235894   3.225   6.070  18.582 -0.8502 -0.0155 -0.2814
 3900TIP3    H135895   3.150   6.034  18.629 -0.4216  1.4666  1.6769
 3900TIP3    H235896   3.186   6.130  18.518 -1.3878 -0.5021 -0.4106
 3901TIP3   OH235897   4.150   0.685  17.914  0.3694  0.2156 -0.1823
 3901TIP3    H135898   4.062   0.705  17.883  0.5988  2.1215  0.2522
 3901TIP3    H235899   4.208   0.717  17.845  0.7681 -2.2945 -1.1298
 3902TIP3   OH235900   2.856   3.952  20.249 -0.3640  0.1737 -0.4247
 3902TIP3    H135901   2.855   3.898  20.169  1.2834 -1.0958  0.3505
 3902TIP3    H235902   2.804   3.901  20.312 -1.5581  1.1152 -0.6119
 3903TIP3   OH235903   1.130   6.198  20.044  0.4260 -0.5443 -0.0859
 3903TIP3    H135904   1.109   6.108  20.070 -0.8652 -0.4702 -0.7748
 3903TIP3    H235905   1.051   6.229  19.999  1.0514  0.7527 -0.3426
 3904TIP3   OH235906   3.858   4.800  20.601 -0.3674 -0.4921  0.3039
 3904TIP3    H135907   3.845   4.712  20.565 -0.4222 -0.1988 -0.4116
 3904TIP3    H235908   3.770   4.835  20.611 -0.3118 -0.1273 -0.4241
 3905TIP3   OH235909   6.561   6.060  19.570 -0.1269 -0.4281 -0.0082
 3905TIP3    H135910   6.552   6.143  19.616  1.4908 -1.1571  1.7683
 3905TIP3    H235911   6.561   6.084  19.477  1.9249  1.7628  0.4727
 3906TIP3   OH235912   3.065   2.964  17.958 -0.3729  0.1837 -0.5171
 3906TIP3    H135913   3.050   3.046  17.910  0.4077  1.2479  0.9506
 3906TIP3    H235914   3.075   2.992  18.049  1.1183 -1.4191 -0.1393
 3907TIP3   OH235915   0.289   2.352  19.855 -0.2018 -1.0202 -0.3067
 3907TIP3    H135916   0.301   2.357  19.760 -0.1415 -1.1886 -0.3081
 3907TIP3    H235917   0.240   2.271  19.869  0.2380 -1.2667 -0.1529
 3908TIP3   OH235918   5.902   0.633  20.108 -0.1461 -0.7470 -0.3236
 3908TIP3    H135919   5.930   0.547  20.139 -0.9369 -0.9681 -0.2001
 3908TIP3    H235920   5.885   0.620  20.015  2.3101 -0.0631 -0.9280
 3909TIP3   OH235921   2.135   1.909  19.794  0.0099  0.0461 -0.3365
 3909TIP3    H135922   2.056   1.860  19.819  0.1124 -0.5401 -1.1073
 3909TIP3    H235923   2.116   1.940  19.705  0.0729  1.1603  0.0333
 3910TIP3   OH235924   1.494   5.480  19.288 -0.1572 -0.3889  0.3707
 3910TIP3    H135925   1.584   5.513  19.280  0.4454 -1.9776  0.1416
 3910TIP3    H235926   1.448   5.548  19.336 -0.1030  2.6880 -3.4741
 3911TIP3   OH235927   5.141   5.827  17.615  0.8988  0.0575  0.1555
 3911TIP3    H135928   5.054   5.849  17.646 -0.2413 -3.3496 -0.2119
 3911TIP3    H235929   5.175   5.909  17.579 -2.3123  1.4131 -0.1367
 3912TIP3   OH235930   4.624   0.807  19.978 -0.0293  0.3620  0.5489
 3912TIP3    H135931   4.686   0.863  20.024 -0.5256  1.5081 -0.1546
 3912TIP3    H235932   4.620   0.842  19.889 -0.0767 -1.0201 -0.0245
 3913TIP3   OH235933   5.080   5.169  18.443 -0.5992 -0.3347 -0.3494
 3913TIP3    H135934   5.112   5.231  18.510 -0.3427 -0.3981 -0.4120
 3913TIP3    H235935   5.135   5.187  18.367 -0.0971 -1.0718 -0.1713
 3914TIP3   OH235936   3.789   4.165  17.677  0.6265  0.2928 -0.1682
 3914TIP3    H135937   3.844   4.230  17.634 -2.4629  1.6313 -2.5338
 3914TIP3    H235938   3.755   4.112  17.605  0.3105 -1.6870  1.3786
 3915TIP3   OH235939   5.865   2.843  19.094  0.5578  0.2596 -0.0735
 3915TIP3    H135940   5.875   2.757  19.054 -0.0130 -0.1629  0.6882
 3915TIP3    H235941   5.857   2.826  19.187 -2.8319  0.8427 -0.1577
 3916TIP3   OH235942   1.612   4.422  19.874  0.7767 -0.0553 -0.1926
 3916TIP3    H135943   1.590   4.515  19.878 -0.4826 -0.3488  0.0519
 3916TIP3    H235944   1.680   4.411  19.940  0.0157  0.4554  0.6957
 3917TIP3   OH235945   2.285   0.638  17.580  0.2666  0.4718  0.0684
 3917TIP3    H135946   2.199   0.679  17.574  0.5045  0.8602 -0.7987
 3917TIP3    H235947   2.286   0.596  17.666 -1.5767 -1.2965 -0.6764
 3918TIP3   OH235948   1.190   3.621  20.322 -0.1530 -0.1275  0.8793
 3918TIP3    H135949   1.097   3.641  20.330 -0.2383 -0.1657  0.0664
 3918TIP3    H235950   1.206   3.619  20.227  1.0443  1.5887  0.9977
 3919TIP3   OH235951   4.557   1.913  19.976 -1.1948 -0.4399  0.4572
 3919TIP3    H135952   4.563   1.855  20.052  0.7624  0.4292  1.0108
 3919TIP3    H235953   4.471   1.893  19.938 -0.8062 -3.3767  0.8580
 3920TIP3   OH235954   4.069   5.950  18.896  0.0886  0.0110  0.1129
 3920TIP3    H135955   4.125   5.909  18.830  1.2417  1.2516  0.2648
 3920TIP3    H235956   4.073   6.044  18.875 -1.7917  0.1632  0.2598
 3921TIP3   OH235957   2.940   0.348  18.139 -0.1085 -0.1271 -0.1102
 3921TIP3    H135958   2.997   0.273  18.120  0.0013 -0.1693  0.3889
 3921TIP3    H235959   2.854   0.320  18.108 -0.3770 -1.0219  1.3334
 3922TIP3   OH235960   2.421   5.058  18.919  0.2767 -0.0457 -0.4335
 3922TIP3    H135961   2.443   5.080  18.828 -1.7379  2.3759 -0.4513
 3922TIP3    H235962   2.325   5.062  18.922  0.1856 -1.9722  1.4041
 3923TIP3   OH235963   2.159   5.005  17.601 -0.1733  0.5753 -0.2266
 3923TIP3    H135964   2.093   4.962  17.656  1.1200 -0.5473  0.4976
 3923TIP3    H235965   2.120   5.006  17.513 -1.1637 -0.0503  0.1921
 3924TIP3   OH235966   0.199   1.981  18.232 -0.5767  0.1337  0.0239
 3924TIP3    H135967   0.292   1.958  18.230 -0.6356 -0.0671 -1.5539
 3924TIP3    H235968   0.163   1.927  18.303  0.2519 -0.8724 -0.2899
 3925TIP3   OH235969   4.697   0.487  16.943  0.4093 -0.2276 -0.1878
 3925TIP3    H135970   4.626   0.454  16.998 -1.1397  2.1529 -0.6157
 3925TIP3    H235971   4.685   0.442  16.859 -0.8053  0.3122 -0.3303
 3926TIP3   OH235972   3.075   4.943  19.864  0.0973 -0.0301 -0.1115
 3926TIP3    H135973   3.118   4.941  19.949 -1.0512 -1.2699  0.4759
 3926TIP3    H235974   2.983   4.926  19.883 -0.1322 -0.6728 -1.6279
 3927TIP3   OH235975   6.632   4.020  19.532  0.1547  0.5302 -0.1983
 3927TIP3    H135976   6.704   3.957  19.535  0.4412  0.8877  0.7632
 3927TIP3    H235977   6.571   3.990  19.601 -0.3317  0.5740 -0.6023
 3928TIP3   OH235978   2.325   0.914  18.179  0.4057 -0.1941 -0.0101
 3928TIP3    H135979   2.291   0.901  18.268 -0.8134  1.5709 -0.1693
 3928TIP3    H235980   2.303   0.832  18.134 -1.1683 -0.1893  0.6718
 3929TIP3   OH235981   6.213   4.905  17.486  0.0578 -0.0737 -0.0580
 3929TIP3    H135982   6.225   4.971  17.554  0.2172  0.1545 -0.3049
 3929TIP3    H235983   6.124   4.873  17.498 -0.2570  0.6707 -0.3652
 3930TIP3   OH235984   6.243   2.919  18.526 -0.3105  1.1757 -0.9931
 3930TIP3    H135985   6.176   2.943  18.590 -0.7863 -0.4096 -0.8564
 3930TIP3    H235986   6.326   2.930  18.572 -0.6785 -0.7349  0.2120
 3931TIP3   OH235987   3.393   6.069  16.679 -0.0585  0.2168 -0.1564
 3931TIP3    H135988   3.390   6.163  16.662  0.6125  0.7110  2.1360
 3931TIP3    H235989   3.485   6.045  16.665 -0.3980 -0.3186 -1.6215
 3932TIP3   OH235990   5.121   0.204  20.075 -0.0506 -0.5592 -0.2595
 3932TIP3    H135991   5.107   0.241  19.988  0.9824  0.1968 -0.1158
 3932TIP3    H235992   5.080   0.266  20.135  1.4516  0.2765 -0.0374
 3933TIP3   OH235993   3.476   5.450  16.986  0.2151  0.0327  0.1249
 3933TIP3    H135994   3.402   5.401  16.950 -0.9526  1.1861  0.8645
 3933TIP3    H235995   3.538   5.456  16.914  0.2055 -2.0935 -0.1258
 3934TIP3   OH235996   5.802   5.373  17.174  0.0541  0.0633 -0.0507
 3934TIP3    H135997   5.754   5.292  17.190 -1.1384  0.3994 -1.6888
 3934TIP3    H235998   5.789   5.391  17.081  1.8419  1.1751 -0.1265
 3935TIP3   OH235999   6.354   5.735  18.230 -0.2989 -0.1139  0.2648
 3935TIP3    H136000   6.373   5.684  18.151 -1.4689  0.5851 -0.5083
 3935TIP3    H236001   6.395   5.686  18.301 -0.7638 -1.7352 -0.5392
 3936TIP3   OH236002   2.792   2.894  18.307  0.2384  0.5742  0.2853
 3936TIP3    H136003   2.888   2.895  18.313  0.1886  0.2044  1.6000
 3936TIP3    H236004   2.772   2.950  18.232  1.4953  0.3283 -0.2665
 3937TIP3   OH236005   1.330   0.203  18.835  0.2114  0.2180 -0.3462
 3937TIP3    H136006   1.406   0.152  18.863 -0.2298 -0.0670  0.3828
 3937TIP3    H236007   1.277   0.142  18.785  0.3964  0.3794 -0.7404
 3938TIP3   OH236008   0.623   4.761  18.383 -0.2443 -0.7968 -0.3279
 3938TIP3    H136009   0.645   4.669  18.369  2.5254 -0.1728 -0.6596
 3938TIP3    H236010   0.658   4.781  18.470 -0.5335  0.0120 -0.3941
 3939TIP3   OH236011   1.050   2.884  19.550 -0.4964  0.0610  0.3670
 3939TIP3    H136012   1.010   2.967  19.525 -2.0570 -0.5745  0.6762
 3939TIP3    H236013   1.141   2.907  19.571 -0.7847  1.6065  0.0412
 3940TIP3   OH236014   5.968   3.940  19.114 -0.4219 -0.1879  0.4540
 3940TIP3    H136015   6.018   3.868  19.075 -0.0686  0.0451  0.4744
 3940TIP3    H236016   5.948   3.910  19.203 -0.6402 -0.4359  0.3209
 3941TIP3   OH236017   2.502   6.209  19.811 -0.5141  0.6674 -0.2997
 3941TIP3    H136018   2.586   6.256  19.809  0.2542 -0.6634 -1.1776
 3941TIP3    H236019   2.489   6.179  19.721 -0.8471 -0.9484  0.2472
 3942TIP3   OH236020   4.333   5.244  18.226  0.3580  0.0654 -0.1542
 3942TIP3    H136021   4.414   5.286  18.196 -0.1757  2.3535  1.3045
 3942TIP3    H236022   4.357   5.201  18.308  0.4896 -0.8837 -0.6851
 3943TIP3   OH236023   6.663   3.309  20.025  0.0352  0.1785  0.0738
 3943TIP3    H136024   6.594   3.372  20.001  1.1475  1.3867 -0.0566
 3943TIP3    H236025   6.682   3.262  19.944 -0.2808  0.2015 -0.0154
 3944TIP3   OH236026   2.883   5.929  19.155 -0.3016 -0.0835  0.3570
 3944TIP3    H136027   2.789   5.935  19.140 -0.0970  1.1073 -0.5976
 3944TIP3    H236028   2.911   5.851  19.107 -0.6771 -0.0005  0.0010
 3945TIP3   OH236029   4.816   0.474  18.726 -0.6570 -0.1536 -0.1451
 3945TIP3    H136030   4.905   0.462  18.761  0.2407  2.2192 -1.3529
 3945TIP3    H236031   4.777   0.387  18.727  2.6104 -1.8304 -1.9624
 3946TIP3   OH236032   4.013   4.635  17.163 -0.0837  0.1173  0.5237
 3946TIP3    H136033   4.036   4.728  17.159  1.2283 -0.2048 -0.0427
 3946TIP3    H236034   3.955   4.621  17.088 -1.4496  0.7498  1.4212
 3947TIP3   OH236035   2.474   5.003  18.169 -0.1329  0.2447 -0.3112
 3947TIP3    H136036   2.476   4.977  18.077 -0.9581  0.5682 -0.4324
 3947TIP3    H236037   2.496   4.923  18.218  0.1985  0.0465 -0.7812
 3948TIP3   OH236038   6.327   4.929  18.316  0.4780 -0.0152 -0.4821
 3948TIP3    H136039   6.252   4.988  18.327 -0.9913 -1.6492 -1.2076
 3948TIP3    H236040   6.358   4.946  18.227  1.2443  0.9150 -0.0588
 3949TIP3   OH236041   3.352   6.337  17.231 -0.6250 -0.5616  0.4561
 3949TIP3    H136042   3.275   6.281  17.243  0.1425 -1.5982  0.6890
 3949TIP3    H236043   3.417   6.280  17.190  1.0072 -0.6095  2.8894
 3950TIP3   OH236044   4.483   3.533  17.197  0.2253 -0.0137 -0.3161
 3950TIP3    H136045   4.394   3.505  17.220  0.0093  0.4516 -0.5591
 3950TIP3    H236046   4.486   3.624  17.226  0.2083  0.3512 -1.4199
 3951TIP3   OH236047   2.522   2.133  20.210 -0.4880  0.1984  0.0235
 3951TIP3    H136048   2.508   2.044  20.243  1.6762 -0.3377 -0.3263
 3951TIP3    H236049   2.440   2.156  20.167 -1.6720 -0.9687  1.5252
 3952TIP3   OH236050   3.494   0.143  17.324 -0.3087  0.4787 -0.3987
 3952TIP3    H136051   3.539   0.111  17.402 -0.2440 -1.4449 -1.1851
 3952TIP3    H236052   3.526   0.233  17.314 -1.2041  1.2300  2.4280
 3953TIP3   OH236053   4.819   2.415  20.006  0.5412 -1.1421  0.2320
 3953TIP3    H136054   4.829   2.320  20.008 -1.7081 -1.4311  0.0980
 3953TIP3    H236055   4.738   2.429  19.956  1.8117  0.9402 -1.4142
 3954TIP3   OH236056   3.749   1.798  17.963  0.6117 -0.0940 -0.0032
 3954TIP3    H136057   3.751   1.868  17.897 -1.4849  1.3529  1.3619
 3954TIP3    H236058   3.828   1.813  18.016  0.3813  1.0085  0.0388
 3955TIP3   OH236059   5.405   6.298  17.373 -0.2162  0.0740 -0.2791
 3955TIP3    H136060   5.374   6.234  17.309 -0.1442  0.1311 -0.3696
 3955TIP3    H236061   5.499   6.282  17.379 -0.2685 -0.1280  0.0303
 3956TIP3   OH236062   5.692   0.142  19.857 -0.0422  0.9035 -0.4642
 3956TIP3    H136063   5.644   0.115  19.779  0.3290  2.1166 -1.1311
 3956TIP3    H236064   5.773   0.090  19.855 -0.0635  0.8849 -0.8524
 3957TIP3   OH236065   3.800   5.472  18.784 -0.0105 -0.4537 -0.5073
 3957TIP3    H136066   3.796   5.558  18.825 -0.6915  0.0014 -1.4865
 3957TIP3    H236067   3.861   5.422  18.838  1.8398  1.2064 -0.9699
 3958TIP3   OH236068   0.001   6.117  18.741 -0.2091  0.1116  0.6887
 3958TIP3    H136069  -0.092   6.115  18.765  0.1722 -2.1208  2.3041
 3958TIP3    H236070   0.045   6.149  18.819  0.4038  1.1810 -0.0782
 3959TIP3   OH236071   2.559   4.885  19.078 -0.0604 -0.0310 -0.3940
 3959TIP3    H136072   2.514   4.955  19.030 -0.4519 -0.4765 -0.6842
 3959TIP3    H236073   2.650   4.914  19.082 -0.2743  0.6486 -0.2282
 3960TIP3   OH236074   5.660   5.122  17.202  0.1799 -0.1218  0.1329
 3960TIP3    H136075   5.646   5.086  17.115  1.4729  0.3908 -0.3069
 3960TIP3    H236076   5.588   5.086  17.254 -0.4192 -0.7031 -1.0530
 3961TIP3   OH236077   4.271   0.570  18.499  0.2908  0.2453  0.4103
 3961TIP3    H136078   4.308   0.557  18.586  0.0825 -1.6362  0.2456
 3961TIP3    H236079   4.185   0.609  18.516  0.5056  0.4645  1.0142
 3962TIP3   OH236080   6.068   5.806  18.355  0.4093  0.0321  0.0727
 3962TIP3    H136081   6.137   5.873  18.353 -0.5578  1.0531 -0.2888
 3962TIP3    H236082   6.095   5.742  18.289  0.8478  0.5779 -0.2896
 3963TIP3   OH236083   3.277   5.534  18.530  0.7485 -0.2287  0.4679
 3963TIP3    H136084   3.254   5.627  18.529  0.4777 -0.2217  2.5573
 3963TIP3    H236085   3.349   5.526  18.468 -1.5398  0.6550 -2.5360
 3964TIP3   OH236086   2.515   2.827  19.401  0.1289  0.6103 -0.3517
 3964TIP3    H136087   2.458   2.888  19.447  0.3938 -0.0513  0.9188
 3964TIP3    H236088   2.467   2.745  19.400  0.2124  0.5676 -1.0972
 3965TIP3   OH236089   0.927   4.975  20.003 -0.1495  0.1108  0.0081
 3965TIP3    H136090   0.879   4.919  20.063 -0.5170 -0.2535 -0.6091
 3965TIP3    H236091   0.967   5.042  20.058 -1.5082  0.5198  0.5228
 3966TIP3   OH236092   5.811   6.108  19.967  0.1041  0.1999  0.1599
 3966TIP3    H136093   5.729   6.070  19.937 -0.2625 -1.5783  3.0733
 3966TIP3    H236094   5.788   6.159  20.044  1.4545  1.6103 -0.3147
 3967TIP3   OH236095   6.301   2.169  17.958 -0.3736 -0.6867  0.3865
 3967TIP3    H136096   6.368   2.195  18.021 -0.2515 -0.2648  0.0837
 3967TIP3    H236097   6.346   2.170  17.873 -0.5200 -1.3097  0.2971
 3968TIP3   OH236098   1.592   0.957  18.644  0.0810 -0.1203  0.2337
 3968TIP3    H136099   1.535   0.882  18.625  1.8248 -2.1969  2.5370
 3968TIP3    H236100   1.674   0.937  18.599  0.6182  0.3241  0.9943
 3969TIP3   OH236101   0.799   4.228  18.280 -0.4644  0.5732  0.6792
 3969TIP3    H136102   0.816   4.321  18.296 -1.4738  0.8340  0.2903
 3969TIP3    H236103   0.704   4.219  18.287 -0.2958 -0.6670  1.9434
 3970TIP3   OH236104   5.861   3.313  17.549  0.6578 -0.0241 -0.3812
 3970TIP3    H136105   5.900   3.229  17.525 -0.4076 -0.9469  0.9642
 3970TIP3    H236106   5.767   3.302  17.534  0.5164  0.9782 -0.3470
 3971TIP3   OH236107   5.151   6.242  16.986  0.1012  0.4171 -0.8351
 3971TIP3    H136108   5.216   6.179  16.953  0.3799  0.0743  0.2983
 3971TIP3    H236109   5.073   6.189  17.003  1.0754 -0.2095  2.4243
 3972TIP3   OH236110   6.644   2.075  18.024 -0.4299  0.6200 -0.4823
 3972TIP3    H136111   6.628   2.001  18.083  0.4999  1.5579  1.0054
 3972TIP3    H236112   6.583   2.142  18.052 -0.4021  0.8577 -0.9896
 3973TIP3   OH236113   4.249   0.979  16.815 -0.0078 -0.0771 -0.4410
 3973TIP3    H136114   4.205   0.900  16.846  0.0869 -0.2499 -0.7395
 3973TIP3    H236115   4.203   1.051  16.858  1.1726 -0.3667  1.4194
 3974TIP3   OH236116   2.799   1.492  18.228  0.1733  0.1813 -0.0475
 3974TIP3    H136117   2.711   1.453  18.228 -0.8195  2.2788 -1.1483
 3974TIP3    H236118   2.813   1.520  18.138  1.9859 -0.0519  0.1178
 3975TIP3   OH236119   3.564   5.270  19.023  0.5296  0.4382 -0.4248
 3975TIP3    H136120   3.487   5.307  19.067  0.3604 -0.0290 -0.3272
 3975TIP3    H236121   3.564   5.312  18.937 -0.2101 -0.0412 -0.6670
 3976TIP3   OH236122   5.671   6.493  19.540 -0.1363 -0.3384  0.4543
 3976TIP3    H136123   5.646   6.416  19.592 -0.4355 -0.0575  0.7334
 3976TIP3    H236124   5.620   6.565  19.578  1.9209  0.5114  1.7750
 3977TIP3   OH236125   4.357   5.114  18.458  0.2246  0.0070 -0.2494
 3977TIP3    H136126   4.331   5.158  18.538 -0.5109  1.5585 -1.3058
 3977TIP3    H236127   4.277   5.074  18.425  0.6345 -1.0972  0.0498
 3978TIP3   OH236128   1.674   2.076  19.419 -0.1280 -0.1052  0.2938
 3978TIP3    H136129   1.598   2.028  19.451 -1.0272 -0.2546 -1.8929
 3978TIP3    H236130   1.743   2.010  19.414  0.2881  0.0971  2.5863
 3979TIP3   OH236131   2.129   2.148  19.289 -0.5111  0.0154 -0.0787
 3979TIP3    H136132   2.053   2.150  19.231 -1.3195 -2.4527  0.7279
 3979TIP3    H236133   2.203   2.129  19.232 -1.0631 -0.8611 -0.5290
 3980TIP3   OH236134   6.434   1.836  20.111  0.4954  0.3471 -0.0371
 3980TIP3    H136135   6.429   1.859  20.203 -0.0541  1.1216 -0.2505
 3980TIP3    H236136   6.370   1.766  20.100  1.1373 -0.3057  0.3247
 3981TIP3   OH236137   3.755   1.710  18.663  0.7273 -0.3805 -0.2769
 3981TIP3    H136138   3.801   1.794  18.664 -0.9026  0.5722 -1.1294
 3981TIP3    H236139   3.757   1.683  18.571 -0.4777 -0.2708 -0.3435
 3982TIP3   OH236140   4.387   6.714  18.938 -0.6163  0.1873 -0.1194
 3982TIP3    H136141   4.448   6.646  18.911 -2.0719 -1.7169  1.1493
 3982TIP3    H236142   4.320   6.716  18.869 -0.1877  0.8777 -0.5243
 3983TIP3   OH236143   3.509   4.303  19.987  0.0035  0.1785  0.0633
 3983TIP3    H136144   3.438   4.248  20.020 -1.3563  2.0745  0.4165
 3983TIP3    H236145   3.516   4.375  20.049  0.2820  1.5449 -1.4734
 3984TIP3   OH236146   1.554   1.263  18.048  0.6176 -0.6561  0.2511
 3984TIP3    H136147   1.532   1.247  17.956 -0.2580 -0.6554  0.4466
 3984TIP3    H236148   1.515   1.188  18.094 -0.9103  0.4663  0.8587
 3985TIP3   OH236149   5.922   1.950  18.523 -0.1018 -0.0515  0.1365
 3985TIP3    H136150   6.009   1.988  18.514  1.1241 -2.6256  0.4074
 3985TIP3    H236151   5.872   1.988  18.450  1.8786 -0.1360 -1.3427
 3986TIP3   OH236152   6.594   2.693  18.712  0.4287  0.1568 -0.0485
 3986TIP3    H136153   6.685   2.722  18.718 -0.2197  2.1672  0.6949
 3986TIP3    H236154   6.569   2.676  18.803 -0.6088  1.9048  0.0311
 3987TIP3   OH236155   2.856   0.412  19.773  0.6009 -0.1850 -0.4277
 3987TIP3    H136156   2.950   0.426  19.786  0.1071  2.4119  1.2731
 3987TIP3    H236157   2.819   0.411  19.862 -1.1364  0.7389 -1.0786
 3988TIP3   OH236158   0.431   5.457  18.050  0.0601 -0.1659 -0.3793
 3988TIP3    H136159   0.454   5.415  17.967  1.2825  2.2244 -1.3444
 3988TIP3    H236160   0.347   5.499  18.033  1.5376  2.6368 -1.4499
 3989TIP3   OH236161   0.362   4.060  19.843 -0.0099  0.1531 -0.0632
 3989TIP3    H136162   0.283   4.096  19.803 -0.0805  1.3293  1.0813
 3989TIP3    H236163   0.434   4.110  19.805  0.3453 -1.6148 -1.9024
 3990TIP3   OH236164   6.224   2.388  19.437  0.0613  0.2685 -0.2512
 3990TIP3    H136165   6.152   2.441  19.473  0.2246  0.0955  0.3431
 3990TIP3    H236166   6.265   2.445  19.372 -0.5281  0.4197 -0.4978
 3991TIP3   OH236167   1.086   5.545  17.954  0.3613 -0.1872 -0.2806
 3991TIP3    H136168   1.044   5.624  17.987 -0.4475 -0.4385 -0.6641
 3991TIP3    H236169   1.130   5.507  18.030  0.3213  0.3580  0.0177
 3992TIP3   OH236170   6.159   0.700  19.756 -0.0647 -0.2864  0.7352
 3992TIP3    H136171   6.125   0.753  19.684  2.1180  1.9788  1.2161
 3992TIP3    H236172   6.127   0.744  19.835  0.7417 -0.4134  1.1441
 3993TIP3   OH236173   4.222   5.457  18.762 -0.3749  0.2191  1.1321
 3993TIP3    H136174   4.148   5.518  18.759 -0.1371  0.5102  1.2434
 3993TIP3    H236175   4.262   5.462  18.676 -0.7745 -0.3015  0.9083
 3994TIP3   OH236176   0.865   1.692  19.232  0.2354  0.2813  0.5233
 3994TIP3    H136177   0.837   1.698  19.324 -1.0760  0.4312  0.1332
 3994TIP3    H236178   0.840   1.604  19.205  1.6532 -0.1839  0.5966
 3995TIP3   OH236179   0.049   0.596  18.061  0.0208  0.7324  0.1458
 3995TIP3    H136180   0.103   0.532  18.107 -1.1012  1.3016  2.3886
 3995TIP3    H236181   0.107   0.670  18.046  0.1289  1.0139  1.7924
 3996TIP3   OH236182   5.197   5.561  17.589 -0.0726 -0.0760 -0.4502
 3996TIP3    H136183   5.178   5.654  17.602  0.5251  0.1545 -1.2278
 3996TIP3    H236184   5.284   5.558  17.551  0.5778 -1.0371  0.9855
 3997TIP3   OH236185   3.214   0.238  18.136  0.4248 -0.4401 -0.4121
 3997TIP3    H136186   3.243   0.321  18.098 -0.0766 -0.6899 -1.3629
 3997TIP3    H236187   3.259   0.171  18.085 -0.1535 -0.7846 -0.4786
 3998TIP3   OH236188   4.323   1.170  18.351  0.2673  0.1891 -0.2028
 3998TIP3    H136189   4.412   1.205  18.360  0.5898  0.1961 -2.7171
 3998TIP3    H236190   4.334   1.075  18.357  0.4647  0.1854 -0.5962
 3999TIP3   OH236191   2.913   4.734  17.422 -0.0303  0.2337 -0.5968
 3999TIP3    H136192   2.870   4.659  17.382  0.9557 -1.6706  1.6510
 3999TIP3    H236193   2.999   4.738  17.379  0.5510 -1.0264  0.3684
 4000TIP3   OH236194   3.522   4.893  18.300  0.3337 -0.1882  0.0067
 4000TIP3    H136195   3.518   4.982  18.334 -0.8531 -0.5724  0.9312
 4000TIP3    H236196   3.554   4.840  18.374 -0.4253 -0.7474 -0.0522
 4001TIP3   OH236197   1.718   2.345  19.356 -0.0536 -0.1239  0.3097
 4001TIP3    H136198   1.672   2.334  19.273 -0.7644 -0.1543  0.7015
 4001TIP3    H236199   1.734   2.255  19.386  0.7768 -0.1237 -0.0932
 4002TIP3   OH236200   0.189   3.304  17.620 -0.4051 -0.4191 -0.3735
 4002TIP3    H136201   0.170   3.216  17.587 -1.1099 -0.3281 -0.2252
 4002TIP3    H236202   0.108   3.353  17.605  0.3926  0.5653 -1.6484
 4003TIP3   OH236203   5.466   1.537  17.877 -0.2777 -0.3285  0.1868
 4003TIP3    H136204   5.448   1.449  17.845 -1.6777 -0.3494  0.9439
 4003TIP3    H236205   5.531   1.572  17.816 -0.1110 -1.6740 -0.4507
 4004TIP3   OH236206   1.919   5.522  19.705  0.5004  0.5238  0.1811
 4004TIP3    H136207   2.005   5.554  19.731  0.8411 -0.4430  0.2795
 4004TIP3    H236208   1.908   5.440  19.753 -0.9152  1.1375  0.9634
 4005TIP3   OH236209   6.342   0.720  19.375 -0.6523  0.1033  0.0631
 4005TIP3    H136210   6.328   0.646  19.316  1.4747  0.0096 -0.3959
 4005TIP3    H236211   6.282   0.788  19.342 -1.4110 -0.8268 -0.5370
 4006TIP3   OH236212   2.406   4.676  18.891  0.0693 -0.3907  0.0521
 4006TIP3    H136213   2.426   4.702  18.801 -0.8313  0.2481  0.0179
 4006TIP3    H236214   2.458   4.736  18.945 -1.3019  0.9592 -0.0417
 4007TIP3   OH236215   4.115   0.783  17.397 -0.4196 -0.1796  0.4733
 4007TIP3    H136216   4.161   0.867  17.396  1.1864 -0.9993  1.7128
 4007TIP3    H236217   4.174   0.723  17.353 -1.1283 -0.8726  0.4563
 4008TIP3   OH236218   6.223   2.291  18.326 -0.3978  0.0894 -0.0464
 4008TIP3    H136219   6.292   2.323  18.384  0.3022  2.2704 -1.9312
 4008TIP3    H236220   6.144   2.337  18.355 -0.3870  0.0010  0.1242
 4009TIP3   OH236221   4.296   5.642  20.157 -0.7123 -0.1702  0.4379
 4009TIP3    H136222   4.235   5.713  20.172 -1.2187  0.0298 -2.1302
 4009TIP3    H236223   4.289   5.623  20.063  0.7433 -2.3739  0.6884
 4010TIP3   OH236224   1.357   0.895  17.372  0.0136  0.1717 -0.7413
 4010TIP3    H136225   1.357   0.929  17.462  1.1445  0.4444 -0.8302
 4010TIP3    H236226   1.280   0.839  17.368 -0.0217  0.1074  0.4263
 4011TIP3   OH236227   0.059   4.447  18.890 -0.0450 -0.4664  0.1024
 4011TIP3    H136228   0.000   4.416  18.821  0.4228  0.1044 -0.5693
 4011TIP3    H236229   0.032   4.537  18.906 -0.4378 -0.7323  0.9942
 4012TIP3   OH236230   4.552   4.600  19.848  0.1318  0.2162  0.5022
 4012TIP3    H136231   4.573   4.546  19.924  0.4846 -2.3852 -1.3252
 4012TIP3    H236232   4.486   4.662  19.880 -0.4472 -1.4102  2.6785
 4013TIP3   OH236233   0.863   0.227  18.963 -0.5050 -0.0502 -0.2325
 4013TIP3    H136234   0.816   0.210  18.881 -1.6687 -2.3583  0.7960
 4013TIP3    H236235   0.796   0.260  19.022 -0.2060 -0.6586  0.4550
 4014TIP3   OH236236   1.578   3.676  19.301  0.5817 -0.1390  0.1359
 4014TIP3    H136237   1.628   3.596  19.316  4.1722  2.2240  2.2142
 4014TIP3    H236238   1.562   3.712  19.388  1.4454  2.6387 -0.7182
 4015TIP3   OH236239   5.132   1.059  19.994  0.1288 -0.6206 -0.5069
 4015TIP3    H136240   5.120   1.126  19.926 -0.1935  0.1481  0.2880
 4015TIP3    H236241   5.153   0.980  19.945 -2.0205 -0.5663 -1.6485
 4016TIP3   OH236242   1.796   1.486  16.566  0.4073  0.0953  0.3991
 4016TIP3    H136243   1.738   1.459  16.495  0.7079  0.1231  0.1366
 4016TIP3    H236244   1.883   1.486  16.526  0.4321  1.4146  0.3886
 4017TIP3   OH236245   0.914   5.213  19.535 -0.6699  0.0028 -0.2470
 4017TIP3    H136246   1.005   5.182  19.531 -0.7985 -0.4685  0.3000
 4017TIP3    H236247   0.878   5.192  19.449 -0.3664 -0.1575 -0.3361
 4018TIP3   OH236248   4.447   5.701  17.545  0.1988 -0.8642 -0.2306
 4018TIP3    H136249   4.506   5.647  17.597  0.7776 -0.1149 -0.0939
 4018TIP3    H236250   4.495   5.782  17.529 -1.2551  0.3168  1.0176
 4019TIP3   OH236251   3.661   5.246  17.574  0.0174 -0.2228  0.4857
 4019TIP3    H136252   3.614   5.232  17.492 -1.7762 -1.5445  1.6573
 4019TIP3    H236253   3.673   5.158  17.609  2.3527  0.1799  0.8336
 4020TIP3   OH236254   4.326   6.691  19.634  0.2291 -0.0256 -0.0684
 4020TIP3    H136255   4.324   6.632  19.709 -1.9509  0.6250  0.4699
 4020TIP3    H236256   4.302   6.777  19.670 -1.8904  0.1106 -1.6041
 4021TIP3   OH236257   4.791   2.490  19.321  0.1131 -0.3697 -0.2952
 4021TIP3    H136258   4.753   2.529  19.242  0.3848  0.6730  0.0702
 4021TIP3    H236259   4.765   2.398  19.317 -0.7041 -0.1233 -1.1026
 4022TIP3   OH236260   3.644   3.960  19.817  0.1170 -0.1345  0.7135
 4022TIP3    H136261   3.582   3.975  19.745  0.1439 -0.8589  0.5283
 4022TIP3    H236262   3.730   3.973  19.777  0.0978  0.6997  0.9285
 4023TIP3   OH236263   4.624   5.770  19.901 -0.0237  0.2627  0.2886
 4023TIP3    H136264   4.661   5.691  19.861  1.0779  0.8601  0.0826
 4023TIP3    H236265   4.575   5.812  19.830  0.4277  0.3918  0.0467
 4024TIP3   OH236266   6.194   0.774  18.597 -0.0696 -0.1076 -0.3338
 4024TIP3    H136267   6.189   0.771  18.501  0.6117  0.2665 -0.3809
 4024TIP3    H236268   6.254   0.846  18.616  1.2072 -1.3133  0.3340
 4025TIP3   OH236269   6.367   3.908  18.919 -0.3615 -0.7280 -0.2823
 4025TIP3    H136270   6.303   3.901  18.849  1.1849 -0.6431 -1.7921
 4025TIP3    H236271   6.452   3.901  18.874  0.7398  1.0474  1.3679
 4026TIP3   OH236272   0.113   2.238  18.261  0.4200  0.0833  0.1931
 4026TIP3    H136273   0.198   2.264  18.297  1.3177  0.6649 -2.1779
 4026TIP3    H236274   0.116   2.142  18.259  1.1350  0.1074 -0.1110
 4027TIP3   OH236275   3.581   5.848  19.202 -0.2450  0.8646  0.0993
 4027TIP3    H136276   3.642   5.920  19.217 -0.0349  0.6973  0.0471
 4027TIP3    H236277   3.637   5.774  19.180 -0.5114  0.9387 -0.8538
 4028TIP3   OH236278   5.850   0.755  17.195 -0.1139  0.0377 -0.3441
 4028TIP3    H136279   5.761   0.722  17.203 -0.4410  1.2388  1.5374
 4028TIP3    H236280   5.900   0.682  17.159 -1.6341 -1.0088 -0.3888
 4029TIP3   OH236281   3.923   3.260  18.180  0.1247  0.0342 -0.1132
 4029TIP3    H136282   3.948   3.272  18.272 -1.2585 -0.6321  0.3779
 4029TIP3    H236283   3.855   3.325  18.165  1.5636  1.3662 -1.2334
 4030TIP3   OH236284   4.156   0.906  18.317 -0.0449  0.5463 -0.5161
 4030TIP3    H136285   4.180   0.867  18.232  0.8969  1.4959 -0.7057
 4030TIP3    H236286   4.119   0.991  18.295  1.4409  1.3825  0.0634
 4031TIP3   OH236287   2.193   3.131  19.360 -0.0432  0.1990  0.3990
 4031TIP3    H136288   2.102   3.120  19.333 -0.0302  0.4980  0.2265
 4031TIP3    H236289   2.244   3.096  19.287 -0.0210 -0.1899  0.5999
 4032TIP3   OH236290   6.586   2.183  17.323 -0.0663 -0.0329 -0.6288
 4032TIP3    H136291   6.513   2.151  17.270 -0.1901  1.1610 -1.2211
 4032TIP3    H236292   6.545   2.238  17.389  0.2619  0.4027 -0.7808
 4033TIP3   OH236293   2.632   4.435  18.149  0.4788  0.0887  0.1872
 4033TIP3    H136294   2.597   4.376  18.083  2.7849  0.1413 -1.1806
 4033TIP3    H236295   2.558   4.492  18.172 -1.4583 -2.4312  0.6269
 4034TIP3   OH236296   3.377   3.454  18.530 -0.3787 -0.3505 -0.7894
 4034TIP3    H136297   3.296   3.427  18.572  0.4343 -0.7855  0.5458
 4034TIP3    H236298   3.368   3.549  18.519 -1.1807 -0.4363 -0.9534
 4035TIP3   OH236299   3.099   3.198  17.794  0.2639  0.1539  0.4408
 4035TIP3    H136300   3.020   3.251  17.801  1.6439  2.4971 -0.3556
 4035TIP3    H236301   3.107   3.180  17.700  1.3589  1.1834  0.3021
 4036TIP3   OH236302   2.509   4.253  17.738  0.0910 -0.1242  0.1185
 4036TIP3    H136303   2.467   4.180  17.784  1.6991  0.0428  1.9772
 4036TIP3    H236304   2.457   4.330  17.760 -0.3620 -0.3758 -0.0774
 4037TIP3   OH236305   4.126   3.006  19.161  0.2561  0.0058  0.5478
 4037TIP3    H136306   4.088   3.086  19.197 -0.0847  0.1215 -0.0486
 4037TIP3    H236307   4.184   3.036  19.091 -0.8645 -0.3214 -0.5517
 4038TIP3   OH236308   5.931   4.445  19.917 -0.5771 -0.4330 -0.0540
 4038TIP3    H136309   5.896   4.363  19.953  2.6469 -1.8925  0.0870
 4038TIP3    H236310   6.020   4.450  19.951 -0.7985  3.5076  0.3952
 4039TIP3   OH236311   5.946   3.439  19.268  0.0657  1.1721 -1.1940
 4039TIP3    H136312   6.026   3.490  19.281  0.3570  0.5124 -0.3687
 4039TIP3    H236313   5.883   3.503  19.236  0.7872  1.7964 -1.4116
 4040TIP3   OH236314   1.405   1.056  20.114 -0.2871  0.2838  0.5079
 4040TIP3    H136315   1.466   0.984  20.098 -1.3884 -0.1369 -2.4966
 4040TIP3    H236316   1.456   1.135  20.094 -0.2888  0.0177 -0.6342
 4041TIP3   OH236317   5.879   3.750  16.900 -1.0378 -0.1350  0.3737
 4041TIP3    H136318   5.816   3.821  16.886  0.7435  1.3675 -0.4601
 4041TIP3    H236319   5.834   3.672  16.869 -2.0423  1.0638 -1.3811
 4042TIP3   OH236320   5.801   0.888  19.426 -0.4421 -0.4436  0.4220
 4042TIP3    H136321   5.828   0.972  19.389 -2.0901 -0.8714 -2.0701
 4042TIP3    H236322   5.717   0.906  19.469 -1.0143 -0.8378 -0.4872
 4043TIP3   OH236323   5.375   3.090  20.345  0.0416 -0.2380 -0.2951
 4043TIP3    H136324   5.390   3.006  20.302 -0.2898  0.5223 -1.9857
 4043TIP3    H236325   5.288   3.083  20.384  0.0078 -0.6606 -0.4466
 4044TIP3   OH236326   2.345   6.670  17.692 -0.1332  0.1563 -0.0968
 4044TIP3    H136327   2.315   6.723  17.766 -0.9545  0.7063 -0.8160
 4044TIP3    H236328   2.311   6.582  17.711 -2.3020  0.7652 -0.9045
 4045TIP3   OH236329   0.893   6.450  17.504  0.4238  0.2063 -0.4239
 4045TIP3    H136330   0.868   6.371  17.456  1.8965 -1.1559  0.8916
 4045TIP3    H236331   0.812   6.480  17.545 -0.5885  0.6479 -2.5969
 4046TIP3   OH236332   5.977   1.089  18.106 -0.0889  0.2042  0.5245
 4046TIP3    H136333   6.066   1.063  18.085  0.2421 -0.7948  2.8524
 4046TIP3    H236334   5.985   1.176  18.144 -0.4737  1.2079 -1.5143
 4047TIP3   OH236335   3.619   1.876  18.192 -0.4151  0.3836 -0.2990
 4047TIP3    H136336   3.600   1.795  18.239 -2.2724  0.5381 -0.7247
 4047TIP3    H236337   3.668   1.848  18.115  2.6006  0.1130  1.5284
 4048TIP3   OH236338   2.075   0.308  19.497 -0.0987  0.6053  0.0884
 4048TIP3    H136339   1.984   0.302  19.528 -0.0600  1.3341  0.3397
 4048TIP3    H236340   2.073   0.265  19.411 -0.6797  0.5959  0.1007
 4049TIP3   OH236341   0.695   1.854  18.704  0.5620  0.0268  0.4097
 4049TIP3    H136342   0.662   1.928  18.755 -1.2412  0.2124 -0.9298
 4049TIP3    H236343   0.788   1.849  18.727  0.5166  2.0908  1.2701
 4050TIP3   OH236344   0.237   5.330  18.815 -0.0570 -0.8518  0.1177
 4050TIP3    H136345   0.292   5.253  18.827 -2.3062 -2.8842 -1.5393
 4050TIP3    H236346   0.270   5.372  18.735  0.0376 -1.1761 -0.0147
 4051TIP3   OH236347   6.501   0.011  17.776  0.1472 -0.7355 -0.9070
 4051TIP3    H136348   6.451   0.049  17.704  0.4740  1.9277  0.1328
 4051TIP3    H236349   6.591   0.042  17.761  0.1427  0.2763  0.7987
 4052TIP3   OH236350   1.442   1.669  18.179 -0.8276  0.0829 -0.3663
 4052TIP3    H136351   1.502   1.736  18.210  0.1653 -0.1133 -1.7738
 4052TIP3    H236352   1.364   1.679  18.234 -0.5710  2.1476 -0.3015
 4053TIP3   OH236353   6.075   4.323  18.454 -0.0146 -0.2625 -0.4178
 4053TIP3    H136354   6.070   4.285  18.366 -1.1732 -1.0738 -0.0281
 4053TIP3    H236355   6.092   4.249  18.512  0.5975  0.2442  0.0804
 4054TIP3   OH236356   4.181   6.417  20.123  0.1151 -0.0250  0.0658
 4054TIP3    H136357   4.262   6.431  20.173 -0.2775 -0.5159  0.8676
 4054TIP3    H236358   4.132   6.498  20.135  0.6566  0.4367 -0.7680
 4055TIP3   OH236359   4.097   4.109  18.775 -0.1630 -0.2456  0.7286
 4055TIP3    H136360   4.039   4.141  18.845 -0.5459  1.5372 -0.3366
 4055TIP3    H236361   4.044   4.044  18.728 -1.0181  0.7328  0.2943
 4056TIP3   OH236362   3.115   4.018  20.221  0.3859 -0.4929  0.5754
 4056TIP3    H136363   3.021   4.009  20.238  0.1001 -0.5840 -0.8813
 4056TIP3    H236364   3.119   4.048  20.130  1.7820 -1.0617  0.4308
 4057TIP3   OH236365   6.106   3.645  19.856  0.3485  0.0091  0.3724
 4057TIP3    H136366   6.099   3.659  19.950 -0.9184  1.8293  0.0732
 4057TIP3    H236367   6.151   3.723  19.823 -1.8268  0.8921 -0.7846
 4058TIP3   OH236368   4.443   2.636  18.683  0.5934  0.5021  0.2330
 4058TIP3    H136369   4.427   2.667  18.593  0.5481  0.7499  0.3261
 4058TIP3    H236370   4.387   2.691  18.737  1.3132  0.9726  0.5086
 4059TIP3   OH236371   6.287   5.089  18.022  0.2222 -0.1853 -0.0447
 4059TIP3    H136372   6.192   5.095  18.030  0.3664  1.8922  0.8458
 4059TIP3    H236373   6.304   4.998  17.999 -2.1900  0.0847 -3.7688
 4060TIP3   OH236374   4.896   3.774  17.265  0.5103  0.0583  0.0987
 4060TIP3    H136375   4.878   3.708  17.197  1.7424  1.6766 -1.9388
 4060TIP3    H236376   4.894   3.725  17.347  1.6004 -2.5714 -1.3119
 4061TIP3   OH236377   6.602   5.110  19.506 -0.3107  0.5886 -0.9645
 4061TIP3    H136378   6.549   5.134  19.429 -0.9790  0.0824 -0.6753
 4061TIP3    H236379   6.683   5.076  19.469 -1.0523 -0.6735 -1.5075
 4062TIP3   OH236380   6.577   5.559  16.961  0.1965  0.5332  0.7054
 4062TIP3    H136381   6.530   5.556  17.044 -2.0603 -0.4532 -0.5126
 4062TIP3    H236382   6.563   5.472  16.923  0.3972  1.2621 -1.1151
 4063TIP3   OH236383   0.253   2.468  19.486 -0.0921 -0.2651  0.2517
 4063TIP3    H136384   0.217   2.379  19.478 -1.2584  0.2692 -0.6466
 4063TIP3    H236385   0.192   2.523  19.438  1.6711  0.7577 -0.9112
 4064TIP3   OH236386   6.615   5.543  18.339 -0.7739 -0.3307 -0.4799
 4064TIP3    H136387   6.627   5.606  18.267  0.9943 -1.0742 -0.8903
 4064TIP3    H236388   6.636   5.458  18.300 -0.5424 -0.8471  0.7349
 4065TIP3   OH236389   3.264   5.309  19.048 -0.6126  0.2297  0.2586
 4065TIP3    H136390   3.269   5.322  18.953 -0.9860 -0.0695  0.1957
 4065TIP3    H236391   3.182   5.351  19.073  0.0744  1.4074  0.6439
 4066TIP3   OH236392   3.625   2.887  20.222 -0.6925 -0.4370  0.2319
 4066TIP3    H136393   3.681   2.810  20.222 -0.3758 -0.2419 -1.3989
 4066TIP3    H236394   3.669   2.950  20.279  0.6346 -0.3872 -0.8052
 4067TIP3   OH236395   3.883   4.690  20.234 -0.4592 -0.3163  0.0920
 4067TIP3    H136396   3.882   4.781  20.204 -1.2631 -0.9713 -2.0476
 4067TIP3    H236397   3.973   4.661  20.217  0.2218  0.4326  2.1235
 4068TIP3   OH236398   6.341   5.059  20.673  0.4503 -0.2070 -0.0247
 4068TIP3    H136399   6.368   4.996  20.606 -0.5646 -0.6470 -0.0411
 4068TIP3    H236400   6.255   5.029  20.700 -0.4061  1.6153 -0.5805
 4069TIP3   OH236401   5.195   1.363  19.411 -0.1120 -0.6378 -0.0860
 4069TIP3    H136402   5.187   1.270  19.390 -0.9190 -1.1337  2.1095
 4069TIP3    H236403   5.117   1.403  19.374  0.0465 -0.8798 -0.6996
 4070TIP3   OH236404   4.589   0.022  17.322  0.3518  0.4261 -1.0289
 4070TIP3    H136405   4.528  -0.051  17.316  0.4032  0.4454 -1.8581
 4070TIP3    H236406   4.615   0.024  17.414  1.1367 -1.2575 -1.1717
 4071TIP3   OH236407   4.923   4.155  17.539  0.0190  0.0976  0.7170
 4071TIP3    H136408   4.882   4.069  17.550  3.2521 -1.7827 -0.4753
 4071TIP3    H236409   4.955   4.178  17.626 -1.0540  0.2283  1.0843
 4072TIP3   OH236410   5.695   5.579  17.333  0.1241  0.1186  0.1674
 4072TIP3    H136411   5.729   5.667  17.315  0.4032  0.5268  2.3804
 4072TIP3    H236412   5.747   5.522  17.276  0.1295  1.3256 -1.1086
 4073TIP3   OH236413   4.429   1.727  18.444 -0.0793  0.6613 -0.4445
 4073TIP3    H136414   4.443   1.639  18.479 -1.0631  0.6609 -0.0168
 4073TIP3    H236415   4.478   1.728  18.362 -0.2718 -0.3797 -0.5890
 4074TIP3   OH236416   4.878   2.304  19.016 -0.6445 -0.4846  0.0999
 4074TIP3    H136417   4.810   2.303  18.948  0.2627  2.6004 -1.0638
 4074TIP3    H236418   4.830   2.293  19.098 -2.3228 -0.3317 -0.8121
 4075TIP3   OH236419   0.129   1.319  19.911 -0.2087 -0.4029  0.2122
 4075TIP3    H136420   0.071   1.259  19.957 -1.4018  0.8609  0.4313
 4075TIP3    H236421   0.091   1.327  19.823  1.3016 -1.7729 -0.6221
 4076TIP3   OH236422   1.318   4.992  20.051 -0.0396 -0.1931 -0.0922
 4076TIP3    H136423   1.231   4.985  20.091  0.0658  1.7758  0.6205
 4076TIP3    H236424   1.377   4.952  20.114 -0.3047 -0.4347  0.0027
 4077TIP3   OH236425   0.811   5.185  19.264 -0.3071  0.2806 -0.2989
 4077TIP3    H136426   0.846   5.251  19.204  0.3458  0.8689  0.7056
 4077TIP3    H236427   0.809   5.104  19.212 -0.0192  0.8314 -1.1865
 4078TIP3   OH236428   0.096   2.151  19.905 -0.1124  0.0778  0.2169
 4078TIP3    H136429   0.009   2.144  19.945  0.5066 -0.3609  1.5535
 4078TIP3    H236430   0.081   2.136  19.812 -1.4430 -0.1759  0.4496
 4079TIP3   OH236431   0.027   0.980  19.169 -0.1621 -0.4702 -0.4498
 4079TIP3    H136432   0.056   0.937  19.089 -0.7140  0.2900 -1.0678
 4079TIP3    H236433  -0.066   0.959  19.176  0.0601 -1.2203  0.4447
 4080TIP3   OH236434   2.310   3.634  19.409 -0.3637 -0.5423  0.7017
 4080TIP3    H136435   2.301   3.539  19.408  0.8034 -0.6948  1.9596
 4080TIP3    H236436   2.379   3.651  19.474  0.0346  1.1051 -0.0971
 4081TIP3   OH236437   2.768   2.137  17.482  0.4204  0.3856 -0.1583
 4081TIP3    H136438   2.843   2.176  17.437  0.4674  0.4760 -0.0009
 4081TIP3    H236439   2.754   2.192  17.559  0.5123  0.0698  0.0850
 4082TIP3   OH236440   5.721   2.177  18.052 -0.0015  0.0470 -0.4627
 4082TIP3    H136441   5.689   2.262  18.023 -0.6705  0.6250  1.8016
 4082TIP3    H236442   5.644   2.120  18.050 -0.5889  0.6398  2.0209
 4083TIP3   OH236443   2.924   1.010  17.315 -0.0373 -0.4986 -0.1059
 4083TIP3    H136444   3.019   0.994  17.315  0.6112  2.7470 -0.7414
 4083TIP3    H236445   2.898   0.999  17.224 -0.5390 -2.3764  0.2221
 4084TIP3   OH236446   2.021   1.693  18.412  0.0646  0.5405 -0.3991
 4084TIP3    H136447   2.008   1.785  18.387 -0.3176  0.4732 -0.4580
 4084TIP3    H236448   1.940   1.650  18.383 -1.2331  0.7735  2.5577
 4085TIP3   OH236449   4.018   0.686  18.504 -0.0252 -0.6257 -0.2881
 4085TIP3    H136450   4.029   0.761  18.446 -1.5438 -0.4867 -0.4443
 4085TIP3    H236451   3.971   0.621  18.452 -0.8821 -0.7277  0.5776
 4086TIP3   OH236452   2.969   1.366  19.667 -0.1863  0.0831 -0.2532
 4086TIP3    H136453   2.913   1.443  19.653  0.0991  0.3222 -0.0922
 4086TIP3    H236454   3.054   1.391  19.629  0.1588  0.1788  0.5569
 4087TIP3   OH236455   6.617   4.682  17.515 -0.8166  0.2695 -0.3472
 4087TIP3    H136456   6.546   4.680  17.451 -1.1847  0.5602  0.0479
 4087TIP3    H236457   6.610   4.769  17.556  0.1733  0.5603 -0.7640
 4088TIP3   OH236458   2.425   3.998  17.819  0.1344 -0.1678 -0.0470
 4088TIP3    H136459   2.511   3.965  17.794 -0.2883 -0.4799 -1.1518
 4088TIP3    H236460   2.383   3.925  17.864 -0.2111 -0.6279 -1.0945
 4089TIP3   OH236461   1.046   2.806  19.190  0.0755 -0.9362  0.2576
 4089TIP3    H136462   1.109   2.808  19.118 -1.0355 -1.9946 -0.7928
 4089TIP3    H236463   1.049   2.716  19.223  1.1409 -0.2796  2.1105
 4090TIP3   OH236464   3.180   5.422  17.858 -0.0293 -0.3535 -0.0079
 4090TIP3    H136465   3.150   5.411  17.949 -0.9895 -1.5608 -0.4301
 4090TIP3    H236466   3.266   5.380  17.856  1.5080  2.4978  1.0506
 4091TIP3   OH236467   4.052   2.674  20.029 -0.3607 -0.1692 -0.2403
 4091TIP3    H136468   4.071   2.758  20.071 -0.4710  0.0379 -0.6014
 4091TIP3    H236469   4.109   2.612  20.073  1.1329  0.4187 -1.2376
 4092TIP3   OH236470   3.621   2.932  18.335  0.3193  0.0032  0.2694
 4092TIP3    H136471   3.614   2.854  18.279 -0.3596  0.6682 -0.5959
 4092TIP3    H236472   3.620   3.005  18.274  0.5021  0.7142  1.1076
 4093TIP3   OH236473   1.198   5.173  18.212  0.0923 -0.0188 -0.0014
 4093TIP3    H136474   1.223   5.265  18.206 -0.5296  0.3164  1.8870
 4093TIP3    H236475   1.278   5.125  18.189 -0.3264  0.8580 -4.0198
 4094TIP3   OH236476   5.573   6.511  20.453  0.1191  0.1004  0.3266
 4094TIP3    H136477   5.562   6.605  20.460  1.8058  0.3936 -0.4503
 4094TIP3    H236478   5.667   6.497  20.460 -0.1692 -1.6228  1.3361
 4095TIP3   OH236479   5.426   3.734  17.498  0.3752  0.1465  0.4543
 4095TIP3    H136480   5.426   3.645  17.463 -1.1565  0.1801  0.2995
 4095TIP3    H236481   5.498   3.735  17.561  1.7978 -0.5633 -1.0734
 4096TIP3   OH236482   1.610   1.598  17.948 -0.4529  0.0484 -0.0372
 4096TIP3    H136483   1.566   1.534  18.005  0.0200 -0.0870  0.1818
 4096TIP3    H236484   1.573   1.682  17.973 -2.7458 -0.3257 -1.8518
 4097TIP3   OH236485   3.986   5.778  19.736  0.4169  0.6838 -0.3548
 4097TIP3    H136486   4.077   5.809  19.739  0.3975  0.7029  0.2764
 4097TIP3    H236487   3.991   5.687  19.764  0.1033  1.0460  0.9654
 4098TIP3   OH236488   3.673   0.277  20.008  0.2278  0.2761  0.3087
 4098TIP3    H136489   3.604   0.272  19.942  0.4613 -0.2682  0.0924
 4098TIP3    H236490   3.636   0.232  20.085  0.4979 -0.4173  0.0427
 4099TIP3   OH236491   4.639   4.605  18.996  0.0617  0.1784  0.0490
 4099TIP3    H136492   4.706   4.671  18.978  0.6775 -0.1582  1.0442
 4099TIP3    H236493   4.566   4.654  19.034 -0.7515  0.7143 -2.0623
 4100TIP3   OH236494   0.524   2.777  18.626 -0.4580 -0.4576  0.4501
 4100TIP3    H136495   0.433   2.804  18.632 -0.4971 -0.4571 -0.1033
 4100TIP3    H236496   0.574   2.858  18.635 -0.5594 -0.2552 -0.6759
 4101TIP3   OH236497   3.400   4.738  20.209 -0.1930 -0.0136  0.1166
 4101TIP3    H136498   3.433   4.801  20.145  1.1120 -1.0093 -0.2117
 4101TIP3    H236499   3.473   4.723  20.269  0.1164 -2.4220 -0.7550
 4102TIP3   OH236500   3.542   0.721  18.648 -0.7125  0.0315 -0.2115
 4102TIP3    H136501   3.475   0.767  18.698 -1.4760 -0.4122 -0.8057
 4102TIP3    H236502   3.602   0.790  18.620 -0.8544  0.4211  0.4186
 4103TIP3   OH236503   2.319   0.535  17.859  0.4637 -0.1359 -0.0264
 4103TIP3    H136504   2.296   0.443  17.845  1.7151 -0.4487 -0.1145
 4103TIP3    H236505   2.413   0.534  17.877  0.6176  1.1892 -0.6347
 4104TIP3   OH236506   4.154   0.423  19.907 -0.0058  0.7169  0.3201
 4104TIP3    H136507   4.223   0.357  19.905  0.7840  1.5439 -0.3706
 4104TIP3    H236508   4.077   0.375  19.939  0.5628 -0.5233 -0.0812
 4105TIP3   OH236509   3.524   2.278  18.891 -0.7120  0.1895 -0.1639
 4105TIP3    H136510   3.586   2.296  18.821 -2.6169 -1.1337 -2.3370
 4105TIP3    H236511   3.540   2.187  18.915  0.1157  0.7113  1.3974
 4106TIP3   OH236512   3.187   0.150  17.431 -0.1865 -0.7856  0.5896
 4106TIP3    H136513   3.163   0.217  17.367 -0.4006 -1.0459  0.3914
 4106TIP3    H236514   3.103   0.119  17.465 -0.1947 -2.2481 -0.6594
 4107TIP3   OH236515   1.960   6.622  17.719  0.4435  0.7668 -0.5376
 4107TIP3    H136516   1.971   6.699  17.663  1.5911  1.4271  0.5260
 4107TIP3    H236517   2.035   6.566  17.697  0.4787  0.6864 -0.2135
 4108TIP3   OH236518   5.218   4.178  18.856 -0.1002  0.3472 -0.0105
 4108TIP3    H136519   5.221   4.156  18.764  1.1974  0.5216 -0.0346
 4108TIP3    H236520   5.129   4.156  18.884 -0.7443  0.9788 -1.4594
 4109TIP3   OH236521   5.961   5.507  19.729  0.0409 -0.2698  0.3024
 4109TIP3    H136522   6.049   5.533  19.700 -0.3864  0.8667 -0.0346
 4109TIP3    H236523   5.928   5.452  19.659 -1.5368  3.5739 -2.3371
 4110TIP3   OH236524   2.201   4.644  19.711  0.2320 -0.1975  0.3277
 4110TIP3    H136525   2.203   4.626  19.617 -0.1178  2.2133 -0.1881
 4110TIP3    H236526   2.240   4.731  19.721 -2.4649  0.9658  2.0391
 4111TIP3   OH236527   5.032   2.778  19.474 -0.5753 -0.5659  0.4905
 4111TIP3    H136528   5.119   2.804  19.446 -0.4498 -0.0681  1.3212
 4111TIP3    H236529   5.039   2.683  19.490 -0.2541 -0.5700  0.3213
 4112TIP3   OH236530   2.285   1.948  17.310  0.1618  0.3487 -0.1732
 4112TIP3    H136531   2.195   1.928  17.332  0.4014  0.2886  0.7848
 4112TIP3    H236532   2.294   1.921  17.219 -0.8909  0.7217 -0.4066
 4113TIP3   OH236533   3.774   5.903  17.557  0.0193 -0.1081  0.0891
 4113TIP3    H136534   3.852   5.860  17.523 -0.8365 -1.4822 -0.2418
 4113TIP3    H236535   3.749   5.852  17.633  0.4831  1.4574  1.3494
 4114TIP3   OH236536   0.550   6.468  17.983 -0.0520  0.0467  0.0487
 4114TIP3    H136537   0.553   6.491  18.076 -1.0546  1.5432 -0.2582
 4114TIP3    H236538   0.470   6.509  17.951  1.2525  1.2462 -1.9009
 4115TIP3   OH236539   1.787   2.188  18.868  0.0102  0.4892  0.5791
 4115TIP3    H136540   1.727   2.116  18.845  0.5160  0.3363 -0.3203
 4115TIP3    H236541   1.855   2.184  18.800  1.0775  0.6182  1.6132
 4116TIP3   OH236542   6.399   5.842  17.186  0.0135 -0.1874 -0.4426
 4116TIP3    H136543   6.452   5.905  17.235 -2.1749  0.7578  0.8197
 4116TIP3    H236544   6.438   5.842  17.099  2.6338 -0.2393  0.6224
 4117TIP3   OH236545   3.177   4.086  18.711 -0.2493 -0.2906  0.2075
 4117TIP3    H136546   3.162   4.134  18.792  2.3595  0.1519  0.4945
 4117TIP3    H236547   3.269   4.102  18.690  0.1033 -3.2911 -0.9421
 4118TIP3   OH236548   0.739   2.962  20.249  0.0506  0.1361  0.6446
 4118TIP3    H136549   0.692   3.045  20.262 -1.6455 -0.4557 -1.2132
 4118TIP3    H236550   0.669   2.896  20.242  1.3473 -1.5936  2.5028
 4119TIP3   OH236551   4.103   1.359  20.573 -0.7590  0.5201 -0.2759
 4119TIP3    H136552   4.167   1.308  20.525 -0.1455  0.1944  0.8625
 4119TIP3    H236553   4.039   1.295  20.605 -0.4336  0.5453  0.4571
 4120TIP3   OH236554   0.636   2.535  17.802  0.9244 -0.4195  0.2034
 4120TIP3    H136555   0.548   2.556  17.834  1.2797  1.4518  0.0705
 4120TIP3    H236556   0.622   2.469  17.735 -0.4266  0.1519 -0.1155
 4121TIP3   OH236557   2.789   5.479  19.182  0.4615 -0.2372  0.1404
 4121TIP3    H136558   2.816   5.558  19.229 -0.1430 -0.8024  1.4799
 4121TIP3    H236559   2.705   5.503  19.142 -0.1390 -0.4216  1.2356
 4122TIP3   OH236560   1.255   0.642  19.713  0.0985 -0.1767 -0.2986
 4122TIP3    H136561   1.283   0.649  19.805 -1.5357  0.1756  0.1977
 4122TIP3    H236562   1.324   0.591  19.671  1.3073  0.3702  0.9310
 4123TIP3   OH236563   6.012   5.593  17.346  0.2569  0.0607 -0.1430
 4123TIP3    H136564   6.049   5.625  17.263  0.0684 -1.7163 -0.9652
 4123TIP3    H236565   6.029   5.663  17.408  0.6390  1.3506 -1.6205
 4124TIP3   OH236566   5.384   0.794  18.795 -0.0327 -0.3036  0.6412
 4124TIP3    H136567   5.336   0.825  18.871 -1.0842 -0.3650  0.0226
 4124TIP3    H236568   5.351   0.846  18.722  0.8740 -0.3234  0.2022
 4125TIP3   OH236569   3.075   6.710  20.359 -0.4040  0.8897 -0.0942
 4125TIP3    H136570   3.000   6.737  20.306 -0.1458  1.2300 -0.2931
 4125TIP3    H236571   3.151   6.727  20.303 -0.0982  1.5767  0.5019
 4126TIP3   OH236572   0.951   1.651  20.273  0.1151  0.7482 -0.1524
 4126TIP3    H136573   0.907   1.729  20.308 -0.4700 -0.6549  2.5407
 4126TIP3    H236574   0.897   1.624  20.199 -2.1368  0.5938  1.4386
 4127TIP3   OH236575   1.432   3.699  17.052  0.1022  0.0475  0.3569
 4127TIP3    H136576   1.491   3.700  17.127  0.8906 -1.7117 -0.1734
 4127TIP3    H236577   1.454   3.618  17.006 -3.0245 -0.8878  0.3366
 4128TIP3   OH236578   5.093   3.167  19.408 -0.0894 -0.4296 -0.0813
 4128TIP3    H136579   5.081   3.227  19.482  0.4582  0.6333 -0.8251
 4128TIP3    H236580   5.053   3.085  19.436 -1.3229  0.4423  0.7765
 4129TIP3   OH236581   5.415   1.423  20.114  0.0288 -0.7802  0.3678
 4129TIP3    H136582   5.398   1.329  20.112 -0.2313 -0.7237 -0.3038
 4129TIP3    H236583   5.510   1.431  20.106  0.1053 -0.9947  0.9737
 4130TIP3   OH236584   2.453   5.512  19.813  0.1206  0.3288  0.1010
 4130TIP3    H136585   2.445   5.559  19.896 -1.6780  0.3372 -0.0456
 4130TIP3    H236586   2.385   5.445  19.817  2.3933 -2.1646  0.1955
 4131TIP3   OH236587   2.137   4.595  20.082 -0.0211  0.0446 -0.6978
 4131TIP3    H136588   2.214   4.575  20.135 -0.0330 -0.1764 -0.7610
 4131TIP3    H236589   2.145   4.538  20.005 -1.8419 -2.3462  0.7393
 4132TIP3   OH236590   3.102   5.150  18.570 -0.2464 -0.1360  0.0841
 4132TIP3    H136591   3.178   5.099  18.542  0.1344  0.3343  0.2467
 4132TIP3    H236592   3.076   5.200  18.493  0.1556  0.3678  0.2717
 4133TIP3   OH236593   4.769   1.882  17.863 -0.8793  0.0046 -0.0484
 4133TIP3    H136594   4.830   1.809  17.859 -0.8870  0.0499 -1.9932
 4133TIP3    H236595   4.825   1.960  17.862 -0.9141  0.0468  0.6800
 4134TIP3   OH236596   0.701   5.573  18.418 -1.0405 -0.1557  0.0048
 4134TIP3    H136597   0.776   5.526  18.382 -0.3495 -1.7256  3.1285
 4134TIP3    H236598   0.727   5.665  18.414  0.8204 -0.6111  0.4645
 4135TIP3   OH236599   2.803   1.131  18.625  0.6815  0.3403 -0.5632
 4135TIP3    H136600   2.847   1.085  18.553  0.6921 -0.1560 -0.2399
 4135TIP3    H236601   2.820   1.077  18.702 -1.0583 -0.2383 -0.5384
 4136TIP3   OH236602   1.284   0.193  20.241 -0.4599  0.0487 -0.4631
 4136TIP3    H136603   1.348   0.147  20.186  0.9713  1.3854  0.0034
 4136TIP3    H236604   1.327   0.202  20.326 -1.5976  0.3093  0.1140
 4137TIP3   OH236605   6.553   3.216  17.401 -0.3487  0.2214 -0.5468
 4137TIP3    H136606   6.480   3.161  17.372  0.6232 -1.6147  0.2622
 4137TIP3    H236607   6.630   3.176  17.360  0.4890  0.4699  0.7176
 4138TIP3   OH236608   5.931   3.721  18.743 -0.1834 -0.1049 -0.1657
 4138TIP3    H136609   5.902   3.642  18.788 -0.0540 -0.9963 -1.5794
 4138TIP3    H236610   5.916   3.792  18.806  0.8181 -1.3879  1.5821
 4139TIP3   OH236611   2.098   3.561  17.820 -0.5440 -0.8949 -0.1981
 4139TIP3    H136612   2.104   3.603  17.906 -1.5593  1.1536 -1.0515
 4139TIP3    H236613   2.039   3.618  17.770 -0.6595 -2.5023 -1.9830
 4140TIP3   OH236614   0.766   4.163  18.837  0.2491 -0.0642  0.0318
 4140TIP3    H136615   0.733   4.188  18.751  1.6898 -0.3028 -0.6288
 4140TIP3    H236616   0.831   4.230  18.859 -0.6303  0.4245  1.3105
 4141TIP3   OH236617   4.205   4.593  20.522 -0.6754  0.3656  0.0853
 4141TIP3    H136618   4.156   4.675  20.532 -1.7480 -0.2264 -0.0653
 4141TIP3    H236619   4.152   4.542  20.460  0.8850  0.2368 -1.1886
 4142TIP3   OH236620   6.655   1.478  19.556  0.3852 -0.4165  0.2577
 4142TIP3    H136621   6.679   1.570  19.565  0.7259 -0.3459 -1.1557
 4142TIP3    H236622   6.724   1.430  19.602  0.3357  0.0102  0.7896
 4143TIP3   OH236623   1.830   6.601  18.734 -0.8075  0.2262  0.5195
 4143TIP3    H136624   1.766   6.541  18.696 -1.6550  1.6509 -0.3685
 4143TIP3    H236625   1.913   6.554  18.726 -1.1166 -0.0295 -2.0832
 4144TIP3   OH236626   3.882   2.897  18.318  1.0476  0.3385 -0.3630
 4144TIP3    H136627   3.794   2.932  18.336  0.5615 -0.2618 -1.4665
 4144TIP3    H236628   3.870   2.802  18.318  1.7904  0.2410 -0.1120
 4145TIP3   OH236629   0.731   6.320  20.354 -0.1934  0.2651 -0.2049
 4145TIP3    H136630   0.740   6.290  20.264 -0.3620 -2.9105  0.7165
 4145TIP3    H236631   0.639   6.343  20.363 -0.5763 -1.0604 -0.4536
 4146TIP3   OH236632   2.269   5.958  19.761 -0.4211 -0.1021 -0.5084
 4146TIP3    H136633   2.317   5.975  19.842  1.4149  0.3662 -1.6299
 4146TIP3    H236634   2.190   6.012  19.767 -0.3765 -0.1783  1.0008
 4147TIP3   OH236635   4.112   2.174  20.038 -1.1145  0.2785 -0.3643
 4147TIP3    H136636   4.190   2.205  20.085  0.8524 -2.1491 -1.8055
 4147TIP3    H236637   4.127   2.200  19.947 -1.5813 -0.9559 -0.8034
 4148TIP3   OH236638   1.553   2.692  18.458 -0.0068 -0.2076  0.2455
 4148TIP3    H136639   1.506   2.615  18.490  0.2750 -0.4407  0.1119
 4148TIP3    H236640   1.603   2.659  18.383 -1.6660  0.6055 -1.2808
 4149TIP3   OH236641   4.282   3.181  18.383  0.9007 -0.7166 -0.0994
 4149TIP3    H136642   4.231   3.100  18.387 -0.5855  0.2519  2.0198
 4149TIP3    H236643   4.276   3.218  18.471  1.1165  1.9421 -1.1106
 4150TIP3   OH236644   2.340   3.508  17.473 -0.1631  0.2171 -0.0294
 4150TIP3    H136645   2.312   3.556  17.551 -1.1869 -0.8954  0.3210
 4150TIP3    H236646   2.431   3.486  17.489 -0.6129 -0.7956  1.2951
 4151TIP3   OH236647   4.827   1.865  20.408 -0.5462 -0.3821 -0.3796
 4151TIP3    H136648   4.736   1.853  20.379 -0.0505  0.6313 -2.5867
 4151TIP3    H236649   4.842   1.796  20.472 -3.0736 -0.1484  0.5676
 4152TIP3   OH236650   1.979   2.655  19.071  0.4923 -0.1592 -0.6133
 4152TIP3    H136651   2.016   2.570  19.049  0.1136 -0.2759 -0.8059
 4152TIP3    H236652   1.920   2.638  19.144 -0.0187 -0.1607 -1.0222
 4153TIP3   OH236653   3.018   5.756  18.365 -0.2978  0.0874 -0.0564
 4153TIP3    H136654   3.056   5.760  18.453 -1.0721 -0.0089  0.2921
 4153TIP3    H236655   3.090   5.728  18.309 -0.3835 -2.2646  0.9104
 4154TIP3   OH236656   0.940   3.473  19.848 -0.0122  0.2837 -0.0157
 4154TIP3    H136657   0.943   3.404  19.781  1.7658 -0.6785  0.9786
 4154TIP3    H236658   0.960   3.554  19.801  2.5661 -0.5610 -0.4953
 4155TIP3   OH236659   2.778   1.756  18.928 -0.1403  0.0526 -0.4519
 4155TIP3    H136660   2.719   1.783  18.997 -1.8176 -0.8375 -1.4601
 4155TIP3    H236661   2.821   1.677  18.962  1.0258  1.0864  0.5471
 4156TIP3   OH236662   0.159   2.252  17.224  0.2453  0.5320 -0.0957
 4156TIP3    H136663   0.117   2.268  17.140  1.9256  1.0552 -0.8869
 4156TIP3    H236664   0.226   2.187  17.206  1.4266  1.5169  0.5502
 4157TIP3   OH236665   6.380   5.028  18.980  0.3158 -0.0832 -0.1508
 4157TIP3    H136666   6.318   4.963  18.950  1.5949 -0.9612 -0.9735
 4157TIP3    H236667   6.449   5.028  18.914  0.6951  1.6039  0.2035
 4158TIP3   OH236668   3.743   6.477  17.572  0.2508 -0.2123  0.2333
 4158TIP3    H136669   3.678   6.448  17.636 -0.5337  0.2008 -0.3564
 4158TIP3    H236670   3.826   6.477  17.620 -0.2008 -0.6450  1.0307
 4159TIP3   OH236671   5.714   3.999  18.984  0.5193  0.4259  0.1230
 4159TIP3    H136672   5.756   3.995  19.070  0.4374 -2.9814  0.1198
 4159TIP3    H236673   5.682   3.910  18.968  0.6238  0.8854 -3.5038
 4160TIP3   OH236674   4.848   3.167  20.026  0.0148  0.3709 -0.2829
 4160TIP3    H136675   4.891   3.175  20.111  1.4943  1.5202 -1.0768
 4160TIP3    H236676   4.757   3.192  20.042  1.0827  4.6338  0.3423
 4161TIP3   OH236677   6.300   6.196  17.117  0.2475  0.6374 -0.3661
 4161TIP3    H136678   6.324   6.146  17.039  0.6389  2.1040 -1.2142
 4161TIP3    H236679   6.384   6.215  17.160  0.0352 -0.1524  0.4247
 4162TIP3   OH236680   0.563   3.516  19.280  0.1191  0.3367  0.1820
 4162TIP3    H136681   0.639   3.458  19.274  1.3022  1.8292  0.0424
 4162TIP3    H236682   0.507   3.489  19.207  0.5605 -0.7007  0.2004
 4163TIP3   OH236683   4.789   3.049  19.189  0.6579 -0.6957 -0.3284
 4163TIP3    H136684   4.883   3.043  19.205  0.5939 -0.2641  0.2168
 4163TIP3    H236685   4.749   3.014  19.269  0.3571 -1.4668 -0.8055
 4164TIP3   OH236686   3.764   2.590  18.719  0.2169 -0.4183  0.4572
 4164TIP3    H136687   3.683   2.604  18.769  0.2083 -2.0946  0.9867
 4164TIP3    H236688   3.749   2.632  18.635 -0.5754  0.6953  1.1394
 4165TIP3   OH236689   3.317   2.529  19.993 -0.4672  0.9166 -0.4863
 4165TIP3    H136690   3.318   2.625  19.991 -0.6005  0.9109 -0.9808
 4165TIP3    H236691   3.410   2.504  19.991 -0.4485  1.0260 -1.4882
 4166TIP3   OH236692   2.592   6.087  18.432 -0.2306 -0.2794 -0.5656
 4166TIP3    H136693   2.681   6.121  18.421 -1.0197  1.5808 -1.5759
 4166TIP3    H236694   2.571   6.107  18.523  0.4166 -0.8703 -0.2746
 4167TIP3   OH236695   2.786   5.441  18.882 -0.2209  0.1688  0.3296
 4167TIP3    H136696   2.777   5.381  18.956 -2.2098 -0.6477 -0.4906
 4167TIP3    H236697   2.828   5.389  18.813 -0.8342  0.0755  0.0185
 4168TIP3   OH236698   3.315   4.986  17.835  0.1004 -0.0511  0.0487
 4168TIP3    H136699   3.269   5.010  17.916 -0.2496  0.9783 -0.4491
 4168TIP3    H236700   3.320   4.890  17.839 -1.1730 -0.1212  0.6232
 4169TIP3   OH236701   2.022   4.250  18.909  0.6413 -0.1557 -0.2777
 4169TIP3    H136702   1.994   4.177  18.964 -1.9048  0.7165 -0.3053
 4169TIP3    H236703   1.999   4.329  18.959  1.4864  0.6527 -1.1113
 4170TIP3   OH236704   1.336   1.896  17.635  0.3976  0.4795 -0.2365
 4170TIP3    H136705   1.402   1.898  17.704  0.4319  1.0403 -0.2797
 4170TIP3    H236706   1.262   1.945  17.671  0.4065  0.7565 -0.5815
 4171TIP3   OH236707   4.126   3.939  18.185  0.8276 -0.6283  0.3897
 4171TIP3    H136708   4.061   4.007  18.198 -0.5314 -1.7957 -0.0735
 4171TIP3    H236709   4.168   3.960  18.101  0.2800 -0.4635  0.1573
 4172TIP3   OH236710   0.077   4.664  18.089 -0.5368 -0.3274  0.8535
 4172TIP3    H136711   0.099   4.704  18.173  1.3103 -1.5448  1.0299
 4172TIP3    H236712   0.151   4.605  18.072 -0.1087  0.9564 -2.3320
 4173TIP3   OH236713   3.548   2.547  18.945  0.0704 -0.4197  0.2775
 4173TIP3    H136714   3.487   2.603  18.896  0.0655 -1.1402 -0.5695
 4173TIP3    H236715   3.523   2.458  18.921  1.6784 -0.7354 -0.3905
 4174TIP3   OH236716   3.356   6.528  20.373  0.0769 -0.7249 -0.1656
 4174TIP3    H136717   3.391   6.441  20.353  2.4330 -0.2135  1.2504
 4174TIP3    H236718   3.273   6.511  20.418  0.6612 -2.2952  0.3995
 4175TIP3   OH236719   3.187   2.808  18.549  0.3099  0.2188  0.2881
 4175TIP3    H136720   3.167   2.748  18.621 -0.1720 -0.6857 -0.5659
 4175TIP3    H236721   3.271   2.846  18.572  0.2806 -0.2409  1.2074
 4176TIP3   OH236722   3.336   1.083  19.903  0.2401 -0.4739 -0.2378
 4176TIP3    H136723   3.306   1.049  19.988 -1.0430  0.5836 -0.2485
 4176TIP3    H236724   3.358   1.175  19.920 -1.9853  0.3528 -1.4476
 4177TIP3   OH236725   2.769   6.605  20.018  0.5011  0.2326 -0.1907
 4177TIP3    H136726   2.820   6.678  20.053  0.4044  0.1069  0.2219
 4177TIP3    H236727   2.810   6.584  19.934  2.0396 -0.8082  0.7749
 4178TIP3   OH236728   1.031   5.996  19.023 -0.0811  0.7920 -0.0245
 4178TIP3    H136729   0.965   5.994  19.092  0.6567 -0.4814  0.6950
 4178TIP3    H236730   0.981   5.992  18.941 -0.9364 -2.1159  0.5023
 4179TIP3   OH236731   3.253   1.626  19.461  0.1044  0.6957  0.2236
 4179TIP3    H136732   3.317   1.674  19.408  1.1424  1.2285  1.8793
 4179TIP3    H236733   3.292   1.625  19.548 -0.6860 -1.7492  0.5942
 4180TIP3   OH236734   2.535   2.362  19.640  0.1681 -0.0379 -0.3233
 4180TIP3    H136735   2.612   2.305  19.635  0.2078  0.0791 -1.2722
 4180TIP3    H236736   2.472   2.313  19.693  0.8408 -0.1922  0.3472
 4181TIP3   OH236737   0.652   1.321  18.217 -0.1082  0.4765  0.2425
 4181TIP3    H136738   0.628   1.311  18.125 -0.2626  0.4456  0.2846
 4181TIP3    H236739   0.671   1.414  18.227 -0.1630  0.4932  0.1954
 4182TIP3   OH236740   3.640   6.290  17.736 -0.3634  0.1191 -0.6143
 4182TIP3    H136741   3.575   6.226  17.708 -2.7690  2.2467 -0.2663
 4182TIP3    H236742   3.617   6.311  17.826  0.5439  1.2148 -0.6085
 4183TIP3   OH236743   2.783   5.948  16.944  0.1090  0.3547 -0.6613
 4183TIP3    H136744   2.847   5.996  16.892  1.1687 -0.4745 -0.1527
 4183TIP3    H236745   2.720   6.015  16.973  0.5545  1.1204 -1.4389
 4184TIP3   OH236746   2.647   1.084  18.402 -0.3490 -0.3388 -0.3818
 4184TIP3    H136747   2.675   1.135  18.478  0.8926  0.6823 -1.4786
 4184TIP3    H236748   2.607   1.006  18.439 -0.4284  0.4675  1.3281
 4185TIP3   OH236749   0.814   4.567  16.869  0.0072  0.2749  0.3732
 4185TIP3    H136750   0.837   4.492  16.923 -0.1155  1.1285  1.6693
 4185TIP3    H236751   0.830   4.539  16.779  1.9466 -0.6242  0.9549
 4186TIP3   OH236752   2.000   6.611  18.192 -0.4046 -0.6087  0.5003
 4186TIP3    H136753   2.038   6.656  18.117 -0.2951 -2.5249 -0.6794
 4186TIP3    H236754   1.972   6.681  18.251  0.7645  0.9328 -0.6834
 4187TIP3   OH236755   0.022   1.760  19.478 -0.6944  0.0485 -0.6228
 4187TIP3    H136756  -0.053   1.791  19.426 -1.2318 -0.7569 -0.3547
 4187TIP3    H236757   0.092   1.747  19.414 -0.7369  0.9444 -0.8603
 4188TIP3   OH236758   5.412   4.184  19.074 -0.0381  0.0283  0.3396
 4188TIP3    H136759   5.331   4.194  19.024  0.5811 -3.0078 -1.5706
 4188TIP3    H236760   5.452   4.271  19.075 -3.0384  1.5094  0.9717
 4189TIP3   OH236761   5.978   0.160  19.309  0.2973 -0.0211  0.2575
 4189TIP3    H136762   6.026   0.087  19.349  1.1394  0.7016  0.6006
 4189TIP3    H236763   6.046   0.221  19.280 -0.3528  0.2286 -0.8363
 4190TIP3   OH236764   4.409   3.568  19.368  0.2246  0.4563  0.0028
 4190TIP3    H136765   4.416   3.474  19.357  0.7768  0.6311 -1.4045
 4190TIP3    H236766   4.498   3.597  19.386  0.2920  0.8198 -0.8296
 4191TIP3   OH236767   2.010   4.426  17.027 -0.3530 -0.2057  0.4601
 4191TIP3    H136768   1.960   4.467  16.957 -0.0415 -1.0050 -0.2380
 4191TIP3    H236769   2.101   4.432  16.999 -0.3500 -1.9647  0.0191
 4192TIP3   OH236770   1.500   1.177  19.509  0.1559  0.7019  0.2419
 4192TIP3    H136771   1.574   1.121  19.533 -0.6375 -0.9502 -0.9925
 4192TIP3    H236772   1.490   1.166  19.415 -2.4755 -0.2163  0.5382
 4193TIP3   OH236773   4.344   3.204  19.649 -0.1548 -0.3173  0.1370
 4193TIP3    H136774   4.380   3.293  19.644  0.9583 -0.7293  0.5020
 4193TIP3    H236775   4.329   3.190  19.743 -1.8994  0.0641 -0.0475
 4194TIP3   OH236776   3.420   0.089  18.009  1.1577  0.3517  0.1988
 4194TIP3    H136777   3.497   0.133  17.973  0.6919 -0.1859 -1.5792
 4194TIP3    H236778   3.392   0.030  17.939 -1.0259  0.7079  0.7005
 4195TIP3   OH236779   5.987   0.241  18.549  0.6691 -0.8276  0.0195
 4195TIP3    H136780   5.905   0.249  18.500  0.2682  2.4148  1.0126
 4195TIP3    H236781   5.960   0.207  18.634  0.6349 -1.4716 -0.2413
 4196TIP3   OH236782   1.899   6.371  19.746 -0.2048 -0.1457  0.5368
 4196TIP3    H136783   1.918   6.368  19.652 -0.2696 -0.6501  0.5368
 4196TIP3    H236784   1.953   6.444  19.779  0.6506 -0.6471  0.2913
 4197TIP3   OH236785   5.383   2.625  17.884 -0.3549  0.1964  0.5032
 4197TIP3    H136786   5.401   2.642  17.792 -0.4679 -1.1974  0.1947
 4197TIP3    H236787   5.419   2.700  17.930 -1.1566  1.4004 -0.7326
 4198TIP3   OH236788   4.125   4.110  17.921 -0.4436 -0.0752 -0.3662
 4198TIP3    H136789   4.036   4.081  17.938 -0.4421  0.0807 -0.0921
 4198TIP3    H236790   4.134   4.105  17.826 -1.3928  1.8309 -0.5928
 4199TIP3   OH236791   2.806   6.334  18.956  0.1904 -0.3958  0.3580
 4199TIP3    H136792   2.880   6.395  18.957 -0.3217  0.2352  1.2344
 4199TIP3    H236793   2.843   6.250  18.983  0.7640 -0.3168 -0.1678
 4200TIP3   OH236794   4.333   2.280  17.749 -0.2794 -0.1048 -0.1988
 4200TIP3    H136795   4.252   2.256  17.704 -0.5401  1.5936 -0.7043
 4200TIP3    H236796   4.362   2.360  17.704  0.6611  0.3774  1.2199
 4201TIP3   OH236797   2.609   0.506  19.957 -0.0062  0.5185  0.0866
 4201TIP3    H136798   2.536   0.496  19.896  0.0594  0.5140  0.0073
 4201TIP3    H236799   2.660   0.579  19.921  0.3705  0.1214 -0.2120
 4202TIP3   OH236800   0.287   2.910  18.877 -0.2854  0.2978 -0.1745
 4202TIP3    H136801   0.379   2.910  18.904 -0.4257 -0.0818  0.3054
 4202TIP3    H236802   0.238   2.900  18.958 -0.6630 -2.9137 -0.6570
 4203TIP3   OH236803   2.904   5.253  17.825  0.0607 -0.1656  0.0478
 4203TIP3    H136804   2.817   5.237  17.860 -0.3550 -0.5387 -1.1284
 4203TIP3    H236805   2.898   5.339  17.783  0.5877  0.3312  0.9595
 4204TIP3   OH236806   1.383   6.292  18.784 -0.0476  0.1034 -0.7310
 4204TIP3    H136807   1.365   6.250  18.868  0.7509 -0.1665 -0.6904
 4204TIP3    H236808   1.308   6.350  18.770  0.3656  1.0431  0.7217
 4205TIP3   OH236809   6.502   3.979  17.796  0.2235  0.5588 -0.2574
 4205TIP3    H136810   6.502   3.929  17.878  1.0969  2.3343  0.8808
 4205TIP3    H236811   6.567   3.934  17.741  1.4135  0.7256  0.9558
 4206TIP3   OH236812   0.112   1.884  18.487  0.0526  0.1080  0.2127
 4206TIP3    H136813   0.169   1.817  18.525 -0.0303  0.3499  0.7807
 4206TIP3    H236814   0.080   1.934  18.563 -0.7836  0.0778 -0.1026
 4207TIP3   OH236815   3.256   0.362  19.119 -0.1482  0.2232  0.4069
 4207TIP3    H136816   3.183   0.305  19.095 -0.2454  0.7152 -0.4875
 4207TIP3    H236817   3.334   0.318  19.084  0.0324 -0.4016  1.5284
 4208TIP3   OH236818   3.245   4.293  17.017  0.2423  0.4247 -0.6209
 4208TIP3    H136819   3.227   4.324  16.928  0.2978  0.1763 -0.7200
 4208TIP3    H236820   3.194   4.350  17.073  0.3673  0.7145 -0.7989
 4209TIP3   OH236821   1.214   6.402  19.119 -0.0293 -0.1596  0.7548
 4209TIP3    H136822   1.291   6.437  19.075 -0.3662 -0.4283 -0.0655
 4209TIP3    H236823   1.250   6.348  19.190  0.5987 -1.2707 -0.3503
 4210TIP3   OH236824   1.242   6.243  19.353  0.2172  0.1953  0.4755
 4210TIP3    H136825   1.151   6.274  19.350  0.4908  1.2585  1.9871
 4210TIP3    H236826   1.285   6.303  19.413  2.0509 -0.0289 -0.5544
 4211TIP3   OH236827   5.078   5.599  18.054  0.4758 -0.3261 -0.2563
 4211TIP3    H136828   5.078   5.683  18.099  1.2637  0.0762 -0.9722
 4211TIP3    H236829   5.046   5.619  17.966 -0.9724 -1.0832  0.0480
 4212TIP3   OH236830   0.351   0.763  19.280  1.1203 -0.1841  0.0804
 4212TIP3    H136831   0.333   0.764  19.186  1.9317  0.9043 -0.0898
 4212TIP3    H236832   0.280   0.712  19.318  0.8838 -0.7970 -1.1434
 4213TIP3   OH236833   2.197   0.622  17.043  0.2135  0.1601  0.7313
 4213TIP3    H136834   2.113   0.669  17.043  0.2629  0.3156 -0.9376
 4213TIP3    H236835   2.254   0.675  17.099 -0.3002  1.0147  0.4729
 4214TIP3   OH236836   3.686   4.964  18.088 -0.4959  0.3709  0.0686
 4214TIP3    H136837   3.760   4.937  18.142 -0.6287  3.2233  1.8901
 4214TIP3    H236838   3.613   4.910  18.118  0.2596 -0.6761  0.0563
 4215TIP3   OH236839   0.783   6.193  20.077  0.0638 -0.6452  1.4258
 4215TIP3    H136840   0.818   6.225  19.993 -0.8143  1.0561  1.6785
 4215TIP3    H236841   0.801   6.099  20.075  2.0540 -0.3159  0.2971
 4216TIP3   OH236842   1.013   5.963  18.160  0.3865  0.0991 -1.1327
 4216TIP3    H136843   0.935   5.947  18.107  0.3219  1.0009 -1.3280
 4216TIP3    H236844   1.074   6.007  18.100  1.7158 -2.0699 -1.4730
 4217TIP3   OH236845   4.428   4.054  17.022  0.0331 -0.1066 -0.6524
 4217TIP3    H136846   4.353   4.111  17.038  0.4623  0.3207 -0.1276
 4217TIP3    H236847   4.504   4.104  17.052  0.4522 -0.8215 -0.4891
 4218TIP3   OH236848   1.486   5.723  17.298 -0.0142 -0.3119 -0.0330
 4218TIP3    H136849   1.539   5.717  17.219  2.0620  0.0685  1.2591
 4218TIP3    H236850   1.492   5.636  17.338  0.6475  0.0686  0.7216
 4219TIP3   OH236851   2.605   4.102  17.245  0.1830  0.2767  0.0643
 4219TIP3    H136852   2.626   4.096  17.338 -0.2281  1.6845  0.2688
 4219TIP3    H236853   2.675   4.155  17.207  1.0022 -1.2788 -0.6801
 4220TIP3   OH236854   3.515   0.255  19.749 -0.6955  0.4656 -0.7024
 4220TIP3    H136855   3.586   0.255  19.685  0.0971 -1.4146  0.1097
 4220TIP3    H236856   3.454   0.321  19.717  0.9678  1.4996 -1.9150
 4221TIP3   OH236857   2.572   4.685  19.746  0.0562  0.0046 -0.2154
 4221TIP3    H136858   2.578   4.765  19.694  2.2378  0.5498  0.7509
 4221TIP3    H236859   2.646   4.631  19.716 -0.5375 -1.0390  0.1383
 4222TIP3   OH236860   0.957   3.500  18.716  0.3733 -0.0223  0.6311
 4222TIP3    H136861   0.974   3.441  18.789 -2.6961  0.1688  1.6434
 4222TIP3    H236862   0.928   3.582  18.757 -0.3199  0.4825 -0.7878
 4223TIP3   OH236863   1.546   2.119  19.086 -0.3580 -0.2575  0.1897
 4223TIP3    H136864   1.463   2.139  19.042 -1.0794 -0.7188  1.2845
 4223TIP3    H236865   1.600   2.196  19.072 -0.7972 -0.1424 -0.9501
 4224TIP3   OH236866   2.894   5.755  16.684  0.2860  0.4963 -0.0279
 4224TIP3    H136867   2.900   5.667  16.647 -1.5703 -0.2784  1.3433
 4224TIP3    H236868   2.802   5.765  16.708  0.3427  3.0280 -0.5786
 4225TIP3   OH236869   6.270   3.557  17.963  0.0484 -0.1537  0.5605
 4225TIP3    H136870   6.183   3.596  17.955  0.2709  0.5940  1.7324
 4225TIP3    H236871   6.291   3.561  18.056  1.4003 -0.2066  0.2809
 4226TIP3   OH236872   3.339   6.313  19.373 -0.2131 -0.2694 -0.2315
 4226TIP3    H136873   3.354   6.247  19.306  0.1142  1.5274 -2.0075
 4226TIP3    H236874   3.368   6.271  19.454  2.7681 -1.3108 -1.6818
 4227TIP3   OH236875   5.712   2.655  17.996  0.1217 -0.1713  0.0053
 4227TIP3    H136876   5.706   2.730  17.936  0.0651 -0.1879 -0.0095
 4227TIP3    H236877   5.798   2.664  18.037 -0.2530  0.4055  0.6739
 4228TIP3   OH236878   6.130   3.737  19.039  0.1652  0.6234  0.1249
 4228TIP3    H136879   6.207   3.729  18.983 -0.4141 -0.3675 -0.5646
 4228TIP3    H236880   6.073   3.665  19.012 -1.5235  2.0179 -0.1998
 4229TIP3   OH236881   2.834   3.497  20.183 -0.0353  0.6477 -0.2736
 4229TIP3    H136882   2.924   3.510  20.210  0.0135  1.3995 -0.7467
 4229TIP3    H236883   2.840   3.464  20.093 -0.2058 -1.1110  0.3321
 4230TIP3   OH236884   1.131   3.147  17.864 -0.2261 -0.1247 -0.0359
 4230TIP3    H136885   1.055   3.105  17.823  0.7314 -0.7636 -1.2100
 4230TIP3    H236886   1.163   3.208  17.798  0.0451  0.4518  0.6153
 4231TIP3   OH236887   2.700   0.037  18.122 -0.4389 -0.2683  0.1932
 4231TIP3    H136888   2.610   0.027  18.090 -0.2693  0.3231 -0.5093
 4231TIP3    H236889   2.698   0.005  18.212 -1.4381  0.1036  0.3087
 4232TIP3   OH236890   1.255   3.922  17.110  0.5639 -0.3782  0.0431
 4232TIP3    H136891   1.248   3.989  17.041 -0.5292 -0.5787 -0.0658
 4232TIP3    H236892   1.307   3.852  17.070  0.6713 -0.1243 -0.2733
 4233TIP3   OH236893   3.224   0.464  17.291  0.2343  0.1383 -0.0438
 4233TIP3    H136894   3.296   0.526  17.290  0.8118 -0.4651  1.4266
 4233TIP3    H236895   3.160   0.503  17.350  0.0469 -0.0782 -0.1032
 4234TIP3   OH236896   5.221   1.564  19.109 -0.3220 -0.1450  0.2277
 4234TIP3    H136897   5.254   1.489  19.060 -1.0337 -0.5344  0.3204
 4234TIP3    H236898   5.133   1.578  19.073 -0.0417  0.9044 -0.0721
 4235TIP3   OH236899   0.295   5.526  17.080  0.6731  0.4124  0.7177
 4235TIP3    H136900   0.371   5.508  17.025  0.5144 -1.6581  1.1081
 4235TIP3    H236901   0.332   5.561  17.162  1.0479  1.2566  0.2047
 4236TIP3   OH236902   6.578   3.504  17.119 -0.4584  0.0685 -0.0014
 4236TIP3    H136903   6.596   3.427  17.066 -1.5571 -0.1987 -0.0000
 4236TIP3    H236904   6.527   3.561  17.061  0.9585  1.1399 -0.2564
 4237TIP3   OH236905   4.193   4.023  17.641  0.0258  0.0002  0.3672
 4237TIP3    H136906   4.287   4.032  17.624 -0.0406 -0.7478 -0.5687
 4237TIP3    H236907   4.158   4.111  17.634  0.6752  0.2995  0.8330
 4238TIP3   OH236908   5.717   4.717  18.052 -0.8696  0.0043  0.5087
 4238TIP3    H136909   5.665   4.793  18.080  2.0013  2.7072 -0.9207
 4238TIP3    H236910   5.670   4.684  17.975 -1.0527  1.8249 -0.2362
 4239TIP3   OH236911   6.511   4.914  20.472 -0.3372 -0.2433  0.1897
 4239TIP3    H136912   6.590   4.950  20.431 -0.8184  1.3823  0.6093
 4239TIP3    H236913   6.539   4.833  20.513  1.4407  0.9484  1.4537
 4240TIP3   OH236914   0.874   3.060  16.740  0.4914  0.5864 -0.3426
 4240TIP3    H136915   0.902   3.036  16.652  0.1610  0.8176 -0.5174
 4240TIP3    H236916   0.884   3.155  16.742  0.9148  0.5339  0.0214
 4241TIP3   OH236917   4.965   0.095  18.141 -0.1478 -0.3940  0.2018
 4241TIP3    H136918   4.955   0.044  18.061  1.5459  0.0347 -0.3260
 4241TIP3    H236919   5.007   0.176  18.113  1.3455 -0.6313  1.6303
 4242TIP3   OH236920   3.562   1.440  17.005  0.4096 -0.0729 -0.2890
 4242TIP3    H136921   3.478   1.484  17.010 -0.2669 -1.2291 -0.9711
 4242TIP3    H236922   3.624   1.502  17.043 -0.6792  0.9524 -0.1243
 4243TIP3   OH236923   0.205   1.064  18.276  0.7519 -0.3900 -0.0899
 4243TIP3    H136924   0.227   0.971  18.278  0.9551 -0.4553 -2.7192
 4243TIP3    H236925   0.290   1.109  18.285  1.0642 -0.5420 -1.9479
 4244TIP3   OH236926   3.484   6.047  18.584  0.8363  0.2156 -1.1109
 4244TIP3    H136927   3.391   6.028  18.575  0.7789  0.2160 -0.5704
 4244TIP3    H236928   3.498   6.125  18.530  0.1052  1.4029  0.3143
 4245TIP3   OH236929   0.726   3.540  18.941 -0.0855  0.3933  0.0037
 4245TIP3    H136930   0.810   3.582  18.959  0.7105 -0.2155 -2.0578
 4245TIP3    H236931   0.661   3.602  18.974  1.1075 -0.1305  3.8052
 4246TIP3   OH236932   1.645   3.860  17.012 -0.7589 -0.2713 -0.2471
 4246TIP3    H136933   1.666   3.916  16.937 -2.6786  2.3922  1.0495
 4246TIP3    H236934   1.566   3.813  16.986 -1.1412  0.2730 -0.0636
 4247TIP3   OH236935   1.186   6.108  18.490  0.6909  0.0891  0.3380
 4247TIP3    H136936   1.251   6.061  18.541 -0.7920  0.4913  2.7234
 4247TIP3    H236937   1.181   6.195  18.530 -0.3904  0.5109 -0.6346
 4248TIP3   OH236938   0.875   6.653  20.216  0.1385  0.7392  0.2056
 4248TIP3    H136939   0.910   6.624  20.132  0.1666 -0.4656  0.6021
 4248TIP3    H236940   0.926   6.730  20.239  1.6608 -0.1992  0.1484
 4249TIP3   OH236941   1.412   6.107  19.961 -0.1696 -0.1089 -0.5337
 4249TIP3    H136942   1.347   6.154  19.908  1.5352  2.9908 -0.1579
 4249TIP3    H236943   1.427   6.165  20.036  1.9888 -1.3746  0.0939
 4250TIP3   OH236944   5.281   2.849  19.101  0.1573  0.0683  1.0022
 4250TIP3    H136945   5.330   2.910  19.046 -1.0292 -0.5456 -0.8196
 4250TIP3    H236946   5.321   2.763  19.085  0.2908 -0.0105  1.7105
 4251TIP3   OH236947   0.653   3.029  18.363 -0.0747 -0.3877 -0.2830
 4251TIP3    H136948   0.749   3.024  18.362 -0.0588 -0.0534 -0.9589
 4251TIP3    H236949   0.631   3.033  18.456  0.6402  0.6685 -0.1326
 4252TIP3   OH236950   2.861   5.700  18.967 -0.2386  0.3694 -0.6384
 4252TIP3    H136951   2.820   5.615  18.951 -1.9400  0.8262  0.9460
 4252TIP3    H236952   2.955   5.682  18.968 -0.5685 -1.5065 -0.2314
 4253TIP3   OH236953   6.522   5.040  17.446  0.1070 -0.1706 -0.3343
 4253TIP3    H136954   6.582   5.040  17.372 -1.9338  1.6452 -2.1457
 4253TIP3    H236955   6.435   5.034  17.406 -1.1490  1.9158  1.7876
 4254TIP3   OH236956   3.065   1.019  19.798  0.1109 -0.3652  0.5181
 4254TIP3    H136957   2.991   1.070  19.829 -1.0295 -0.7797 -1.3741
 4254TIP3    H236958   3.141   1.056  19.844 -1.0555  1.0683  1.3656
 4255TIP3   OH236959   0.778   0.313  18.252  0.6352 -0.1807  0.0774
 4255TIP3    H136960   0.716   0.241  18.245  0.5588 -0.1734  0.6959
 4255TIP3    H236961   0.809   0.327  18.162 -1.0938  0.5712 -0.4348
 4256TIP3   OH236962   2.124   5.169  16.706  0.2594  0.1969  0.7180
 4256TIP3    H136963   2.152   5.150  16.617 -0.2734  0.4700  0.4846
 4256TIP3    H236964   2.165   5.101  16.759  0.7201  0.1340  0.2889
 4257TIP3   OH236965   5.667   6.144  17.668  0.1821 -0.5982  0.0871
 4257TIP3    H136966   5.626   6.231  17.670  0.4201 -0.4948  1.4977
 4257TIP3    H236967   5.746   6.156  17.615 -1.2176 -0.6446 -2.1058
 4258TIP3   OH236968   2.139   1.305  17.353  0.1529  0.0399 -0.3032
 4258TIP3    H136969   2.107   1.363  17.422  0.6903 -2.1760  1.9773
 4258TIP3    H236970   2.091   1.332  17.275 -2.1783  1.2667  1.4065
 4259TIP3   OH236971   3.573   4.248  17.437 -0.0125 -0.3935 -0.7834
 4259TIP3    H136972   3.482   4.230  17.416 -0.3686 -1.2116  1.2630
 4259TIP3    H236973   3.610   4.163  17.460  0.2455  0.3787  1.9712
 4260TIP3   OH236974   5.023   0.995  18.665 -0.1246 -0.3197  0.0687
 4260TIP3    H136975   5.113   0.965  18.657 -0.3002 -0.6966 -0.5385
 4260TIP3    H236976   5.023   1.082  18.624  0.2105  0.1925  1.1214
 4261TIP3   OH236977   0.326   1.557  18.151  0.1862  0.4976 -0.5283
 4261TIP3    H136978   0.351   1.523  18.066  0.8063  1.2697 -0.6685
 4261TIP3    H236979   0.409   1.572  18.196  0.2903  5.1569 -1.7861
 4262TIP3   OH236980   6.040   0.511  18.567 -0.2390  0.5668  0.2642
 4262TIP3    H136981   6.108   0.543  18.508  0.6290 -1.8765 -0.1773
 4262TIP3    H236982   6.047   0.416  18.563 -2.9892  0.2358  1.0580
 4263TIP3   OH236983   0.097   6.343  19.467  0.2836  0.0302  0.0204
 4263TIP3    H136984   0.128   6.354  19.557 -0.3631  1.1904  0.1152
 4263TIP3    H236985   0.118   6.426  19.424 -0.8538  0.0895 -0.4572
 4264TIP3   OH236986   1.803   1.836  17.494  0.5160  0.7892 -0.7659
 4264TIP3    H136987   1.726   1.786  17.465  0.4035  0.8289 -0.5380
 4264TIP3    H236988   1.799   1.832  17.590 -0.3307  2.4865 -0.6969
 4265TIP3   OH236989   3.778   3.433  20.051  0.2621  0.3333  0.0626
 4265TIP3    H136990   3.707   3.461  20.109  1.7192  2.8928  0.7727
 4265TIP3    H236991   3.804   3.513  20.005  0.7106 -1.1499 -2.4500
 4266TIP3   OH236992   5.677   4.050  18.683 -0.1307  0.0500 -0.0491
 4266TIP3    H136993   5.720   4.037  18.767  0.0383  0.5438 -0.0569
 4266TIP3    H236994   5.608   3.984  18.681  1.5226 -1.7897 -0.6562
 4267TIP3   OH236995   4.612   2.874  18.671  0.3152  0.4715  0.1025
 4267TIP3    H136996   4.579   2.785  18.669  0.6224  0.3513 -1.5849
 4267TIP3    H236997   4.648   2.886  18.759 -1.7503 -0.2843  1.1026
 4268TIP3   OH236998   1.037   1.607  17.806  0.0602  0.1595  0.3744
 4268TIP3    H136999   0.989   1.547  17.863  1.7838 -1.8744 -0.1957
 4268TIP3    H237000   1.118   1.561  17.786 -0.5090  0.6372 -3.9018
 4269TIP3   OH237001   5.309   6.669  18.595  0.0827  0.1398 -0.5460
 4269TIP3    H137002   5.228   6.658  18.545 -0.1864 -0.3307 -0.0025
 4269TIP3    H237003   5.295   6.749  18.645 -0.2854 -0.2748  0.0125
 4270TIP3   OH237004   2.409   0.614  19.202  0.0723  0.2215 -0.3784
 4270TIP3    H137005   2.331   0.576  19.243  0.8914 -2.0310 -0.7610
 4270TIP3    H237006   2.469   0.631  19.275 -0.5876  1.6224 -0.1236
 4271TIP3   OH237007   2.677   6.704  17.040  0.4211  0.5158  0.4163
 4271TIP3    H137008   2.625   6.756  16.978  1.6913  1.6326  0.2475
 4271TIP3    H237009   2.629   6.621  17.046  0.5421  0.0915 -2.5712
 4272TIP3   OH237010   5.523   4.417  18.113 -0.2381  0.5381 -0.5428
 4272TIP3    H137011   5.599   4.433  18.168 -0.9366 -0.8686  0.9339
 4272TIP3    H237012   5.498   4.503  18.080  1.1406  1.2049  0.0801
 4273TIP3   OH237013   4.326   5.961  17.289 -0.1307 -0.0316  0.4998
 4273TIP3    H137014   4.380   5.990  17.215  0.7483  0.0600  1.1607
 4273TIP3    H237015   4.353   5.870  17.304  1.3235  0.6070  2.0851
 4274TIP3   OH237016   3.076   4.676  18.261 -0.2247  0.0693  0.2475
 4274TIP3    H137017   3.042   4.727  18.334 -1.9651 -0.2822 -0.2728
 4274TIP3    H237018   3.078   4.586  18.293 -0.4324 -0.0071  0.0440
 4275TIP3   OH237019   5.477   0.688  19.298  0.6751  0.4488  0.3134
 4275TIP3    H137020   5.513   0.743  19.228 -0.5846  0.2227 -0.5300
 4275TIP3    H237021   5.433   0.616  19.252  1.9552 -1.0915  1.3826
 4276TIP3   OH237022   3.569   0.510  18.464  0.1024 -0.1635  0.1112
 4276TIP3    H137023   3.476   0.497  18.449  0.6914 -3.6049 -1.6245
 4276TIP3    H237024   3.574   0.587  18.521 -3.6852  0.6270 -0.3697
 4277TIP3   OH237025   6.164   1.066  19.780 -0.4375 -0.3581  0.5980
 4277TIP3    H137026   6.223   1.036  19.849 -0.2011 -1.4125 -0.0398
 4277TIP3    H237027   6.201   1.150  19.752 -0.4357 -0.0067  1.6150
 4278TIP3   OH237028   3.202   0.211  17.158  0.1837 -0.3160 -0.1472
 4278TIP3    H137029   3.196   0.303  17.183  0.5214 -0.0072 -1.1198
 4278TIP3    H237030   3.120   0.193  17.112 -0.3080 -0.7915  0.8873
 4279TIP3   OH237031   0.929   6.102  18.394 -0.1497  0.3629 -0.5392
 4279TIP3    H137032   0.948   6.059  18.310 -1.3355 -1.4177  0.0520
 4279TIP3    H237033   1.014   6.110  18.436  0.4590  1.2144 -1.8465
 4280TIP3   OH237034   0.902   5.051  18.109  0.3035 -0.1900  0.4586
 4280TIP3    H137035   0.983   5.055  18.160 -0.4354  2.0268  1.6115
 4280TIP3    H237036   0.891   5.141  18.076 -1.2343 -0.6678 -0.4077
 4281TIP3   OH237037   3.964   4.177  18.476 -0.4524  0.6675 -0.0198
 4281TIP3    H137038   3.941   4.163  18.384  1.1584  2.9321 -0.8529
 4281TIP3    H237039   3.992   4.091  18.507  2.0109  0.3782 -2.6186
 4282TIP3   OH237040   3.094   1.647  17.647  0.0393 -0.3413 -0.3630
 4282TIP3    H137041   3.084   1.553  17.664 -0.7963  0.1256  2.1658
 4282TIP3    H237042   3.188   1.660  17.639  0.2780 -1.1801  0.8328
 4283TIP3   OH237043   2.005   1.389  17.650 -0.8320  0.5788 -0.1714
 4283TIP3    H137044   2.028   1.459  17.589  2.1831  0.5216  0.7040
 4283TIP3    H237045   2.002   1.432  17.736 -1.7366  0.0967  0.0483
 4284TIP3   OH237046   1.648   5.591  19.584 -0.1984 -0.6088  0.8789
 4284TIP3    H137047   1.731   5.596  19.632  0.0729 -1.4962  0.5226
 4284TIP3    H237048   1.585   5.637  19.640  0.0996 -1.6593  2.1339
 4285TIP3   OH237049   5.619   5.725  18.795  0.3535 -0.2197 -0.3367
 4285TIP3    H137050   5.613   5.635  18.764  0.5318 -0.3896  0.1220
 4285TIP3    H237051   5.593   5.778  18.719 -1.9292 -0.7335  0.0061
 4286TIP3   OH237052   5.140   3.817  17.539  0.1005  0.1375 -0.6345
 4286TIP3    H137053   5.170   3.726  17.540  0.9888  0.4252 -0.2979
 4286TIP3    H237054   5.174   3.852  17.456  0.6972  0.4554 -0.2665
 4287TIP3   OH237055   4.467   4.186  20.046  0.6743  0.0328 -0.8112
 4287TIP3    H137056   4.490   4.152  20.132  1.0097  1.1768 -0.4248
 4287TIP3    H237057   4.430   4.112  19.999  0.9699 -0.7297  0.1411
 4288TIP3   OH237058   5.172   0.538  19.098  0.0649  0.1985  0.1028
 4288TIP3    H137059   5.267   0.530  19.094  0.1224  0.0987  1.2173
 4288TIP3    H237060   5.157   0.621  19.143 -0.2929 -1.0356  2.4655
 4289TIP3   OH237061   4.431   3.562  19.030  0.1013  0.2261  0.5578
 4289TIP3    H137062   4.407   3.635  18.972 -1.3499 -1.8134 -1.5800
 4289TIP3    H237063   4.354   3.549  19.086  0.6808  0.8212  1.5200
 4290TIP3   OH237064   5.196   3.535  19.708 -0.1122 -0.4392  0.0344
 4290TIP3    H137065   5.272   3.502  19.756 -0.4064  0.3807  1.0804
 4290TIP3    H237066   5.121   3.510  19.761 -0.6473 -1.6397 -1.2113
 4291TIP3   OH237067   4.247   1.595  20.571  0.6342  0.1002  0.1178
 4291TIP3    H137068   4.196   1.654  20.627  1.0378  0.0059  0.5895
 4291TIP3    H237069   4.192   1.517  20.564  0.1927  0.4496 -0.3386
 4292TIP3   OH237070   1.177   5.303  17.876 -0.2564 -0.0659  0.3306
 4292TIP3    H137071   1.092   5.270  17.847 -0.2579  1.3325 -1.4297
 4292TIP3    H237072   1.165   5.397  17.885  0.6440 -0.0713  1.8898
 4293TIP3   OH237073   1.092   2.991  17.031 -0.2300  0.2775 -0.5512
 4293TIP3    H137074   1.023   2.932  17.000 -0.9620  1.9401 -2.2996
 4293TIP3    H237075   1.173   2.954  16.994 -0.4272 -0.5805 -0.1503
 4294TIP3   OH237076   6.440   2.493  20.075 -0.5329  0.7200 -0.0643
 4294TIP3    H137077   6.467   2.583  20.092 -2.2935  1.0158  1.4577
 4294TIP3    H237078   6.439   2.486  19.980  1.1496  1.7970 -0.2031
 4295TIP3   OH237079   4.716   3.995  19.201  0.0693  0.6200 -0.1880
 4295TIP3    H137080   4.802   3.969  19.234  0.2104  1.5156  0.1823
 4295TIP3    H237081   4.656   3.979  19.274  0.0691  0.8327 -0.1423
 4296TIP3   OH237082   5.286   0.701  20.281  0.1208 -0.2175  0.1935
 4296TIP3    H137083   5.246   0.642  20.344 -1.0465  0.8890  0.5343
 4296TIP3    H237084   5.293   0.649  20.200 -1.6279 -0.5917  0.2487
 4297TIP3   OH237085   1.484   4.841  18.363  0.1897 -0.2293 -0.2778
 4297TIP3    H137086   1.436   4.758  18.372 -1.0916  0.6854  1.9266
 4297TIP3    H237087   1.476   4.883  18.448  1.0125  2.0795 -1.2680
 4298TIP3   OH237088   3.824   4.573  20.479 -0.0573 -0.1813  0.1531
 4298TIP3    H137089   3.813   4.616  20.394  0.2341 -0.3009  0.0534
 4298TIP3    H237090   3.893   4.509  20.464  1.5221  1.2263  1.0020
 4299TIP3   OH237091   5.799   4.904  19.336  0.0539 -0.2783 -0.0971
 4299TIP3    H137092   5.742   4.917  19.412  1.3924 -0.9621  1.0768
 4299TIP3    H237093   5.740   4.885  19.264 -1.4448  2.7494  0.1829
 4300TIP3   OH237094   4.557   3.270  19.995  0.0166  0.8610 -0.3508
 4300TIP3    H137095   4.463   3.252  19.988  0.1257  0.5644 -1.2278
 4300TIP3    H237096   4.562   3.358  20.031 -0.6150  1.0818 -0.7778
 4301TIP3   OH237097   5.968   3.326  18.653  0.8093 -0.1670 -0.4964
 4301TIP3    H137098   6.031   3.390  18.620 -1.0363  1.5958 -0.7799
 4301TIP3    H237099   5.883   3.354  18.617 -0.3206 -1.8662  0.6659
 4302TIP3   OH237100   3.364   1.851  18.683 -0.2380 -0.7120 -0.1327
 4302TIP3    H137101   3.402   1.784  18.740  1.8591  1.3476  1.0568
 4302TIP3    H237102   3.327   1.915  18.744 -1.8598 -0.5561 -1.2325
 4303TIP3   OH237103   2.446   3.773  19.864 -0.1521  0.8656  0.0873
 4303TIP3    H137104   2.539   3.767  19.840 -0.5472 -1.1384 -1.1726
 4303TIP3    H237105   2.411   3.842  19.808  0.4865  1.4075  0.3373
 4304TIP3   OH237106   3.362   2.722  18.029 -0.2192 -0.1560 -0.2411
 4304TIP3    H137107   3.267   2.728  18.026 -0.1976 -0.0460 -2.3815
 4304TIP3    H237108   3.385   2.666  17.955  1.3760 -0.3561  0.3602
 4305TIP3   OH237109   4.629   6.017  19.400 -0.2019 -0.2159 -0.5880
 4305TIP3    H137110   4.559   6.035  19.337  0.5229  0.9808 -1.0923
 4305TIP3    H237111   4.709   6.039  19.353  0.3480  0.9654  0.8477
 4306TIP3   OH237112   3.218   2.391  20.218 -0.4564  0.0937  0.4732
 4306TIP3    H137113   3.272   2.460  20.179  0.9235 -2.0584 -1.7415
 4306TIP3    H237114   3.129   2.415  20.196 -0.3790  2.7047  2.4856
 4307TIP3   OH237115   3.679   0.237  19.519 -0.2346  0.0344 -0.3956
 4307TIP3    H137116   3.721   0.296  19.457 -3.0430 -1.2397 -3.8869
 4307TIP3    H237117   3.680   0.152  19.475  1.3336 -2.0772  3.2762
 4308TIP3   OH237118   4.024   5.351  20.071 -0.2914 -0.3959  0.1609
 4308TIP3    H137119   3.930   5.342  20.091 -0.4113  0.6607  0.1673
 4308TIP3    H237120   4.049   5.432  20.116  0.1264  0.4687 -1.5606
 4309TIP3   OH237121   1.937   5.959  20.159  0.1549 -0.6373 -0.2396
 4309TIP3    H137122   2.019   6.007  20.153 -0.0312 -0.4886 -2.6808
 4309TIP3    H237123   1.875   6.022  20.194  0.8958 -0.5170  0.8892
 4310TIP3   OH237124   2.006   5.866  19.471  0.1394  0.5539  0.1831
 4310TIP3    H137125   2.026   5.780  19.509 -0.2982  0.4450  0.1738
 4310TIP3    H237126   2.074   5.879  19.404 -1.0164 -0.7848 -1.3577
 4311TIP3   OH237127   2.802   4.870  19.839  0.3245  0.3567  0.6379
 4311TIP3    H137128   2.728   4.892  19.895  0.0365  0.7732  0.1007
 4311TIP3    H237129   2.771   4.886  19.750  0.2997 -1.6466  0.2462
 4312TIP3   OH237130   1.766   1.156  19.050 -0.3105  0.0073  0.6288
 4312TIP3    H137131   1.698   1.126  18.990 -0.1688 -1.6771  1.2468
 4312TIP3    H237132   1.731   1.138  19.138  1.8748 -3.5084  0.9824
 4313TIP3   OH237133   3.930   4.036  19.017 -0.0452  0.3559 -0.3336
 4313TIP3    H137134   4.011   3.986  19.011  0.1000  0.5120  0.3190
 4313TIP3    H237135   3.908   4.036  19.110 -1.2315 -0.3655 -0.6034
 4314TIP3   OH237136   6.301   1.691  18.640 -0.2833  0.5053  0.1765
 4314TIP3    H137137   6.250   1.684  18.559  0.5568 -0.8818 -0.2614
 4314TIP3    H237138   6.392   1.684  18.612  0.0073 -0.5317  1.2794
 4315TIP3   OH237139   0.435   1.931  19.060 -0.1458 -0.1589 -0.6471
 4315TIP3    H137140   0.413   1.867  18.992 -0.4880 -0.2076 -0.4917
 4315TIP3    H237141   0.478   1.879  19.129 -0.4966 -0.2342 -0.4853
 4316TIP3   OH237142   5.595   3.370  17.718  0.1413 -0.1628  0.2671
 4316TIP3    H137143   5.583   3.333  17.630  0.5794  0.0049  0.1331
 4316TIP3    H237144   5.511   3.411  17.738  0.3340  0.6158 -0.4652
 4317TIP3   OH237145   4.002   4.479  20.017  0.3012  0.4933 -0.1362
 4317TIP3    H137146   4.071   4.501  19.955  0.1561 -1.3385 -0.9952
 4317TIP3    H237147   3.997   4.384  20.016  1.4230  0.1874  3.9406
 4318TIP3   OH237148   0.981   3.988  18.826  0.1909 -0.6290  0.2776
 4318TIP3    H137149   0.901   4.033  18.849  0.6186 -0.1316  0.8157
 4318TIP3    H237150   0.976   3.975  18.731 -0.3784 -0.3372  0.2710
 4319TIP3   OH237151   2.791   0.780  17.694  0.5775  0.3556  0.8257
 4319TIP3    H137152   2.869   0.794  17.640 -1.5298 -0.6011 -2.7649
 4319TIP3    H237153   2.793   0.687  17.716  0.0098  0.1121 -0.1036
 4320TIP3   OH237154   1.892   2.572  17.942  0.5709 -0.3696  0.8612
 4320TIP3    H137155   1.815   2.542  17.988  1.2364 -1.4147  1.3307
 4320TIP3    H237156   1.864   2.580  17.850 -1.3209  3.6119  1.5579
 4321TIP3   OH237157   6.191   5.740  19.854 -0.2801 -0.2020  0.3221
 4321TIP3    H137158   6.182   5.727  19.759  0.8953 -2.1311  0.4239
 4321TIP3    H237159   6.281   5.771  19.865  0.1933 -1.6972  0.9035
 4322TIP3   OH237160   0.281   2.166  19.151  0.1894  0.1556  0.2676
 4322TIP3    H137161   0.343   2.236  19.173 -0.3337  0.5168  0.6141
 4322TIP3    H237162   0.335   2.098  19.111  0.9597  0.0579  1.4404
 4323TIP3   OH237163   2.787   2.909  19.514  0.7566  0.2500  0.4346
 4323TIP3    H137164   2.705   2.865  19.491  1.2229 -1.7612  2.2764
 4323TIP3    H237165   2.764   3.001  19.523 -0.5131  0.3223 -2.5098
 4324TIP3   OH237166   0.545   2.984  18.945  0.2948 -0.0218  0.1793
 4324TIP3    H137167   0.579   2.971  19.034 -0.0576 -0.9754  0.1805
 4324TIP3    H237168   0.623   2.991  18.890  0.5105  0.0797  0.4959
 4325TIP3   OH237169   4.648   0.866  17.268 -0.0254 -0.0112 -0.2659
 4325TIP3    H137170   4.577   0.803  17.279  0.1400 -0.2260 -0.4160
 4325TIP3    H237171   4.607   0.951  17.284 -0.2547 -0.1544 -0.0806
 4326TIP3   OH237172   6.152   4.474  19.264 -0.4340  0.0637 -0.2717
 4326TIP3    H137173   6.059   4.495  19.263 -0.2108  1.5069  2.2098
 4326TIP3    H237174   6.159   4.400  19.324  0.1164  0.8304  0.6458
 4327TIP3   OH237175   2.118   1.592  17.823  0.0643 -0.1923  0.3587
 4327TIP3    H137176   2.143   1.664  17.766  0.1366 -1.5778 -1.4384
 4327TIP3    H237177   2.200   1.544  17.837 -0.2870 -0.8448  0.1788
 4328TIP3   OH237178   3.585   2.437  18.361 -0.2843  0.2118 -0.3331
 4328TIP3    H137179   3.609   2.378  18.432  1.0842  0.6731 -0.3794
 4328TIP3    H237180   3.612   2.391  18.281  1.8602  1.3120 -0.3150
 4329TIP3   OH237181   3.646   5.162  17.889  0.3568  0.6276 -0.3883
 4329TIP3    H137182   3.653   5.112  17.969 -0.5730  0.2548 -0.5209
 4329TIP3    H237183   3.720   5.134  17.835  0.7080  0.5321  0.1406
 4330TIP3   OH237184   0.155   4.252  20.260 -0.4687  0.5111  0.5418
 4330TIP3    H137185   0.138   4.282  20.350  1.1981  1.1703  0.6757
 4330TIP3    H237186   0.245   4.280  20.242  0.4529 -2.5105 -0.1464
 4331TIP3   OH237187   0.359   6.459  17.460 -0.5810 -0.2387  0.1476
 4331TIP3    H137188   0.329   6.487  17.547  0.9480 -1.7182  1.2146
 4331TIP3    H237189   0.435   6.514  17.443 -0.3932 -0.5090  0.1167
 4332TIP3   OH237190   6.647   2.335  17.890 -0.1624 -0.1739  0.5449
 4332TIP3    H137191   6.615   2.417  17.852 -0.3310  0.2296  1.5361
 4332TIP3    H237192   6.704   2.362  17.962 -1.1740 -0.9161  1.6668
 4333TIP3   OH237193   6.663   3.785  17.909 -0.1942 -0.5052 -0.7974
 4333TIP3    H137194   6.651   3.700  17.952  2.5421  0.3334  2.0234
 4333TIP3    H237195   6.702   3.764  17.825 -1.3658 -2.0720 -0.9996
 4334TIP3   OH237196   4.477   3.133  17.341  0.1760  0.7643 -0.3380
 4334TIP3    H137197   4.506   3.057  17.290  1.8082  2.2864 -1.8259
 4334TIP3    H237198   4.404   3.169  17.291 -0.3199  0.4539  0.1455
 4335TIP3   OH237199   5.045   0.409  18.893  0.7207  0.6222 -0.4864
 4335TIP3    H137200   5.118   0.423  18.833  1.8742 -1.0206  0.4687
 4335TIP3    H237201   5.081   0.432  18.979 -0.0428  0.2756 -0.0665
 4336TIP3   OH237202   4.511   3.058  16.853  0.0688  0.4015  0.9588
 4336TIP3    H137203   4.456   2.997  16.805  0.2208 -0.1563  1.4817
 4336TIP3    H237204   4.451   3.126  16.884 -0.0940  0.5421  0.3478
 4337TIP3   OH237205   0.718   0.707  18.204 -0.0265  0.3287  0.3422
 4337TIP3    H137206   0.734   0.797  18.175 -1.6470  1.1393  1.7805
 4337TIP3    H237207   0.674   0.666  18.130  1.2464  0.5027 -0.5524
 4338TIP3   OH237208   1.728   4.509  17.987  0.4489  0.7756  0.1056
 4338TIP3    H137209   1.659   4.569  18.016  0.5415  0.7886  0.3048
 4338TIP3    H237210   1.754   4.541  17.901 -0.8947 -0.1607 -0.6812
 4339TIP3   OH237211   4.654   0.963  20.479 -0.3540 -0.1166  0.4375
 4339TIP3    H137212   4.567   0.954  20.440 -0.6831 -0.3410  1.2111
 4339TIP3    H237213   4.639   1.015  20.558  0.2490  0.0073  0.4746
 4340TIP3   OH237214   1.528   4.611  19.098  0.3731 -0.3363  0.4271
 4340TIP3    H137215   1.545   4.625  19.191 -0.8865 -2.3656  1.0270
 4340TIP3    H237216   1.599   4.555  19.069  0.6797  0.1691  0.1936
 4341TIP3   OH237217   4.049   1.608  18.242 -0.3458 -0.5459 -0.2223
 4341TIP3    H137218   4.101   1.573  18.314 -1.2947  1.4606  1.5515
 4341TIP3    H237219   4.112   1.617  18.170  1.3916  0.1341  1.2865
 4342TIP3   OH237220   0.635   2.341  18.078 -0.2557 -0.6304 -0.7241
 4342TIP3    H137221   0.604   2.349  17.988 -1.0869 -1.7614 -0.5670
 4342TIP3    H237222   0.722   2.302  18.070 -0.7719 -1.7656 -1.0180
 4343TIP3   OH237223   1.122   5.172  19.162 -1.0262 -0.4357  0.7402
 4343TIP3    H137224   1.120   5.232  19.236 -0.9708 -0.2824  0.6195
 4343TIP3    H237225   1.078   5.220  19.092 -0.7621 -0.4350  0.5717
 4344TIP3   OH237226   2.309   1.073  18.987  0.4492 -0.4102  0.3690
 4344TIP3    H137227   2.324   1.147  18.928 -0.9786  1.3490  2.0564
 4344TIP3    H237228   2.394   1.055  19.026  1.0728 -0.5329 -1.0052
 4345TIP3   OH237229   6.234   6.233  18.038  0.1783 -0.4250 -0.3620
 4345TIP3    H137230   6.268   6.223  17.949  1.2812  0.2407 -0.0350
 4345TIP3    H237231   6.141   6.254  18.026  0.1329 -1.1165 -1.3169
 4346TIP3   OH237232   2.810   3.983  18.068  0.0035  0.2000 -0.2106
 4346TIP3    H137233   2.833   3.969  17.976 -0.2268  1.0349 -0.4033
 4346TIP3    H237234   2.882   3.943  18.117 -0.2665 -0.9644 -0.7301
 4347TIP3   OH237235   0.320   6.040  19.697  0.6647 -0.0062 -0.0319
 4347TIP3    H137236   0.335   6.117  19.642 -1.5471  0.2841 -0.2947
 4347TIP3    H237237   0.286   5.974  19.636 -0.3721 -0.1702  0.7057
 4348TIP3   OH237238   4.109   4.474  17.378  0.1591  0.1833  0.0759
 4348TIP3    H137239   4.084   4.528  17.303 -1.3552 -0.3114  0.1841
 4348TIP3    H237240   4.191   4.512  17.409 -0.4623  1.9317 -0.3090
 4349TIP3   OH237241   3.127   2.636  19.638  0.3326 -0.4924 -0.2800
 4349TIP3    H137242   3.173   2.716  19.612  0.8837 -0.9700 -0.7914
 4349TIP3    H237243   3.195   2.569  19.643 -0.5579 -1.7486 -3.2193
 4350TIP3   OH237244   1.381   6.622  16.759  0.6216  0.0304 -0.2030
 4350TIP3    H137245   1.379   6.655  16.669 -1.1433 -2.0882 -1.0236
 4350TIP3    H237246   1.289   6.615  16.785  0.9986 -1.7109  0.8513
 4351TIP3   OH237247   5.850   0.987  18.880 -0.2102 -0.5479  0.0278
 4351TIP3    H137248   5.906   0.983  18.957  0.4454 -1.2531 -0.4653
 4351TIP3    H237249   5.781   0.923  18.897 -1.2474  0.7576  0.9037
 4352TIP3   OH237250   2.194   3.787  19.032  0.2664  0.2742  0.1346
 4352TIP3    H137251   2.248   3.709  19.018  0.4099  0.3712  0.1446
 4352TIP3    H237252   2.139   3.766  19.108 -0.8241 -0.4227 -0.8103
 4353TIP3   OH237253   3.810   0.785  19.074 -0.3234 -0.2781 -0.9463
 4353TIP3    H137254   3.888   0.755  19.029  0.2105  2.5200 -2.1137
 4353TIP3    H237255   3.737   0.743  19.028  0.3874 -0.7723 -1.6336
 4354TIP3   OH237256   6.604   0.858  18.840 -0.1278  0.6002 -0.0846
 4354TIP3    H137257   6.570   0.946  18.857  2.2154  1.1391  2.5567
 4354TIP3    H237258   6.549   0.800  18.894 -0.5730  0.6682 -0.4611
 4355TIP3   OH237259   1.074   2.452  20.224 -0.4131 -0.1783  0.4828
 4355TIP3    H137260   1.106   2.494  20.144 -0.6280 -1.5626 -0.3527
 4355TIP3    H237261   1.018   2.518  20.265 -1.9083 -0.1062 -1.5386
 4356TIP3   OH237262   2.846   5.552  18.610  0.1639  0.4238 -0.4692
 4356TIP3    H137263   2.834   5.644  18.633 -0.6362  0.1455  0.2727
 4356TIP3    H237264   2.888   5.512  18.686  0.2163  0.1069 -0.6585
 4357TIP3   OH237265   6.075   1.394  20.076  0.2579  0.3815  0.8206
 4357TIP3    H137266   6.054   1.343  20.155 -0.9280  0.0974  0.3472
 4357TIP3    H237267   6.026   1.350  20.006  3.3620 -1.0451 -0.6400
 4358TIP3   OH237268   3.113   4.724  16.959  0.1141 -0.7868 -0.3094
 4358TIP3    H137269   3.045   4.688  16.902  2.3187 -2.3900 -2.1252
 4358TIP3    H237270   3.189   4.733  16.902  1.6410  0.3189  1.7720
 4359TIP3   OH237271   4.101   5.432  16.400  0.3254 -0.1818  0.9756
 4359TIP3    H137272   4.093   5.338  16.417 -0.0655 -0.5313 -0.9101
 4359TIP3    H237273   4.188   5.441  16.361  0.4153  0.2719  1.2771
 4360TIP3   OH237274   1.402   0.479  17.936 -0.2226  0.6401 -0.5548
 4360TIP3    H137275   1.316   0.471  17.978  0.6347  1.6916  1.5726
 4360TIP3    H237276   1.439   0.391  17.938 -0.1348  0.6828  1.1892
 4361TIP3   OH237277   5.712   1.846  18.106 -0.5908  0.3167 -0.1154
 4361TIP3    H137278   5.778   1.793  18.151 -2.2291 -2.3357 -0.6141
 4361TIP3    H237279   5.745   1.855  18.017  0.0480  0.7925  0.1620
 4362TIP3   OH237280   3.105   3.400  17.510 -0.5673 -0.3751  0.1251
 4362TIP3    H137281   3.075   3.398  17.419 -0.1201 -1.6671 -0.0254
 4362TIP3    H237282   3.197   3.373  17.505 -0.6486 -0.8546  0.9813
 4363TIP3   OH237283   6.424   5.068  17.698 -0.1798  0.1037  0.1647
 4363TIP3    H137284   6.332   5.090  17.681 -1.1502 -3.2098  0.4731
 4363TIP3    H237285   6.463   5.057  17.612 -1.1440 -2.1969 -0.0247
 4364TIP3   OH237286   2.689   1.093  18.983 -0.0984  0.0981 -0.4303
 4364TIP3    H137287   2.639   1.036  19.041 -1.1723 -0.1695 -1.5689
 4364TIP3    H237288   2.680   1.180  19.021  2.0542 -0.4934  1.6666
 4365TIP3   OH237289   0.864   4.998  18.916  0.4294  0.3851 -0.0461
 4365TIP3    H137290   0.908   5.078  18.943 -0.7766  0.2643  2.5338
 4365TIP3    H237291   0.821   4.965  18.995 -1.3017 -1.4183 -1.6046
 4366TIP3   OH237292   1.250   3.759  19.194  0.0214  0.8028 -0.0072
 4366TIP3    H137293   1.170   3.740  19.242 -0.7295 -0.3760 -1.6610
 4366TIP3    H237294   1.275   3.847  19.223 -1.2723  0.7683  1.3035
 4367TIP3   OH237295   4.607   1.479  19.419  0.6236 -0.0433 -0.1140
 4367TIP3    H137296   4.611   1.402  19.362 -0.3208  0.2489 -0.6028
 4367TIP3    H237297   4.648   1.451  19.500  1.2927 -0.7123 -0.6749
 4368TIP3   OH237298   2.739   5.964  18.141  0.0291  0.4241 -0.2817
 4368TIP3    H137299   2.685   5.886  18.138  1.0125 -0.2855 -0.0286
 4368TIP3    H237300   2.677   6.037  18.132 -0.9319 -0.3626 -0.1719
 4369TIP3   OH237301   5.879   4.507  17.209 -0.5593  0.6274  0.1769
 4369TIP3    H137302   5.953   4.506  17.148 -1.4941 -0.7357 -1.0027
 4369TIP3    H237303   5.861   4.600  17.223  0.5982  0.9744 -0.4756
 4370TIP3   OH237304   1.096   5.343  17.214  0.3456 -0.3182 -0.2277
 4370TIP3    H137305   1.108   5.317  17.305 -2.2352 -1.7193 -0.1925
 4370TIP3    H237306   1.004   5.369  17.208  1.0664  2.2394 -1.9064
 4371TIP3   OH237307   4.556   2.915  19.732 -0.1891  0.3176 -0.1026
 4371TIP3    H137308   4.476   2.901  19.682  0.7834 -1.3229 -1.3103
 4371TIP3    H237309   4.551   3.006  19.761 -1.2155  1.1048 -2.4974
 4372TIP3   OH237310   1.336   0.273  19.720  0.1165 -0.5470  0.2404
 4372TIP3    H137311   1.375   0.306  19.801 -0.4530  0.6267  0.0488
 4372TIP3    H237312   1.259   0.223  19.749 -0.5504  0.5463  0.3954
 4373TIP3   OH237313   3.248   0.002  18.724  0.5334  0.7668  0.3120
 4373TIP3    H137314   3.202   0.082  18.701 -0.1465  0.7189  1.4108
 4373TIP3    H237315   3.228  -0.012  18.817 -0.8245 -1.6054 -0.2543
 4374TIP3   OH237316   5.502   4.608  18.747 -0.2270  0.4388  0.4648
 4374TIP3    H137317   5.448   4.538  18.784  0.4958 -0.1300  0.4740
 4374TIP3    H237318   5.464   4.689  18.781 -1.8932  0.1503 -0.5839
 4375TIP3   OH237319   3.480   6.509  19.215  0.6381  0.2340  0.4110
 4375TIP3    H137320   3.413   6.574  19.234  0.3601 -0.3338  1.4311
 4375TIP3    H237321   3.468   6.441  19.281  1.7079 -0.2685  0.1202
 4376TIP3   OH237322   1.860   2.078  19.794 -0.1172  0.8490  0.2451
 4376TIP3    H137323   1.893   2.016  19.859 -0.1768  0.1611 -0.3672
 4376TIP3    H237324   1.785   2.034  19.755 -0.3263  1.4237 -0.0085
 4377TIP3   OH237325   0.785   3.746  18.237 -0.3991 -0.0375 -0.2405
 4377TIP3    H137326   0.779   3.661  18.279 -0.4872 -0.1802 -0.5429
 4377TIP3    H237327   0.694   3.776  18.229 -0.3456  0.2445  0.1927
 4378TIP3   OH237328   2.665   3.079  18.845 -0.3230  0.0688  0.3986
 4378TIP3    H137329   2.668   3.136  18.768 -2.2965 -0.2295  0.0562
 4378TIP3    H237330   2.605   3.123  18.906  0.9024  0.1078  1.6419
 4379TIP3   OH237331   2.043   2.331  19.449 -0.3864 -0.4519 -0.2959
 4379TIP3    H137332   1.952   2.328  19.418 -0.4247 -1.5107 -0.1121
 4379TIP3    H237333   2.091   2.273  19.390 -0.5808 -3.0500  1.8904
 4380TIP3   OH237334   2.006   2.188  18.179  0.2237 -0.2446  0.6126
 4380TIP3    H137335   2.051   2.251  18.123 -0.9714 -0.4690 -0.6511
 4380TIP3    H237336   1.914   2.197  18.156 -0.4246  0.1865  3.1131
 4381TIP3   OH237337   2.827   3.292  17.790  0.4548  0.1700  0.3347
 4381TIP3    H137338   2.778   3.214  17.815 -2.4594  2.1649  1.5148
 4381TIP3    H237339   2.837   3.285  17.695 -1.8300 -0.6322  0.0820
 4382TIP3   OH237340   5.035   1.344  18.771  0.0362  0.1027 -0.2608
 4382TIP3    H137341   5.029   1.284  18.697 -1.1725 -0.7185  0.4607
 4382TIP3    H237342   4.949   1.388  18.773  0.7908  1.6645 -0.5951
 4383TIP3   OH237343   1.080   1.953  20.370  0.5499  0.6100  0.1173
 4383TIP3    H137344   1.040   2.029  20.328 -1.5944 -0.3092  0.3731
 4383TIP3    H237345   1.092   1.980  20.461  1.0974  1.0971 -0.0927
 4384TIP3   OH237346   0.501   6.490  19.007 -0.5663  0.8268 -0.0908
 4384TIP3    H137347   0.480   6.457  18.920  0.1478 -0.7485  0.3019
 4384TIP3    H237348   0.416   6.515  19.044 -1.2614 -1.2267 -0.1748
 4385TIP3   OH237349   2.104   1.594  19.211  0.0158  0.0429 -0.2275
 4385TIP3    H137350   2.043   1.521  19.223  0.6512 -0.6138 -0.9268
 4385TIP3    H237351   2.119   1.599  19.117 -0.4371  1.4441 -0.2588
 4386TIP3   OH237352   5.497   5.274  19.256  0.1854  0.1613  0.1136
 4386TIP3    H137353   5.472   5.216  19.184 -1.9700  0.1480  0.7953
 4386TIP3    H237354   5.493   5.218  19.334  2.6550  0.1323  0.2973
 4387TIP3   OH237355   3.597   2.273  18.595 -0.0524  0.1203  0.3608
 4387TIP3    H137356   3.649   2.231  18.664  1.2891  0.1615 -0.5913
 4387TIP3    H237357   3.527   2.210  18.576  1.0491 -1.0363 -0.0038
 4388TIP3   OH237358   5.598   5.858  18.561  0.5487  0.4524  0.1861
 4388TIP3    H137359   5.573   5.797  18.491 -1.8698  0.5204  0.9040
 4388TIP3    H237360   5.559   5.941  18.535  2.2462  1.2743  0.1416
 4389TIP3   OH237361   6.151   3.797  16.876  0.1138  0.1203  0.3457
 4389TIP3    H137362   6.161   3.866  16.942 -0.4137 -0.3790  0.9552
 4389TIP3    H237363   6.061   3.767  16.885  0.7582 -1.7579  1.2099
 4390TIP3   OH237364   3.647   2.672  18.491 -0.0047 -0.1603  0.1800
 4390TIP3    H137365   3.628   2.588  18.451  2.0461  0.0602 -1.4191
 4390TIP3    H237366   3.629   2.737  18.422 -0.7472  0.6604  1.1115
 4391TIP3   OH237367   4.628   1.422  17.237  0.3348  0.2208 -0.0652
 4391TIP3    H137368   4.623   1.438  17.142  0.6205  2.8470  0.2812
 4391TIP3    H237369   4.537   1.429  17.266  0.4254  1.1314  0.0429
 4392TIP3   OH237370   4.190   1.062  17.343  0.1592 -0.2603  0.7948
 4392TIP3    H137371   4.230   1.118  17.277 -0.4668 -2.1461 -1.3227
 4392TIP3    H237372   4.096   1.076  17.333  0.0766 -0.0751  1.7653
 4393TIP3   OH237373   5.869   2.050  19.209 -0.1491  0.1472  0.6882
 4393TIP3    H137374   5.888   1.984  19.142 -0.0421  0.8483  0.0175
 4393TIP3    H237375   5.808   2.007  19.268 -0.5491 -0.3576 -0.0767
 4394TIP3   OH237376   2.020   5.572  18.960 -0.3814 -0.1393  0.4257
 4394TIP3    H137377   1.981   5.599  19.043  0.2665 -1.1032  1.0619
 4394TIP3    H237378   2.110   5.603  18.965 -0.5129  0.3761 -0.2123
 4395TIP3   OH237379   3.860   0.242  20.409  0.0529 -0.4678  0.1353
 4395TIP3    H137380   3.829   0.151  20.406 -1.1761 -0.1052  0.9879
 4395TIP3    H237381   3.781   0.294  20.395 -0.4591  0.5714  5.0177
 4396TIP3   OH237382   3.489   0.032  17.742  0.2136 -0.1458  0.1713
 4396TIP3    H137383   3.572   0.032  17.695  0.5475  0.4671  0.7335
 4396TIP3    H237384   3.449   0.116  17.719  0.6052  0.3836  1.3380
 4397TIP3   OH237385   0.908   1.091  17.588 -0.4687  0.3425  0.2868
 4397TIP3    H137386   0.932   1.151  17.658 -0.0006  1.0272 -0.4436
 4397TIP3    H237387   0.812   1.090  17.588 -0.4925  1.4364  0.0280
 4398TIP3   OH237388   4.619   6.594  19.818 -0.1267 -0.6150  0.1024
 4398TIP3    H137389   4.524   6.592  19.821 -0.2129  1.7239  1.4962
 4398TIP3    H237390   4.646   6.584  19.910  0.8608  0.3996 -0.0514
 4399TIP3   OH237391   3.688   4.573  18.201  0.3940 -0.0756  0.2114
 4399TIP3    H137392   3.669   4.484  18.231  1.1777 -1.0786 -2.1249
 4399TIP3    H237393   3.616   4.594  18.141  0.6330  0.5752  0.1444
 4400TIP3   OH237394   3.515   4.615  20.467  0.5017 -0.1443 -0.0236
 4400TIP3    H137395   3.504   4.678  20.538 -0.3623  0.4333 -0.6478
 4400TIP3    H237396   3.601   4.577  20.482  1.8110  2.3863 -0.5451
 4401TIP3   OH237397   4.975   4.098  18.907  0.3001 -0.0719 -0.2589
 4401TIP3    H137398   4.883   4.084  18.888  0.1094 -2.1651  1.7803
 4401TIP3    H237399   5.013   4.011  18.914  2.4267  0.7263 -0.8754
 4402TIP3   OH237400   2.190   6.360  18.125  0.4600 -0.5252  0.4152
 4402TIP3    H137401   2.225   6.442  18.160  3.7220 -1.1325 -0.9891
 4402TIP3    H237402   2.185   6.301  18.201  0.5288  0.2284  1.0128
 4403TIP3   OH237403   2.625   1.345  17.907  0.3410  0.8146 -0.1874
 4403TIP3    H137404   2.608   1.308  17.994 -0.2408  0.1138 -0.5964
 4403TIP3    H237405   2.539   1.357  17.868  0.6392  0.1458 -1.0751
 4404TIP3   OH237406   4.114   3.740  19.734 -0.1201 -0.1659  0.0998
 4404TIP3    H137407   4.113   3.823  19.685  0.1728 -0.7559 -0.9233
 4404TIP3    H237408   4.104   3.672  19.667  0.1151 -0.9838  0.8791
 4405TIP3   OH237409   5.330   3.835  19.745 -0.4009 -0.0357  0.2852
 4405TIP3    H137410   5.254   3.887  19.772 -2.4282 -3.0195  0.8210
 4405TIP3    H237411   5.357   3.874  19.662 -1.2903  2.2617  0.9831
 4406TIP3   OH237412   3.805   0.180  18.825  0.5843  0.0651 -0.4524
 4406TIP3    H137413   3.792   0.098  18.872  1.5941 -0.0407 -0.3404
 4406TIP3    H237414   3.717   0.206  18.798  0.0519 -0.2019  0.9274
 4407TIP3   OH237415   6.490   6.716  18.314 -0.0049 -0.7229 -0.0345
 4407TIP3    H137416   6.527   6.725  18.226  1.0337 -0.3596  0.4193
 4407TIP3    H237417   6.495   6.623  18.333 -3.0122 -1.2940 -1.4892
 4408TIP3   OH237418   2.675   1.869  18.042 -0.8482 -0.1834 -0.2774
 4408TIP3    H137419   2.727   1.869  18.122  0.2123 -1.2747 -0.9361
 4408TIP3    H237420   2.735   1.901  17.975 -1.5154  0.0349 -0.7797
 4409TIP3   OH237421   5.542   1.796  17.101 -0.4236 -0.4792  0.3573
 4409TIP3    H137422   5.546   1.882  17.141 -0.6008  0.4895 -1.5675
 4409TIP3    H237423   5.523   1.814  17.009  0.0377 -2.5610 -0.1893
 4410TIP3   OH237424   5.873   5.003  18.360 -0.0178  0.3205  0.6352
 4410TIP3    H137425   5.865   4.908  18.356 -0.6058  0.3661  0.6541
 4410TIP3    H237426   5.960   5.021  18.327  0.0933 -0.2255  0.6225
 4411TIP3   OH237427   1.537   4.443  18.862  0.3929  0.3023 -0.3559
 4411TIP3    H137428   1.464   4.391  18.829  0.2712 -0.3952  0.9634
 4411TIP3    H237429   1.518   4.532  18.833  0.0942 -0.2039 -1.7872
 4412TIP3   OH237430   2.761   5.450  18.116  0.0648 -0.1815  0.1386
 4412TIP3    H137431   2.829   5.383  18.114 -0.0968 -0.3917  1.0389
 4412TIP3    H237432   2.769   5.489  18.204 -0.5121  0.2722 -0.0055
 4413TIP3   OH237433   5.421   2.355  18.389 -0.4233 -0.4348  1.0246
 4413TIP3    H137434   5.484   2.427  18.388 -1.2883  0.4093 -1.0956
 4413TIP3    H237435   5.337   2.397  18.411 -1.0268 -0.6451 -0.7046
 4414TIP3   OH237436   1.073   2.819  18.281 -0.4402 -0.5029  0.2229
 4414TIP3    H137437   1.168   2.821  18.280 -0.4242 -0.8890 -1.1390
 4414TIP3    H237438   1.050   2.730  18.253 -1.1975 -0.2828  0.1056
 4415TIP3   OH237439   5.198   3.269  20.065  0.1586 -0.3085  0.1456
 4415TIP3    H137440   5.211   3.210  19.990  0.2941  1.4925 -1.3307
 4415TIP3    H237441   5.255   3.343  20.046 -0.2073  0.4219  1.8016
 4416TIP3   OH237442   2.131   2.890  17.988 -0.2685 -0.1313 -0.7104
 4416TIP3    H137443   2.159   2.913  18.076 -0.0803  3.2670 -1.5007
 4416TIP3    H237444   2.178   2.810  17.967  1.4151  0.2048  1.4536
 4417TIP3   OH237445   2.387   1.742  18.799  0.0368  0.6990 -0.5030
 4417TIP3    H137446   2.428   1.662  18.768 -0.7482 -0.1432  0.5640
 4417TIP3    H237447   2.457   1.807  18.797  1.2561 -0.5218  0.5603
 4418TIP3   OH237448   4.846   5.945  19.941 -0.3198 -0.0509 -0.1811
 4418TIP3    H137449   4.756   5.914  19.945 -0.8844  1.6176  1.4859
 4418TIP3    H237450   4.881   5.906  19.861 -1.7357 -2.6852  0.3761
 4419TIP3   OH237451   1.011   0.806  18.524 -0.5129 -0.2783 -0.0406
 4419TIP3    H137452   1.043   0.717  18.518 -0.2477 -0.0872 -1.8474
 4419TIP3    H237453   1.065   0.856  18.463 -0.6192  1.1390  0.9711
 4420TIP3   OH237454   1.103   3.901  20.570  0.0873 -0.0038 -0.2872
 4420TIP3    H137455   1.089   3.929  20.660 -1.6194 -0.6213 -0.3213
 4420TIP3    H237456   1.188   3.857  20.571  1.4075  2.3575  0.4025
 4421TIP3   OH237457   6.523   3.587  20.034 -0.0896  0.5218 -0.1586
 4421TIP3    H137458   6.442   3.550  20.069 -0.2900  0.2396 -0.9103
 4421TIP3    H237459   6.520   3.679  20.058 -0.9664  0.6661 -0.7852
 4422TIP3   OH237460   2.748   4.624  19.220 -0.0833  0.0011  0.1249
 4422TIP3    H137461   2.766   4.700  19.166 -1.1006 -0.9635 -1.6692
 4422TIP3    H237462   2.657   4.634  19.246 -0.6089 -1.1388 -1.1389
 4423TIP3   OH237463   5.876   2.087  20.043 -1.0279  0.0062  0.5098
 4423TIP3    H137464   5.818   2.163  20.036 -2.1071 -0.9481 -2.4928
 4423TIP3    H237465   5.843   2.025  19.978  2.2352 -1.3822 -0.0503
 4424TIP3   OH237466   4.692   6.271  18.337 -0.3194  0.3757 -0.3612
 4424TIP3    H137467   4.694   6.333  18.264  0.1585  1.0215  0.1789
 4424TIP3    H237468   4.696   6.327  18.415 -0.1000 -0.3306  0.1422
 4425TIP3   OH237469   5.487   3.801  20.096 -0.1871 -0.2989  0.1468
 4425TIP3    H137470   5.447   3.756  20.171 -1.9813 -1.3430 -1.3638
 4425TIP3    H237471   5.413   3.826  20.041  1.0511  1.1035 -0.9529
 4426TIP3   OH237472   3.767   4.857  19.151  0.1024  0.1594  0.3625
 4426TIP3    H137473   3.851   4.896  19.125  0.8945 -0.0753  2.3427
 4426TIP3    H237474   3.779   4.763  19.138  0.0872  0.1386  0.5003
 4427TIP3   OH237475   6.003   3.050  17.550 -0.3335  0.3484 -0.4720
 4427TIP3    H137476   6.051   3.043  17.468 -0.0913  2.1567 -0.5188
 4427TIP3    H237477   6.067   3.026  17.617  0.3666  1.7184 -0.6153
 4428TIP3   OH237478   1.141   1.155  19.185  0.1667 -0.1631 -0.2279
 4428TIP3    H137479   1.107   1.108  19.262  0.2369 -1.1421 -0.7824
 4428TIP3    H237480   1.068   1.154  19.123  0.5338 -0.4937 -0.6558
 4429TIP3   OH237481   4.850   0.871  18.294  0.3022 -0.9917  0.1441
 4429TIP3    H137482   4.934   0.898  18.256 -0.0019 -1.5655 -0.9651
 4429TIP3    H237483   4.785   0.919  18.244 -0.1579 -2.4574 -0.6990
 4430TIP3   OH237484   2.564   6.622  19.312 -0.1609  0.4854 -0.9233
 4430TIP3    H137485   2.480   6.605  19.356 -1.1948  0.4932 -2.8135
 4430TIP3    H237486   2.617   6.665  19.379 -1.7131  0.6327  0.2753
 4431TIP3   OH237487   6.003   1.746  16.736 -0.1357 -0.8071 -0.2799
 4431TIP3    H137488   6.074   1.688  16.762  0.0236 -0.3822  0.2361
 4431TIP3    H237489   6.038   1.793  16.659 -0.6135 -2.0657 -1.2912
 4432TIP3   OH237490   0.552   4.893  20.319  0.7491  0.0954 -0.7764
 4432TIP3    H137491   0.570   4.957  20.251 -0.9587  0.8611 -0.5641
 4432TIP3    H237492   0.506   4.942  20.387  1.9359 -0.7671  0.6999
 4433TIP3   OH237493   3.041   3.857  18.986 -0.3296 -0.3408 -0.4660
 4433TIP3    H137494   2.955   3.858  18.943 -0.2150 -0.6249 -0.7045
 4433TIP3    H237495   3.033   3.791  19.054 -0.1633 -0.6819 -0.7758
 4434TIP3   OH237496   2.464   3.889  19.168  0.2390 -0.6784  0.0369
 4434TIP3    H137497   2.392   3.897  19.231  0.2259 -1.2795  0.0964
 4434TIP3    H237498   2.422   3.905  19.083  0.2846  0.2897  0.1766
 4435TIP3   OH237499   5.468   3.862  17.274 -0.1365 -0.1126 -0.2186
 4435TIP3    H137500   5.483   3.951  17.305 -1.4136  0.0221  0.0570
 4435TIP3    H237501   5.466   3.809  17.353 -1.9619  0.0175 -0.1396
 4436TIP3   OH237502   1.643   5.270  19.165 -0.7885  0.1223  0.1079
 4436TIP3    H137503   1.605   5.310  19.243  0.0217  2.8119 -0.7629
 4436TIP3    H237504   1.572   5.273  19.100 -0.5873  0.6966 -0.0998
 4437TIP3   OH237505   2.042   0.404  20.071 -0.2165 -0.2457 -0.1760
 4437TIP3    H137506   1.984   0.354  20.128 -1.1547  1.2819  0.2613
 4437TIP3    H237507   2.066   0.343  20.001 -0.6243 -1.5467  0.7915
 4438TIP3   OH237508   3.134   4.648  17.213  0.0637 -0.0770 -0.3427
 4438TIP3    H137509   3.085   4.683  17.139 -2.1590 -1.1894  0.5022
 4438TIP3    H237510   3.135   4.553  17.199  1.7477 -0.1324 -0.1440
 4439TIP3   OH237511   6.337   3.404  19.282  0.3722  0.0570  0.1764
 4439TIP3    H137512   6.306   3.369  19.199 -1.1520  1.5557  0.0551
 4439TIP3    H237513   6.409   3.346  19.307  0.1730 -1.0620 -1.6399
 4440TIP3   OH237514   5.053   4.209  17.773 -0.0565 -0.2369  0.2007
 4440TIP3    H137515   5.128   4.224  17.831 -0.2649  0.4392  0.2962
 4440TIP3    H237516   5.057   4.115  17.753  1.7503  0.0571 -1.0636
 4441TIP3   OH237517   1.296   5.126  17.437  0.2912 -0.3670 -0.1213
 4441TIP3    H137518   1.257   5.209  17.464  3.4893  0.7775  1.5634
 4441TIP3    H237519   1.239   5.094  17.366 -2.4291  1.9774  0.8108
 4442TIP3   OH237520   3.014   6.395  17.380  0.2902  0.0820  0.0698
 4442TIP3    H137521   3.045   6.325  17.437 -0.4749 -0.5084 -0.2287
 4442TIP3    H237522   3.027   6.362  17.291  0.4008  0.5305 -0.0874
 4443TIP3   OH237523   1.080   5.830  18.592 -0.5574  0.3663 -0.2579
 4443TIP3    H137524   1.096   5.924  18.599 -0.4386  0.3575 -0.4055
 4443TIP3    H237525   1.047   5.805  18.678 -0.4287  0.5126 -0.1639
 4444TIP3   OH237526   5.252   1.770  18.770 -0.3832 -0.4956 -0.0432
 4444TIP3    H137527   5.278   1.833  18.703  2.8393  1.2975  2.5740
 4444TIP3    H237528   5.191   1.818  18.826  0.0583 -0.5766  0.5158
 4445TIP3   OH237529   0.662   4.713  19.438 -0.2976 -0.4831 -0.3228
 4445TIP3    H137530   0.692   4.662  19.364 -1.7175 -0.7095 -0.7651
 4445TIP3    H237531   0.708   4.797  19.429 -2.6213  0.6451 -3.2076
 4446TIP3   OH237532   1.673   1.685  18.937  0.0961 -0.0525 -0.4785
 4446TIP3    H137533   1.710   1.599  18.955  1.5020  0.7869  0.9036
 4446TIP3    H237534   1.588   1.685  18.982  0.8551 -0.1510  1.0153
 4447TIP3   OH237535   4.052   1.453  20.086 -0.1561 -0.2018 -0.2526
 4447TIP3    H137536   4.147   1.446  20.077 -0.2778 -2.7540 -0.4678
 4447TIP3    H237537   4.031   1.401  20.163 -1.3652  0.7727  0.1120
 4448TIP3   OH237538   4.537   1.709  18.203  0.0352  0.1566 -0.2266
 4448TIP3    H137539   4.620   1.664  18.191 -0.2762 -0.1370 -1.3955
 4448TIP3    H237540   4.514   1.742  18.116 -0.9351  0.4700  0.1272
 4449TIP3   OH237541   5.912   2.577  18.209 -0.2970  0.3537 -0.2347
 4449TIP3    H137542   5.919   2.498  18.263 -1.0596  0.5173  0.1103
 4449TIP3    H237543   5.961   2.643  18.257 -0.8036  0.4460  0.1599
 4450TIP3   OH237544   5.627   5.468  18.743  0.0411  0.1234  0.3850
 4450TIP3    H137545   5.635   5.415  18.822 -0.2491 -0.5088 -0.0016
 4450TIP3    H237546   5.670   5.417  18.675 -0.7761  0.0917 -0.1209
 4451TIP3   OH237547   1.405   5.230  19.333 -0.4767 -0.0009 -0.0233
 4451TIP3    H137548   1.465   5.252  19.405 -1.2368  0.0767  0.6009
 4451TIP3    H237549   1.413   5.304  19.273 -1.0309  0.7356  0.7792
 4452TIP3   OH237550   5.702   3.700  17.927 -0.0770  0.6507 -0.1246
 4452TIP3    H137551   5.654   3.631  17.973 -0.1208 -0.2968 -1.5380
 4452TIP3    H237552   5.773   3.723  17.987 -0.3992 -0.2211  0.6203
 4453TIP3   OH237553   1.408   4.977  18.579 -0.0764  0.1064 -0.7256
 4453TIP3    H137554   1.468   5.006  18.648 -2.8114 -0.3305  2.0510
 4453TIP3    H237555   1.364   5.056  18.550  0.3840  0.1488 -1.3516
 4454TIP3   OH237556   1.994   1.589  19.975 -0.4604  0.9309  0.1735
 4454TIP3    H137557   1.961   1.678  19.969 -1.7920  0.6874  2.8076
 4454TIP3    H237558   1.920   1.537  20.005  0.4903 -0.9513 -0.5497
 4455TIP3   OH237559   2.101   3.604  18.608  0.2652 -0.1678 -0.1172
 4455TIP3    H137560   2.065   3.656  18.537  0.5750 -0.7744 -0.7357
 4455TIP3    H237561   2.073   3.649  18.688  1.0317  1.2751 -0.6302
 4456TIP3   OH237562   0.423   4.189  17.096  0.2024 -0.5165 -0.2019
 4456TIP3    H137563   0.420   4.249  17.170 -0.3159 -2.6366  1.6036
 4456TIP3    H237564   0.361   4.225  17.033  0.5967  1.3109  0.3966
 4457TIP3   OH237565   3.724   1.106  20.078  0.4386  1.2485 -0.1236
 4457TIP3    H137566   3.663   1.176  20.100 -3.4157 -1.2642 -1.7909
 4457TIP3    H237567   3.735   1.113  19.983  0.9085  0.2761 -0.1498
 4458TIP3   OH237568   0.191   1.006  17.754 -0.1359  0.5468 -0.6754
 4458TIP3    H137569   0.165   0.986  17.664  1.6020  2.6224 -1.7071
 4458TIP3    H237570   0.258   1.073  17.746  2.5120 -1.5058  2.0222
 4459TIP3   OH237571   4.937   1.176  18.298 -0.0107 -0.1126  0.5071
 4459TIP3    H137572   4.992   1.113  18.250 -0.2243 -0.6576  0.9617
 4459TIP3    H237573   4.856   1.180  18.248 -0.7922 -1.7635  1.5389
 4460TIP3   OH237574   4.930   2.777  17.741  0.4576  0.1753 -0.2456
 4460TIP3    H137575   4.993   2.762  17.811 -0.3967 -1.7318  0.1999
 4460TIP3    H237576   4.974   2.747  17.662 -0.1438 -2.0970  0.2029
 4461TIP3   OH237577   6.601   0.863  19.452  0.2962  0.1191 -0.6336
 4461TIP3    H137578   6.583   0.957  19.460  0.0093 -0.0263  0.8772
 4461TIP3    H237579   6.522   0.827  19.412 -0.0158  0.4036 -0.2876
 4462TIP3   OH237580   6.321   2.514  19.758 -0.1817  0.1839  0.2316
 4462TIP3    H137581   6.250   2.561  19.801 -2.2745 -1.1256 -1.5331
 4462TIP3    H237582   6.381   2.582  19.728 -1.6810  1.5258  0.1536
 4463TIP3   OH237583   1.195   4.643  19.309 -0.1419  0.0842 -0.3372
 4463TIP3    H137584   1.110   4.645  19.352 -0.7424 -1.0539 -1.4254
 4463TIP3    H237585   1.189   4.709  19.240 -0.3856 -0.4415 -0.8282
 4464TIP3   OH237586   2.262   3.819  17.965  0.3457 -0.2445 -0.7555
 4464TIP3    H137587   2.308   3.826  18.049 -0.4862  1.4757 -0.3987
 4464TIP3    H237588   2.171   3.839  17.986  0.2780  1.1658 -2.1999
 4465TIP3   OH237589   1.672   4.218  19.014 -0.2728 -0.3138 -0.3664
 4465TIP3    H137590   1.612   4.273  18.963 -0.2670  0.8281  0.8196
 4465TIP3    H237591   1.712   4.278  19.077  0.5168 -1.4869  0.2773
 4466TIP3   OH237592   6.099   4.623  18.798  0.0081  0.5507 -0.1893
 4466TIP3    H137593   6.163   4.557  18.773  0.3108  1.2225 -1.2551
 4466TIP3    H237594   6.014   4.585  18.773  0.1461  0.4115 -0.4420
 4467TIP3   OH237595   1.376   3.263  19.917 -0.4073 -0.1865  0.4193
 4467TIP3    H137596   1.371   3.219  19.832  0.3553  0.5685 -0.0327
 4467TIP3    H237597   1.463   3.304  19.918 -0.8367  0.7558  1.0917
 4468TIP3   OH237598   5.252   5.224  18.234  0.4407 -0.5433 -0.3540
 4468TIP3    H137599   5.248   5.233  18.139 -1.0264 -0.2083 -0.2767
 4468TIP3    H237600   5.294   5.305  18.265  2.2507 -1.2657 -0.7799
 4469TIP3   OH237601   5.340   5.602  18.010 -0.3455 -0.0369  0.6365
 4469TIP3    H137602   5.351   5.685  17.962 -0.7056 -0.7151 -0.6743
 4469TIP3    H237603   5.246   5.596  18.025 -0.3108 -0.1809  0.7929
 4470TIP3   OH237604   0.225   3.675  20.090  0.0560  0.2026  0.3281
 4470TIP3    H137605   0.250   3.627  20.012 -0.5303  0.2204  0.1185
 4470TIP3    H237606   0.276   3.756  20.087  1.7845 -0.8124  1.1968
 4471TIP3   OH237607   2.679   2.624  19.685 -0.0173  0.4916  0.3965
 4471TIP3    H137608   2.606   2.564  19.674  0.2055 -0.0436  1.7244
 4471TIP3    H237609   2.684   2.640  19.779  1.9978 -0.0440  0.4353
 4472TIP3   OH237610   3.309   2.915  18.820  0.6480 -0.1646  0.3377
 4472TIP3    H137611   3.359   2.992  18.847 -0.0355  0.6784 -0.7046
 4472TIP3    H237612   3.375   2.849  18.799  1.3722  0.9784 -1.1761
 4473TIP3   OH237613   2.266   0.234  18.590  0.5051  0.1757  0.9347
 4473TIP3    H137614   2.239   0.143  18.580 -1.0105  0.6327  0.5851
 4473TIP3    H237615   2.246   0.255  18.681  0.1167  0.3813  0.8035
 4474TIP3   OH237616   3.643   0.299  17.602  0.5569  0.3136 -0.4442
 4474TIP3    H137617   3.624   0.210  17.572  0.4182 -0.2089  1.1106
 4474TIP3    H237618   3.567   0.350  17.575 -0.9781 -0.7741  1.6087
 4475TIP3   OH237619   4.377   0.532  18.745  0.0018 -0.6920 -0.2482
 4475TIP3    H137620   4.336   0.525  18.831  0.2968  0.2184 -0.0247
 4475TIP3    H237621   4.436   0.457  18.740 -0.8051 -1.3451 -0.0970
 4476TIP3   OH237622   5.725   5.572  16.551  0.1075  0.3810  0.5343
 4476TIP3    H137623   5.769   5.486  16.555 -0.5793 -0.0407 -0.5158
 4476TIP3    H237624   5.652   5.564  16.612 -1.4231 -0.6932 -1.3267
 4477TIP3   OH237625   6.333   4.831  20.260  0.3464 -0.6582 -0.7075
 4477TIP3    H137626   6.342   4.924  20.240  0.1821 -0.5424 -0.2627
 4477TIP3    H237627   6.372   4.821  20.347 -1.5381 -0.5809  0.2048
 4478TIP3   OH237628   4.666   2.406  18.541  0.1765  0.3938 -0.2094
 4478TIP3    H137629   4.585   2.368  18.507 -0.3492  1.8900 -0.7307
 4478TIP3    H237630   4.669   2.494  18.502  1.7177  0.6023  0.3292
 4479TIP3   OH237631   5.844   5.297  17.811  0.2199 -0.1210  0.1352
 4479TIP3    H137632   5.859   5.345  17.730  0.2482 -1.4850 -0.6792
 4479TIP3    H237633   5.785   5.354  17.861  0.3708  0.8319 -0.7339
 4480TIP3   OH237634   5.428   4.212  20.085  0.0650 -0.7964  0.0338
 4480TIP3    H137635   5.423   4.273  20.158 -2.0827  0.3440 -0.9979
 4480TIP3    H237636   5.345   4.164  20.087  0.7072 -2.0030 -0.6265
 4481TIP3   OH237637   3.092   1.910  19.210 -0.1121 -0.1501  0.1585
 4481TIP3    H137638   3.090   1.884  19.118  1.2035 -1.5214  0.4776
 4481TIP3    H237639   3.143   1.991  19.210 -0.3182 -0.0167 -0.3409
 4482TIP3   OH237640   4.858   1.378  17.982 -0.1887  0.3410  0.1969
 4482TIP3    H137641   4.796   1.309  17.961  0.5553  0.2660 -2.0039
 4482TIP3    H237642   4.944   1.336  17.976  0.2554  1.3365 -0.8314
 4483TIP3   OH237643   6.083   4.189  19.086 -0.1953 -0.1075  0.1410
 4483TIP3    H137644   6.101   4.238  19.166  1.4700 -2.0997  1.0903
 4483TIP3    H237645   6.037   4.110  19.115  0.2179 -0.7587 -0.8778
 4484TIP3   OH237646   6.572   4.858  18.149  0.8959  0.2755 -0.2464
 4484TIP3    H137647   6.619   4.774  18.152 -1.1813 -0.9702  2.9840
 4484TIP3    H237648   6.630   4.920  18.191  1.3813 -0.2079 -0.1976
 4485TIP3   OH237649   4.520   1.802  17.951 -0.4546  0.3358  0.1828
 4485TIP3    H137650   4.608   1.812  17.914 -0.5175 -1.7602 -0.6550
 4485TIP3    H237651   4.474   1.882  17.925  0.1227 -0.1350 -2.5740
 4486TIP3   OH237652   4.504   1.319  17.520 -0.0825  0.0666  0.5251
 4486TIP3    H137653   4.531   1.409  17.499 -0.0871  0.0977  0.6515
 4486TIP3    H237654   4.578   1.265  17.492 -1.2085 -0.2038 -2.3079
 4487TIP3   OH237655   5.438   0.611  16.570 -0.5458 -0.3005 -0.2781
 4487TIP3    H137656   5.441   0.694  16.618  1.6844 -0.5802  0.1712
 4487TIP3    H237657   5.359   0.617  16.517 -1.0142  1.6497  0.5464
 4488TIP3   OH237658   2.335   2.150  19.113  0.1758 -0.2756  0.4644
 4488TIP3    H137659   2.424   2.116  19.102  0.3480  0.1070  0.6848
 4488TIP3    H237660   2.344   2.245  19.108  0.2682 -0.0121  3.7233
 4489TIP3   OH237661   1.999   3.870  17.735  0.6697  0.2931 -0.3760
 4489TIP3    H137662   1.951   3.857  17.817  1.1163 -0.8129 -0.2689
 4489TIP3    H237663   2.054   3.947  17.750  1.0200 -0.1174  0.4939
 4490TIP3   OH237664   4.602   3.629  18.263  0.0331 -0.0901  0.3097
 4490TIP3    H137665   4.690   3.609  18.231  1.0532 -0.1175  2.9118
 4490TIP3    H237666   4.571   3.546  18.300 -0.1660  0.4701  1.4220
 4491TIP3   OH237667   3.498   4.039  19.586  0.0316  0.7684 -0.6052
 4491TIP3    H137668   3.478   4.125  19.548  0.6093  0.2800 -2.1065
 4491TIP3    H237669   3.569   4.006  19.531 -1.2875 -1.3845 -1.1136
 4492TIP3   OH237670   5.730   4.539  20.336  0.1868  0.1873 -0.2037
 4492TIP3    H137671   5.749   4.564  20.246  0.9563 -1.2391 -0.4618
 4492TIP3    H237672   5.782   4.599  20.389  2.3926 -1.0708 -0.8173
 4493TIP3   OH237673   4.558   0.338  16.619 -0.1570 -0.0466  0.8509
 4493TIP3    H137674   4.504   0.274  16.573  0.0798  0.9703 -0.9376
 4493TIP3    H237675   4.587   0.292  16.698 -0.7353 -1.8170  0.0975
 4494TIP3   OH237676   3.736   3.466  18.186 -0.0393  0.5349 -0.4917
 4494TIP3    H137677   3.673   3.436  18.252 -0.8287 -0.8508 -1.8026
 4494TIP3    H237678   3.683   3.479  18.108  1.1458  0.3881 -1.3342
 4495TIP3   OH237679   3.151   5.829  16.759 -0.6314 -0.6883 -0.0501
 4495TIP3    H137680   3.085   5.899  16.764 -1.1662 -1.2503  1.1104
 4495TIP3    H237681   3.109   5.761  16.706  0.6540  0.6065 -2.9774
 4496TIP3   OH237682   4.721   1.165  19.877  0.4546 -0.5709  0.0875
 4496TIP3    H137683   4.736   1.240  19.819 -0.8892 -0.2930  0.0589
 4496TIP3    H237684   4.633   1.180  19.913 -0.2292 -2.5841 -0.6045
 4497TIP3   OH237685   0.964   6.522  19.088 -0.6533 -0.4646 -0.2642
 4497TIP3    H137686   1.050   6.487  19.109 -0.3322  0.8134  0.6962
 4497TIP3    H237687   0.979   6.579  19.013 -0.0924  1.7561  1.4009
 4498TIP3   OH237688   0.772   5.840  18.372 -0.4353 -0.4747 -0.0160
 4498TIP3    H137689   0.817   5.893  18.438  0.8837 -1.3161 -0.1899
 4498TIP3    H237690   0.699   5.894  18.343  0.4169  0.9262  0.3566
 4499TIP3   OH237691   3.042   5.078  17.983 -0.2010  0.1639  0.0093
 4499TIP3    H137692   3.003   5.130  17.912 -2.4647 -0.4918  0.6801
 4499TIP3    H237693   3.012   5.120  18.063 -1.0880 -1.4220  0.5581
 4500TIP3   OH237694   1.848   4.583  16.841 -0.0337  0.4784  0.3235
 4500TIP3    H137695   1.804   4.668  16.839 -1.2567 -0.1383  0.0357
 4500TIP3    H237696   1.780   4.521  16.868  0.8974 -0.3798  0.7811
 4501TIP3   OH237697   1.177   6.641  19.433  0.0999  0.0917  0.0554
 4501TIP3    H137698   1.084   6.639  19.456 -0.2270 -1.0845 -1.1854
 4501TIP3    H237699   1.181   6.695  19.354  0.3330 -0.5516 -0.3800
 4502TIP3   OH237700   4.484   5.133  20.599 -0.0903  0.0939  0.0158
 4502TIP3    H137701   4.441   5.057  20.559 -2.2433  1.3661 -0.2475
 4502TIP3    H237702   4.571   5.102  20.622  0.5833 -1.3457 -3.7564
 4503TIP3   OH237703   5.650   6.423  17.153  0.2913  0.0138 -0.0737
 4503TIP3    H137704   5.707   6.461  17.087  0.3354 -0.6133 -0.3974
 4503TIP3    H237705   5.594   6.496  17.181  0.9014  0.5061 -0.1197
 4504TIP3   OH237706   5.963   0.123  18.816 -0.0683 -0.0799 -0.0971
 4504TIP3    H137707   6.029   0.053  18.816  0.8900  0.8053  0.5362
 4504TIP3    H237708   5.996   0.187  18.879 -1.7823  0.1623  0.5986
 4505TIP3   OH237709   5.255   4.162  20.453  0.1010  0.5163 -0.0892
 4505TIP3    H137710   5.181   4.107  20.481 -0.6557  0.2453 -2.3712
 4505TIP3    H237711   5.227   4.251  20.475  0.7581  0.1848  2.4135
 4506TIP3   OH237712   5.301   5.199  18.752 -0.2588 -0.0440 -0.1286
 4506TIP3    H137713   5.242   5.249  18.808 -0.8614 -0.4655 -0.3828
 4506TIP3    H237714   5.322   5.259  18.680  0.1876  0.3501  0.3180
 4507TIP3   OH237715   3.434   5.514  17.670  0.4344 -0.5416  0.3499
 4507TIP3    H137716   3.359   5.541  17.619  1.1677 -0.8862 -0.9544
 4507TIP3    H237717   3.436   5.418  17.661  0.7840 -0.5735  0.7220
 4508TIP3   OH237718   0.784   5.235  17.188  0.7720  0.4139  0.1421
 4508TIP3    H137719   0.804   5.240  17.095 -0.1357  1.0349 -0.0224
 4508TIP3    H237720   0.784   5.141  17.207 -1.6136  0.0960 -1.0723
 4509TIP3   OH237721   0.399   0.560  18.476 -0.0246  0.4046  0.1536
 4509TIP3    H137722   0.408   0.604  18.560  0.2394 -1.4423  1.1601
 4509TIP3    H237723   0.486   0.564  18.436  1.0977 -2.3846  1.9830
 4510TIP3   OH237724   4.736   6.253  17.986  0.1007  0.0477  0.0431
 4510TIP3    H137725   4.659   6.228  18.037 -0.2845  1.1720  0.0608
 4510TIP3    H237726   4.776   6.171  17.960 -0.7108 -0.5538  0.6406
 4511TIP3   OH237727   3.547   6.678  20.090  0.1943 -0.4068 -0.0775
 4511TIP3    H137728   3.550   6.765  20.129 -1.5663  0.0983 -0.9848
 4511TIP3    H237729   3.635   6.642  20.105  0.7958  1.3071  0.7509
 4512TIP3   OH237730   3.559   3.616  20.128  0.1207  0.4188  0.0734
 4512TIP3    H137731   3.598   3.669  20.197  0.4374  1.3773 -0.8197
 4512TIP3    H237732   3.517   3.678  20.069 -1.4316 -0.4866  0.1564
 4513TIP3   OH237733   2.943   2.444  18.984  0.6013 -1.0919 -0.4529
 4513TIP3    H137734   2.965   2.534  19.007 -1.8683 -0.8120  1.3511
 4513TIP3    H237735   2.983   2.391  19.054 -1.5814 -0.8650  1.0870
 4514TIP3   OH237736   4.612   4.950  19.508  0.0610 -0.1205  0.1195
 4514TIP3    H137737   4.582   5.021  19.451 -0.8983 -0.3223  0.3636
 4514TIP3    H237738   4.699   4.929  19.475  0.6232  1.5703  0.3940
 4515TIP3   OH237739   3.118   5.932  20.424  0.6888 -0.0938  0.5135
 4515TIP3    H137740   3.211   5.929  20.449  0.0532  0.3541  3.1839
 4515TIP3    H237741   3.097   6.026  20.421 -0.1736 -0.2000  2.1631
 4516TIP3   OH237742   0.326   6.579  20.273 -0.6753 -0.0396  0.4527
 4516TIP3    H137743   0.305   6.668  20.300  0.2000  0.7943 -1.4429
 4516TIP3    H237744   0.422   6.575  20.276 -0.6883 -0.7544  0.0315
 4517TIP3   OH237745   4.124   1.615  16.643  0.5839  0.3215  0.0740
 4517TIP3    H137746   4.037   1.590  16.612  0.1759  1.3367  0.3580
 4517TIP3    H237747   4.177   1.620  16.564  0.6062 -1.0922 -0.0239
 4518TIP3   OH237748   5.555   5.632  19.049 -0.4946  0.2569  0.2213
 4518TIP3    H137749   5.596   5.664  18.968  0.5540 -2.0041 -0.2160
 4518TIP3    H237750   5.471   5.597  19.020 -0.3482 -0.0706  0.1887
 4519TIP3   OH237751   2.440   1.750  18.019  0.2009 -0.0277 -0.2734
 4519TIP3    H137752   2.526   1.789  18.034  0.2065  0.3247 -1.2219
 4519TIP3    H237753   2.455   1.682  17.954 -0.2002 -0.1342 -0.2588
 4520TIP3   OH237754   3.455   4.610  19.347  0.0856 -0.2540  0.3940
 4520TIP3    H137755   3.513   4.536  19.366 -0.5340 -1.3218 -1.5314
 4520TIP3    H237756   3.394   4.613  19.420  1.5275 -0.1364  1.6483
 4521TIP3   OH237757   0.256   4.380  19.929  0.1608  0.0294 -0.0555
 4521TIP3    H137758   0.282   4.397  20.020  1.5353  0.5570 -0.5229
 4521TIP3    H237759   0.330   4.411  19.877  0.0045 -1.5651 -1.3018
 4522TIP3   OH237760   1.568   3.668  20.045  0.0280  0.7047  0.3539
 4522TIP3    H137761   1.628   3.626  20.108  1.3280 -0.3249 -1.4869
 4522TIP3    H237762   1.618   3.672  19.964 -2.3573 -0.0857 -1.2514
 4523TIP3   OH237763   2.958   5.362  17.473 -0.4214  1.1013  0.6341
 4523TIP3    H137764   3.048   5.330  17.471 -1.7234 -3.2529  1.0332
 4523TIP3    H237765   2.922   5.338  17.388 -2.0797 -0.5407  1.7293
 4524TIP3   OH237766   5.494   2.009  19.845  0.5182 -0.3241  0.4281
 4524TIP3    H137767   5.486   2.067  19.769  1.9988  1.1630  1.3342
 4524TIP3    H237768   5.588   1.993  19.853  0.3689 -0.5568  1.8753
 4525TIP3   OH237769   2.983   3.578  18.151 -0.3136 -0.4890 -0.2587
 4525TIP3    H137770   2.924   3.591  18.225 -0.5183 -2.7671  0.0344
 4525TIP3    H237771   2.925   3.559  18.077 -0.3644  4.5863 -1.9545
 4526TIP3   OH237772   1.925   6.114  18.679 -0.1355 -0.0008  0.2494
 4526TIP3    H137773   1.906   6.106  18.772 -0.1553 -1.3008  0.1567
 4526TIP3    H237774   1.929   6.023  18.648  3.7738  0.1941 -0.2252
 4527TIP3   OH237775   0.228   2.799  18.455  0.0062 -0.1412 -0.3808
 4527TIP3    H137776   0.244   2.893  18.465  0.3741 -0.1684 -0.6883
 4527TIP3    H237777   0.198   2.770  18.541 -0.2044  0.2763 -0.3134
 4528TIP3   OH237778   4.598   4.272  18.306 -0.2002  0.6265 -0.3897
 4528TIP3    H137779   4.556   4.343  18.355 -1.0301 -0.5694  0.6813
 4528TIP3    H237780   4.675   4.249  18.358 -1.0339 -0.5855  0.3390
 4529TIP3   OH237781   2.195   0.388  17.298  0.3175 -0.0448  0.0200
 4529TIP3    H137782   2.276   0.427  17.332  1.0551 -1.3318 -0.1550
 4529TIP3    H237783   2.171   0.323  17.364 -0.9373  0.7318  0.3645
 4530TIP3   OH237784   3.961   5.274  20.626  0.2380 -0.4594  0.2109
 4530TIP3    H137785   4.043   5.268  20.577 -0.4852 -0.1113 -1.0899
 4530TIP3    H237786   3.953   5.190  20.670  0.4456 -1.1473 -1.0360
 4531TIP3   OH237787   1.635   4.660  16.655 -0.2877 -0.2999  0.2170
 4531TIP3    H137788   1.643   4.612  16.572 -0.7027 -0.2817  0.1642
 4531TIP3    H237789   1.619   4.750  16.630 -0.1632 -0.2486  0.3200
 4532TIP3   OH237790   3.374   6.083  16.988 -0.3691 -0.4204  0.0207
 4532TIP3    H137791   3.452   6.108  16.938  0.0010 -1.2468  0.1616
 4532TIP3    H237792   3.302   6.097  16.927 -0.3273  1.8805  0.3957
 4533TIP3   OH237793   6.067   5.344  20.605  0.0850  0.1795  0.4787
 4533TIP3    H137794   6.096   5.332  20.696 -0.9080 -1.2455  0.6387
 4533TIP3    H237795   6.136   5.304  20.552 -0.3081 -0.8880  0.7347
 4534TIP3   OH237796   4.799   3.713  18.628 -0.4797 -0.3240 -0.2994
 4534TIP3    H137797   4.798   3.772  18.704  0.9108  0.1300 -0.6074
 4534TIP3    H237798   4.755   3.762  18.559  0.4413  0.2775 -0.4793
 4535TIP3   OH237799   5.536   5.973  17.398  0.2909 -0.4940  0.1784
 4535TIP3    H137800   5.587   6.031  17.341 -0.9444  0.7830  0.3188
 4535TIP3    H237801   5.449   5.973  17.359  0.0698 -1.6320  0.6480
 4536TIP3   OH237802   2.610   4.595  20.169 -0.2745  0.0165 -0.1569
 4536TIP3    H137803   2.674   4.547  20.117 -0.3185 -1.3050  0.9736
 4536TIP3    H237804   2.660   4.631  20.242 -0.2685  1.6307 -0.9133
 4537TIP3   OH237805   2.958   1.739  18.618 -0.5365  0.2796  0.0168
 4537TIP3    H137806   2.863   1.728  18.620 -0.5206  0.1802  1.1107
 4537TIP3    H237807   2.992   1.660  18.660 -0.1505  1.6937  2.6241
 4538TIP3   OH237808   3.109   3.100  18.777 -0.2909  0.1927 -0.0841
 4538TIP3    H137809   3.076   3.124  18.864 -1.0515 -1.1766  0.0287
 4538TIP3    H237810   3.180   3.038  18.795 -0.3926 -0.0265 -0.4450
 4539TIP3   OH237811   1.034   5.017  17.748  0.5075  0.2161  0.3645
 4539TIP3    H137812   0.977   5.030  17.823  1.3639  1.7639  0.7819
 4539TIP3    H237813   1.122   5.033  17.782  1.3772 -2.9465 -0.0366
 4540TIP3   OH237814   1.939   6.503  16.782  0.0305  0.0536 -0.0165
 4540TIP3    H137815   1.948   6.598  16.782  1.6295 -0.0638 -0.7315
 4540TIP3    H237816   1.891   6.483  16.863  2.4089  1.2718  1.8153
 4541TIP3   OH237817   0.296   1.284  17.577  0.4615 -0.3914 -0.2919
 4541TIP3    H137818   0.338   1.304  17.493 -0.6266  0.1085 -0.7309
 4541TIP3    H237819   0.213   1.330  17.574  0.1886 -0.7754  0.8686
 4542TIP3   OH237820   5.337   5.902  20.881 -0.3650 -0.5491  0.1930
 4542TIP3    H137821   5.261   5.959  20.868 -0.8830 -1.0794  0.7741
 4542TIP3    H237822   5.395   5.952  20.939 -0.4355 -0.2829  0.0337
 4543TIP3   OH237823   0.366   3.031  18.374 -0.1678 -0.1914 -0.6644
 4543TIP3    H137824   0.461   3.022  18.377 -0.2006 -0.4354 -0.3405
 4543TIP3    H237825   0.345   3.088  18.448 -0.4597 -1.7949  0.5363
 4544TIP3   OH237826   2.153   3.330  17.101 -0.3299  0.3800  0.4232
 4544TIP3    H137827   2.132   3.307  17.011 -0.1323  1.1566  0.1727
 4544TIP3    H237828   2.076   3.304  17.152 -0.8277  0.8092 -0.1040
 4545TIP3   OH237829   6.591   6.582  19.990  0.4722  0.3530  0.1480
 4545TIP3    H137830   6.587   6.577  20.085 -0.1675 -0.0717  0.1023
 4545TIP3    H237831   6.666   6.526  19.967 -0.0290 -0.4041  0.3375
 4546TIP3   OH237832   1.151   5.261  19.843 -0.5398 -0.2852  0.3522
 4546TIP3    H137833   1.111   5.252  19.930 -0.2985  0.0949  0.5048
 4546TIP3    H237834   1.246   5.261  19.860 -0.4990  0.3257  0.1416
 4547TIP3   OH237835   2.810   4.050  18.410 -0.1104  0.2795  0.2600
 4547TIP3    H137836   2.809   4.023  18.502 -0.4865 -1.6041 -0.2522
 4547TIP3    H237837   2.901   4.037  18.383  0.1859  1.6105  0.5496
 4548TIP3   OH237838   4.479   1.098  17.344  0.7043  0.4219  0.1094
 4548TIP3    H137839   4.425   1.092  17.423  0.2819 -0.9236 -0.2471
 4548TIP3    H237840   4.423   1.142  17.280 -0.0756 -1.0772 -0.2978
 4549TIP3   OH237841   5.298   6.109  17.592 -0.4860 -0.0466 -0.1075
 4549TIP3    H137842   5.365   6.117  17.524 -0.2256  1.6067  0.3137
 4549TIP3    H237843   5.233   6.175  17.569 -0.6757  0.1405  0.9241
 4550TIP3   OH237844   5.729   0.389  18.926 -0.0196  0.1634  0.0519
 4550TIP3    H137845   5.651   0.445  18.921 -0.4361 -0.3844  0.3910
 4550TIP3    H237846   5.705   0.310  18.877 -0.3231 -0.7490  1.6125
 4551TIP3   OH237847   0.232   3.870  17.705 -0.0049 -0.5138  0.0100
 4551TIP3    H137848   0.225   3.776  17.690  0.7803 -0.2544 -2.2785
 4551TIP3    H237849   0.190   3.910  17.629  0.6063  0.9988  0.4295
 4552TIP3   OH237850   0.923   1.679  18.535  0.4058  0.2845  0.8927
 4552TIP3    H137851   0.967   1.764  18.533  0.6149  0.2414 -2.0872
 4552TIP3    H237852   0.837   1.696  18.496  0.2832 -0.7608  0.6798
 4553TIP3   OH237853   3.228   6.446  18.624  0.5321  0.3441  0.2192
 4553TIP3    H137854   3.229   6.541  18.628 -2.2094  0.4255  1.6129
 4553TIP3    H237855   3.137   6.422  18.645  1.3082 -2.6020  0.7087
 4554TIP3   OH237856   5.784   5.201  20.509  0.1834  0.1564  0.4600
 4554TIP3    H137857   5.868   5.238  20.534  0.5730 -0.0174 -0.5359
 4554TIP3    H237858   5.800   5.107  20.500 -0.8620 -0.3852  3.2426
 4555TIP3   OH237859   0.651   0.530  18.406  0.1107 -0.1568 -0.5936
 4555TIP3    H137860   0.691   0.457  18.359  0.4787 -0.2330 -0.1714
 4555TIP3    H237861   0.687   0.608  18.365 -1.0352 -0.1685 -1.7082
 4556TIP3   OH237862   5.181   2.298  20.229  0.3007 -0.1826 -0.5674
 4556TIP3    H137863   5.247   2.354  20.269 -0.7028 -0.1829  1.2061
 4556TIP3    H237864   5.140   2.253  20.303 -2.7538  0.9952 -1.4095
 4557TIP3   OH237865   6.491   4.954  19.230 -0.2300  0.5742  0.2233
 4557TIP3    H137866   6.538   4.990  19.154  0.2755 -2.0427 -0.8001
 4557TIP3    H237867   6.399   4.963  19.208 -0.0927  0.2443 -0.4945
 4558TIP3   OH237868   0.048   1.839  19.068  0.1119 -0.1059 -0.0049
 4558TIP3    H137869   0.100   1.808  19.142  2.0913  0.0704 -1.2428
 4558TIP3    H237870   0.040   1.933  19.081 -0.1551 -0.1749  0.3367
 4559TIP3   OH237871   6.649   3.745  17.628 -0.6574  0.0336  0.3421
 4559TIP3    H137872   6.613   3.657  17.636  0.4887 -0.4299  0.6405
 4559TIP3    H237873   6.678   3.752  17.537 -3.5118  1.2478 -0.5799
 4560TIP3   OH237874   4.312   6.464  17.724  0.1221  0.4303  0.0081
 4560TIP3    H137875   4.307   6.374  17.691  1.2519  0.1081  0.6726
 4560TIP3    H237876   4.268   6.461  17.808 -0.5087  0.6757 -0.3107
 4561TIP3   OH237877   0.136   6.217  18.997  0.2095  0.4341  0.5854
 4561TIP3    H137878   0.189   6.273  19.053  0.6810 -1.5408  2.2825
 4561TIP3    H237879   0.164   6.128  19.020 -1.7263 -0.5621 -0.6565
 4562TIP3   OH237880   2.529   5.601  17.163 -0.0640  0.3077 -0.4088
 4562TIP3    H137881   2.584   5.540  17.212 -0.0826 -0.3447 -1.1604
 4562TIP3    H237882   2.475   5.644  17.229 -2.4388 -2.8635  0.0289
 4563TIP3   OH237883   6.218   4.170  20.179 -0.2075  0.1050  0.5523
 4563TIP3    H137884   6.176   4.243  20.134 -0.0577 -0.3052 -0.2574
 4563TIP3    H237885   6.252   4.115  20.109  1.3988  0.2598  1.1678
 4564TIP3   OH237886   5.388   3.819  17.981 -0.2047  0.2191 -0.5879
 4564TIP3    H137887   5.293   3.818  17.977 -0.2792 -1.2129  0.4691
 4564TIP3    H237888   5.416   3.751  17.919  0.0276 -0.4838  0.2610
 4565TIP3   OH237889   6.592   2.612  17.821  0.6860 -0.0544  0.0992
 4565TIP3    H137890   6.635   2.653  17.897 -0.2114 -0.8343  1.0509
 4565TIP3    H237891   6.512   2.662  17.809  1.1957  0.5592 -0.8445
 4566TIP3   OH237892   4.937   2.654  19.999 -0.9857  0.6079  0.0589
 4566TIP3    H137893   5.015   2.602  20.020  0.0842  1.1714 -2.2696
 4566TIP3    H237894   4.871   2.588  19.976 -0.6774  0.1765  0.3753
 4567TIP3   OH237895   4.500   1.916  18.651 -0.1836  0.3516 -0.1040
 4567TIP3    H137896   4.513   1.840  18.594  0.8429  0.7738 -0.4551
 4567TIP3    H237897   4.540   1.989  18.604 -1.0231  1.0975  0.2948
 4568TIP3   OH237898   3.884   4.113  18.210 -0.1500  0.5537  0.1354
 4568TIP3    H137899   3.842   4.028  18.221  0.7700  0.0055 -0.5027
 4568TIP3    H237900   3.832   4.157  18.142 -0.4335  0.3764  0.2394
 4569TIP3   OH237901   3.082   4.869  18.739 -0.4780  0.4128  0.2009
 4569TIP3    H137902   3.086   4.947  18.793  0.2781 -0.1576  0.9982
 4569TIP3    H237903   3.156   4.816  18.768 -0.7175 -0.3995 -0.6290
 4570TIP3   OH237904   6.231   4.731  17.075 -0.4426 -0.2286  0.1986
 4570TIP3    H137905   6.224   4.791  17.001 -1.2838 -0.1421  0.3379
 4570TIP3    H237906   6.180   4.655  17.049  0.3119 -0.7456  0.1745
 4571TIP3   OH237907   0.374   3.563  18.661  0.4314 -0.3777  0.1334
 4571TIP3    H137908   0.469   3.549  18.657  0.8861  2.1144  0.9729
 4571TIP3    H237909   0.362   3.631  18.726 -1.9149 -0.1788 -0.4181
 4572TIP3   OH237910   3.579   2.443  20.019 -0.0489  0.3272 -0.5855
 4572TIP3    H137911   3.628   2.415  20.096 -0.3489 -1.1482 -0.9111
 4572TIP3    H237912   3.630   2.412  19.945 -1.3121 -1.0405 -0.9359
 4573TIP3   OH237913   3.740   6.682  20.464  0.4741  0.1801  0.6465
 4573TIP3    H137914   3.809   6.632  20.507 -0.4143 -1.2963  0.4206
 4573TIP3    H237915   3.735   6.646  20.376  0.7781  1.6714 -0.0153
 4574TIP3   OH237916   5.157   6.277  19.546 -0.1396 -0.0465  0.0018
 4574TIP3    H137917   5.162   6.257  19.453  0.6870  1.1883 -0.2552
 4574TIP3    H237918   5.078   6.330  19.555  0.5591  1.0831 -0.2846
 4575TIP3   OH237919   4.281   6.155  17.719  0.4008 -0.7120  0.0279
 4575TIP3    H137920   4.239   6.128  17.637 -0.5310  0.8747 -0.0572
 4575TIP3    H237921   4.218   6.130  17.787 -0.4925  1.1239 -0.0549
 4576TIP3   OH237922   4.936   6.430  17.322  0.1932  0.0844 -0.2702
 4576TIP3    H137923   4.841   6.425  17.315 -0.0185  0.3760  1.6903
 4576TIP3    H237924   4.952   6.515  17.364  1.2702 -0.2275 -0.0205
 4577TIP3   OH237925   6.198   3.272  18.409  0.0000 -0.1945  0.2260
 4577TIP3    H137926   6.184   3.261  18.315  0.8423  0.0319  0.0594
 4577TIP3    H237927   6.217   3.184  18.441 -0.1199 -0.2464  0.1546
 4578TIP3   OH237928   5.895   5.474  20.292  0.1225  0.5386 -0.2551
 4578TIP3    H137929   5.921   5.552  20.243  1.4222  0.6733  0.6187
 4578TIP3    H237930   5.967   5.412  20.281 -0.1694  0.0621  0.3893
 4579TIP3   OH237931   0.215   3.594  17.682 -0.1170 -0.6174 -0.3584
 4579TIP3    H137932   0.238   3.598  17.589  0.0582 -0.7481 -0.3197
 4579TIP3    H237933   0.188   3.503  17.696 -2.3693 -0.0763 -0.8155
 4580TIP3   OH237934   5.770   3.648  19.158  0.3423 -0.3166 -0.0084
 4580TIP3    H137935   5.754   3.732  19.201  2.4453  0.4752 -0.6103
 4580TIP3    H237936   5.745   3.662  19.067  1.2321 -0.1149 -0.2378
 4581TIP3   OH237937   3.689   6.326  17.329  0.5791  0.2073  0.4442
 4581TIP3    H137938   3.650   6.239  17.336  0.6409  0.1615  0.2083
 4581TIP3    H237939   3.675   6.365  17.415  1.3602 -0.3735  0.8545
 4582TIP3   OH237940   4.278   5.640  16.719 -0.0362 -0.0442  0.9307
 4582TIP3    H137941   4.196   5.598  16.694  0.5865 -0.7116 -0.0564
 4582TIP3    H237942   4.320   5.579  16.779  0.9667 -0.9934 -0.6668
 4583TIP3   OH237943   2.550   1.076  20.028  0.6500 -0.0752  0.5628
 4583TIP3    H137944   2.570   1.047  19.939  0.1295 -0.5764  0.6039
 4583TIP3    H237945   2.593   1.011  20.084 -1.3582 -1.4145  0.6532
 4584TIP3   OH237946   4.403   6.571  19.346 -0.7574 -0.2740 -0.2590
 4584TIP3    H137947   4.322   6.620  19.364 -0.9281 -0.2769 -0.9914
 4584TIP3    H237948   4.423   6.591  19.255  0.5202  0.3737  0.1421
 4585TIP3   OH237949   0.028   2.116  19.644  0.6119 -0.2245  0.3453
 4585TIP3    H137950   0.056   2.160  19.564  0.0662  0.1685  0.3585
 4585TIP3    H237951   0.085   2.040  19.651  0.1740 -0.6851 -0.8159
 4586TIP3   OH237952   1.828   3.150  18.404 -0.0178  0.6346  0.2159
 4586TIP3    H137953   1.891   3.215  18.435 -0.2218  0.4303  1.0684
 4586TIP3    H237954   1.762   3.145  18.473 -0.2595 -0.1391 -0.0589
 4587TIP3   OH237955   3.921   0.795  18.785 -0.4588  0.0073  0.1137
 4587TIP3    H137956   3.946   0.795  18.693 -0.8395 -0.1946  0.0114
 4587TIP3    H237957   3.846   0.736  18.790 -0.9709  0.6694  0.4081
 4588TIP3   OH237958   2.587   3.758  18.732  0.2931 -0.1474 -0.2010
 4588TIP3    H137959   2.623   3.823  18.793 -1.9010  0.1853  0.8391
 4588TIP3    H237960   2.571   3.681  18.786 -1.3093  0.0101 -0.4160
 4589TIP3   OH237961   1.205   0.686  18.826  0.3404  0.4502 -0.0095
 4589TIP3    H137962   1.155   0.604  18.822 -1.6096  1.5759  0.1391
 4589TIP3    H237963   1.229   0.695  18.918 -0.1105  0.4207  0.1139
 4590TIP3   OH237964   3.566   6.276  18.431 -0.5501  0.0118  0.4801
 4590TIP3    H137965   3.604   6.339  18.492  1.2410 -0.7296  0.2020
 4590TIP3    H237966   3.591   6.308  18.344 -1.8947  0.3106  0.1807
 4591TIP3   OH237967   2.394   2.490  16.952  0.4592 -0.7119  0.4647
 4591TIP3    H137968   2.327   2.550  16.918  1.3963  1.1040  1.6413
 4591TIP3    H237969   2.462   2.548  16.987  1.9627 -2.4989  0.6497
 4592TIP3   OH237970   3.110   3.414  20.098  0.3942 -0.4373 -0.4783
 4592TIP3    H137971   3.194   3.444  20.063 -0.5896 -0.8298 -3.4543
 4592TIP3    H237972   3.111   3.319  20.084  0.7162 -0.9771  2.5632
 4593TIP3   OH237973   1.543   1.345  17.509  0.6211  0.0095  0.0097
 4593TIP3    H137974   1.528   1.290  17.586  1.7313 -0.0284  0.2231
 4593TIP3    H237975   1.533   1.286  17.434  0.3137 -0.1335  0.1645
 4594TIP3   OH237976   4.264   0.847  18.087 -0.4681 -0.0352  0.1401
 4594TIP3    H137977   4.235   0.772  18.036  1.0596 -1.1876  0.8839
 4594TIP3    H237978   4.243   0.923  18.033 -0.3292 -1.1186 -1.4859
 4595TIP3   OH237979   3.770   0.637  16.822  0.0503 -0.1624  0.3040
 4595TIP3    H137980   3.818   0.700  16.769  0.0046 -0.1241  0.3085
 4595TIP3    H237981   3.825   0.559  16.823 -1.0026 -0.9969 -1.7106
 4596TIP3   OH237982   5.890   3.688  18.472  0.3061  0.2211 -0.0075
 4596TIP3    H137983   5.915   3.773  18.435 -0.0621  1.3364  2.1368
 4596TIP3    H237984   5.891   3.702  18.567 -0.8437 -1.8721  0.3798
 4597TIP3   OH237985   0.664   3.502  19.928  0.2168  0.3717  0.1248
 4597TIP3    H137986   0.753   3.470  19.915  0.2010  0.5340 -0.4452
 4597TIP3    H237987   0.674   3.582  19.979  0.4655  0.7853 -0.5577
 4598TIP3   OH237988   2.685   2.036  19.802  0.2324  0.5096  0.4656
 4598TIP3    H137989   2.760   2.079  19.761  0.3257 -0.5739 -0.5610
 4598TIP3    H237990   2.722   1.989  19.877  0.4592  0.5686  0.3892
 4599TIP3   OH237991   5.991   4.774  17.608  0.4212 -0.2756  0.0257
 4599TIP3    H137992   6.017   4.749  17.697  1.0299 -2.2354 -0.6550
 4599TIP3    H237993   5.897   4.757  17.605  0.6294 -1.4537 -0.0833
 4600TIP3   OH237994   0.996   5.189  20.164  0.0968 -0.1077 -0.6343
 4600TIP3    H137995   1.055   5.254  20.202 -0.3909 -0.1637  0.2281
 4600TIP3    H237996   0.910   5.229  20.170 -0.1119 -0.5336 -0.7692
 4601TIP3   OH237997   4.238   1.492  19.191 -0.4048  0.5988  0.0594
 4601TIP3    H137998   4.143   1.490  19.178 -0.7015  1.5095  1.7859
 4601TIP3    H237999   4.257   1.414  19.243 -0.0878  0.0383 -0.8837
 4602TIP3   OH238000   3.696   0.099  19.234 -0.5459 -0.4118 -0.0514
 4602TIP3    H138001   3.718   0.039  19.306 -0.1117 -0.8767 -0.5565
 4602TIP3    H238002   3.779   0.113  19.188 -0.8848 -0.4307 -0.6887
 4603TIP3   OH238003   6.152   1.518  17.985 -0.2387 -0.3148  0.3189
 4603TIP3    H138004   6.078   1.473  17.942 -0.6977  1.0681 -0.3938
 4603TIP3    H238005   6.196   1.449  18.035 -3.8374 -0.7290  3.4194
 4604TIP3   OH238006   6.406   5.860  19.673 -0.2895  0.0810  0.2406
 4604TIP3    H138007   6.329   5.874  19.617 -0.7877 -1.6817  0.4088
 4604TIP3    H238008   6.474   5.916  19.635 -1.2229  0.5168 -0.8460
 4605TIP3   OH238009   3.185   3.120  18.196  0.1415  0.0856  0.2052
 4605TIP3    H138010   3.167   3.214  18.189  1.7468  0.5671  1.7794
 4605TIP3    H238011   3.269   3.108  18.152  1.2855 -0.0571  2.2770
 4606TIP3   OH238012   5.981   0.872  18.282 -0.0120  0.0632 -0.0244
 4606TIP3    H138013   5.980   0.793  18.228  2.1640  0.2201 -0.3773
 4606TIP3    H238014   5.952   0.941  18.222  2.1313  0.1941 -0.9793
 4607TIP3   OH238015   6.545   4.642  19.704 -0.2732  0.1909  0.6384
 4607TIP3    H138016   6.583   4.555  19.709 -2.2545 -0.6891  1.7770
 4607TIP3    H238017   6.499   4.643  19.620 -1.6215 -0.5376  1.3223
 4608TIP3   OH238018   3.142   6.270  18.412 -0.4274 -0.2114 -0.4872
 4608TIP3    H138019   3.049   6.288  18.422 -0.0985  0.9229  0.8242
 4608TIP3    H238020   3.185   6.335  18.468  1.1800 -0.2481 -1.6164
 4609TIP3   OH238021   4.593   3.850  20.219 -0.6099  0.1552  0.1241
 4609TIP3    H138022   4.608   3.935  20.260  0.2958  0.7025 -1.2536
 4609TIP3    H238023   4.674   3.832  20.171 -0.7387 -1.5575  0.4799
 4610TIP3   OH238024   0.295   3.734  18.308 -0.0194  0.0468 -0.1484
 4610TIP3    H138025   0.218   3.681  18.289  0.7783 -0.5340 -2.0428
 4610TIP3    H238026   0.276   3.776  18.392 -1.4451 -1.7975  0.5126
 4611TIP3   OH238027   1.075   0.411  18.643 -0.1261  0.2684  0.2091
 4611TIP3    H138028   1.068   0.325  18.602  3.1111 -0.1683  0.2879
 4611TIP3    H238029   1.061   0.395  18.736 -1.4702  0.2288  0.0269
 4612TIP3   OH238030   1.754   1.627  18.305 -0.3550 -0.3547 -0.2297
 4612TIP3    H138031   1.722   1.653  18.219 -0.7351  1.7331  0.4785
 4612TIP3    H238032   1.686   1.656  18.366  0.2801 -1.0318  0.8358
 4613TIP3   OH238033   5.767   4.048  18.406 -0.0192 -0.3829  0.1324
 4613TIP3    H138034   5.750   4.044  18.500 -1.6505  1.0981 -0.0439
 4613TIP3    H238035   5.682   4.071  18.368  0.7427 -0.3815 -1.6564
 4614TIP3   OH238036   1.574   6.232  18.602 -0.4810 -0.3659  0.0127
 4614TIP3    H138037   1.643   6.294  18.577  1.6892 -2.8808 -0.5887
 4614TIP3    H238038   1.521   6.282  18.664  1.6922  1.8253  0.3148
 4615TIP3   OH238039   2.655   3.007  19.180  0.0755  0.0233 -0.3308
 4615TIP3    H138040   2.728   2.948  19.158  0.7702  0.5091  0.5555
 4615TIP3    H238041   2.592   2.951  19.226  1.2784  0.1354  1.6031
 4616TIP3   OH238042   3.990   2.654  17.278  0.3708  0.6157 -0.1719
 4616TIP3    H138043   3.987   2.750  17.284  1.1441  0.7950 -2.0144
 4616TIP3    H238044   4.083   2.633  17.285  0.1855 -0.0360  0.4315
 4617TIP3   OH238045   4.756   4.538  18.099 -0.1378  0.3884  0.1344
 4617TIP3    H138046   4.815   4.478  18.144 -0.3046  1.6544  2.1163
 4617TIP3    H238047   4.702   4.481  18.043  2.4560 -0.8596 -1.2594
 4618TIP3   OH238048   5.093   1.226  18.506 -0.2572 -0.4364 -0.8099
 4618TIP3    H138049   5.034   1.236  18.431  0.9545  1.2656 -1.5866
 4618TIP3    H238050   5.181   1.226  18.468  0.3267 -2.0714  0.4101
 4619TIP3   OH238051   0.673   2.131  17.846 -0.2039 -0.2766 -0.4948
 4619TIP3    H138052   0.590   2.147  17.892  0.3459 -1.4305  0.9770
 4619TIP3    H238053   0.648   2.122  17.754 -1.2835  2.5687 -0.5702
 4620TIP3   OH238054   4.494   2.588  19.708 -0.4189 -0.2806  0.4386
 4620TIP3    H138055   4.470   2.666  19.658  1.1461 -0.0614 -0.0062
 4620TIP3    H238056   4.452   2.600  19.793  0.7912  1.6680  0.8128
 4621TIP3   OH238057   6.496   0.896  19.132 -0.0217  0.8303  0.0652
 4621TIP3    H138058   6.444   0.960  19.085 -0.1011  1.4684  0.9886
 4621TIP3    H238059   6.448   0.814  19.122 -0.9697  1.3100  0.4981
 4622TIP3   OH238060   2.638   2.379  17.995 -0.4631  0.3324  0.0639
 4622TIP3    H138061   2.714   2.320  17.991 -1.1288 -0.5426  0.0641
 4622TIP3    H238062   2.666   2.456  17.946  0.0363 -0.4273 -0.9055
 4623TIP3   OH238063   1.590   0.164  19.581  0.7966  0.4597  0.5757
 4623TIP3    H138064   1.629   0.089  19.625 -0.5268 -1.2461 -0.9868
 4623TIP3    H238065   1.512   0.184  19.632  0.7942  0.3361  0.6197
 4624TIP3   OH238066   4.451   2.907  17.189 -0.2746  0.0387 -0.1501
 4624TIP3    H138067   4.449   2.814  17.165 -1.6922 -0.1419  0.5843
 4624TIP3    H238068   4.380   2.946  17.139 -0.5368  0.4738  0.5576
 4625TIP3   OH238069   5.604   2.092  19.563 -0.2502 -0.1824  0.0945
 4625TIP3    H138070   5.692   2.130  19.556 -0.6008  0.5734 -0.3794
 4625TIP3    H238071   5.582   2.068  19.473 -0.3283 -0.8437  0.2875
 4626TIP3   OH238072   1.782   3.993  16.811  0.3127  0.2040 -0.0869
 4626TIP3    H138073   1.817   4.037  16.733 -0.4040  0.8011 -0.0798
 4626TIP3    H238074   1.817   4.044  16.885 -0.4218  0.7083 -0.0749
 4627TIP3   OH238075   0.046   6.319  16.331  0.1695 -0.3573 -0.2865
 4627TIP3    H138076   0.090   6.362  16.257 -0.1626  0.9512  0.2518
 4627TIP3    H238077   0.118   6.298  16.391  0.3900 -1.0364 -0.7673
 4628TIP3   OH238078   3.408   6.126  19.209 -0.2698 -0.3375  0.0993
 4628TIP3    H138079   3.411   6.030  19.216  2.0615 -0.2698  0.8285
 4628TIP3    H238080   3.459   6.146  19.130 -1.4913  0.3207 -0.5753
 4629TIP3   OH238081   0.737   2.240  18.481 -0.2565  0.1652  0.0549
 4629TIP3    H138082   0.709   2.319  18.526  0.9121  0.6153  0.0097
 4629TIP3    H238083   0.797   2.271  18.412  0.7610 -0.7968  0.4776
 4630TIP3   OH238084   3.633   5.935  19.637 -0.2672 -0.0281  0.4512
 4630TIP3    H138085   3.690   5.887  19.576 -0.4076  0.4406 -0.0515
 4630TIP3    H238086   3.582   5.866  19.680  0.7681 -0.4695  1.0097
 4631TIP3   OH238087   2.853   0.566  17.924 -0.1504  0.7523 -0.2979
 4631TIP3    H138088   2.823   0.522  18.003  0.5487  1.1631  0.2012
 4631TIP3    H238089   2.858   0.497  17.858 -1.9619  0.6210 -0.3484
 4632TIP3   OH238090   3.131   3.410  18.642 -0.5252 -0.5504  0.1830
 4632TIP3    H138091   3.167   3.375  18.724  0.3183 -0.3663 -0.0912
 4632TIP3    H238092   3.112   3.501  18.660  0.8258 -0.1692 -0.1438
 4633TIP3   OH238093   0.738   1.670  17.890 -0.3220 -0.3668  0.0751
 4633TIP3    H138094   0.815   1.711  17.929  1.0794 -2.8980  0.1731
 4633TIP3    H238095   0.767   1.640  17.804 -1.4466 -0.6278 -0.2440
 4634TIP3   OH238096   5.274   4.728  20.523  0.0176  0.1917 -0.0069
 4634TIP3    H138097   5.259   4.761  20.435  0.5456  1.7794  0.4519
 4634TIP3    H238098   5.366   4.701  20.524 -0.1400 -0.3534 -0.0965
 4635TIP3   OH238099   5.928   6.298  19.792  0.1498 -0.2270 -0.2043
 4635TIP3    H138100   5.924   6.228  19.857  1.5049 -0.6919 -0.5913
 4635TIP3    H238101   5.867   6.364  19.825  0.5713 -0.5866  1.3889
 4636TIP3   OH238102   6.602   2.639  19.851  0.6927  0.2324 -0.1027
 4636TIP3    H138103   6.592   2.707  19.784 -0.6437  0.7339  0.5559
 4636TIP3    H238104   6.648   2.568  19.807  0.4242  0.8095 -1.3633
 4637TIP3   OH238105   1.226   3.597  18.658 -0.5036  0.3067 -0.6482
 4637TIP3    H138106   1.225   3.636  18.745  0.2649  0.8774 -0.8880
 4637TIP3    H238107   1.168   3.521  18.665 -1.5427  1.1389 -0.0207
 4638TIP3   OH238108   4.623   0.113  18.120  0.1347 -0.0141  0.6493
 4638TIP3    H138109   4.559   0.156  18.177 -0.1492  1.6179 -0.8047
 4638TIP3    H238110   4.667   0.185  18.075  1.8064 -1.1803  0.3512
 4639TIP3   OH238111   4.836   3.613  16.909 -0.5024  0.0015 -0.7655
 4639TIP3    H138112   4.826   3.568  16.994  0.4114  0.8284 -0.1964
 4639TIP3    H238113   4.751   3.602  16.866  0.0022 -3.3191 -1.2030
 4640TIP3   OH238114   1.147   4.446  18.340 -0.0191 -0.1945  0.0136
 4640TIP3    H138115   1.230   4.448  18.292 -0.4153 -1.3136 -0.7565
 4640TIP3    H238116   1.083   4.484  18.279 -0.3547 -0.8037 -0.0284
 4641TIP3   OH238117   6.559   5.844  18.604 -0.0590  0.3379  0.4961
 4641TIP3    H138118   6.560   5.891  18.520 -0.5924 -0.8685 -0.2160
 4641TIP3    H238119   6.555   5.751  18.579 -1.9795  0.0135  1.8570
 4642TIP3   OH238120   2.588   5.155  19.238 -0.7553  0.6110  0.7367
 4642TIP3    H138121   2.640   5.192  19.309  0.9983 -0.0184 -0.1667
 4642TIP3    H238122   2.637   5.175  19.159 -1.8695 -0.0513 -0.1555
 4643TIP3   OH238123   4.568   0.820  18.851  0.2906 -0.3098  0.0714
 4643TIP3    H138124   4.569   0.757  18.779  1.7024  0.0022 -0.2077
 4643TIP3    H238125   4.657   0.855  18.854  0.3394 -0.4618  2.1005
 4644TIP3   OH238126   2.865   4.965  17.018  0.1967 -0.3308 -0.3480
 4644TIP3    H138127   2.777   5.001  17.008  0.0091  0.1063  2.1831
 4644TIP3    H238128   2.908   5.023  17.081  1.7259 -1.5017 -0.2409
 4645TIP3   OH238129   1.992   4.265  17.238 -0.1629  0.0805 -0.2610
 4645TIP3    H138130   1.898   4.287  17.239 -0.3157 -0.5127  1.4669
 4645TIP3    H238131   2.030   4.326  17.176 -1.6631  0.5030 -0.8131
 4646TIP3   OH238132   4.350   1.468  17.267  0.0741 -0.2371  0.2736
 4646TIP3    H138133   4.264   1.431  17.285  0.1275 -0.1071  0.8023
 4646TIP3    H238134   4.370   1.522  17.343 -0.7616  2.2857 -1.1678
 4647TIP3   OH238135   3.565   1.633  18.319  0.3817 -0.0359  0.6402
 4647TIP3    H138136   3.509   1.558  18.298  0.7731  0.3753 -2.2165
 4647TIP3    H238137   3.643   1.595  18.359  0.0448 -1.0230  0.3760
 4648TIP3   OH238138   1.362   5.383  17.186 -0.3604  0.4157  0.6961
 4648TIP3    H138139   1.268   5.375  17.201 -0.5519 -0.5936 -0.8397
 4648TIP3    H238140   1.391   5.293  17.168  0.7730  0.8037  0.4946
 4649TIP3   OH238141   0.933   3.728  20.403  0.2054 -0.4599  0.1199
 4649TIP3    H138142   0.988   3.780  20.462  0.1659 -2.4447  2.0685
 4649TIP3    H238143   0.855   3.708  20.455 -1.0971 -0.0738 -1.6023
 4650TIP3   OH238144   3.927   1.124  20.600 -0.4583 -0.0017 -0.3372
 4650TIP3    H138145   3.995   1.064  20.570  0.2234  0.3833  0.4216
 4650TIP3    H238146   3.867   1.131  20.525  0.7031  0.1968 -1.2872
 4651TIP3   OH238147   1.302   3.674  20.556 -0.3991 -0.1755  0.0342
 4651TIP3    H138148   1.327   3.598  20.608 -2.0141 -0.0612  1.0272
 4651TIP3    H238149   1.235   3.642  20.496 -1.7645  0.6121  1.0794
 4652TIP3   OH238150   0.373   4.999  19.627  0.5776 -0.0847 -0.5973
 4652TIP3    H138151   0.452   5.027  19.581  0.7477 -0.3113 -0.4432
 4652TIP3    H238152   0.377   5.043  19.712 -0.8289  2.1195 -1.5652
 4653TIP3   OH238153   1.232   5.487  18.816  0.3228  0.0121 -0.2056
 4653TIP3    H138154   1.262   5.397  18.810 -0.1567 -0.0828 -1.4217
 4653TIP3    H238155   1.196   5.507  18.729  0.4995  1.3985  0.0070
 4654TIP3   OH238156   5.824   4.932  18.991  0.1160  0.4584  0.2392
 4654TIP3    H138157   5.879   4.934  18.913  0.3951  1.0791  0.4421
 4654TIP3    H238158   5.828   4.842  19.022  1.0794  0.5155  0.2899
 4655TIP3   OH238159   3.600   0.417  17.302 -0.5866  0.0736  0.4455
 4655TIP3    H138160   3.569   0.500  17.266  2.7197  1.0023 -0.5629
 4655TIP3    H238161   3.661   0.383  17.236  0.5772 -1.5520  2.2474
 4656TIP3   OH238162   1.544   6.408  19.146  0.1229  0.1665  0.1296
 4656TIP3    H138163   1.509   6.477  19.203 -2.5419 -1.6802  0.9272
 4656TIP3    H238164   1.631   6.390  19.181  0.1949  1.9091  0.9730
 4657TIP3   OH238165   5.217   6.058  19.861 -0.2301  0.0413  0.4271
 4657TIP3    H138166   5.228   5.963  19.850 -1.1254 -0.0067 -0.1154
 4657TIP3    H238167   5.135   6.078  19.816  0.0888  1.1191  0.3065
 4658TIP3   OH238168   4.164   2.925  18.427 -0.0943 -0.7738  0.0810
 4658TIP3    H138169   4.229   2.857  18.409 -0.6608 -1.1503 -0.5517
 4658TIP3    H238170   4.083   2.894  18.387 -1.2902 -1.3887  2.7615
 4659TIP3   OH238171   1.270   1.469  17.724  0.1554 -0.0568  0.3441
 4659TIP3    H138172   1.324   1.488  17.800  1.2045  1.2548 -0.6874
 4659TIP3    H238173   1.302   1.383  17.693  0.8810  0.1784  0.4176
 4660TIP3   OH238174   3.171   5.659  18.144  0.8211 -0.2240  0.1135
 4660TIP3    H138175   3.166   5.564  18.141  0.8269 -0.2895  1.5259
 4660TIP3    H238176   3.114   5.688  18.073 -1.9339 -1.2620  1.6927
 4661TIP3   OH238177   1.226   0.443  18.132  0.3127 -0.6573  0.4053
 4661TIP3    H138178   1.190   0.355  18.138 -1.6197  0.1499  1.6766
 4661TIP3    H238179   1.276   0.454  18.212  0.4477 -0.5552  0.3069
 4662TIP3   OH238180   6.510   2.634  18.131  0.4215  0.0045  0.0710
 4662TIP3    H138181   6.523   2.699  18.201 -0.4725  0.6675 -0.3625
 4662TIP3    H238182   6.591   2.638  18.080 -0.1874  1.9350 -0.8533
 4663TIP3   OH238183   5.051   4.638  19.587  0.6040 -0.1800 -0.2513
 4663TIP3    H138184   4.999   4.576  19.637  0.1019 -0.4662 -1.1163
 4663TIP3    H238185   5.138   4.635  19.628  0.3397 -0.7753  0.2788
 4664TIP3   OH238186   2.213   3.598  16.792 -0.2323 -0.5069  0.2801
 4664TIP3    H138187   2.262   3.516  16.799  0.3983 -0.2298 -0.6733
 4664TIP3    H238188   2.280   3.667  16.790 -0.5479 -0.1783 -1.9024
 4665TIP3   OH238189   1.152   2.852  19.935  0.6169  0.2488  0.1098
 4665TIP3    H138190   1.117   2.904  20.007 -1.4870 -0.0278 -0.6468
 4665TIP3    H238191   1.239   2.826  19.965 -0.2038  0.0558  2.6029
 4666TIP3   OH238192   1.700   5.296  18.662 -0.7726  0.0253  0.3809
 4666TIP3    H138193   1.697   5.351  18.740  1.0504  0.8184 -0.0604
 4666TIP3    H238194   1.759   5.342  18.602 -1.4075 -1.0248 -1.1129
 4667TIP3   OH238195   0.148   1.419  18.271  0.5530 -0.0712 -0.5107
 4667TIP3    H138196   0.210   1.468  18.218 -0.5585  1.4424 -0.4609
 4667TIP3    H238197   0.201   1.381  18.341  1.7658 -0.7330 -1.7360
 4668TIP3   OH238198   4.277   1.182  17.110  0.3725 -0.2103  0.3338
 4668TIP3    H138199   4.317   1.263  17.078  0.8225 -0.7179 -0.4091
 4668TIP3    H238200   4.206   1.164  17.049  1.2162 -1.1676 -0.3839
 4669TIP3   OH238201   4.798   4.830  17.148  0.4202  0.0043 -0.3206
 4669TIP3    H138202   4.807   4.778  17.069 -1.6428  1.3838 -1.5911
 4669TIP3    H238203   4.834   4.916  17.125 -1.0571  0.7135 -0.1622
 4670TIP3   OH238204   2.204   4.980  18.260  0.2110 -0.2687 -0.4203
 4670TIP3    H138205   2.283   4.992  18.208 -0.4103  0.7372 -1.1690
 4670TIP3    H238206   2.221   4.901  18.312  2.7413  1.3045  1.3810
 4671TIP3   OH238207   4.888   0.431  17.697 -0.0898 -0.4217 -0.2968
 4671TIP3    H138208   4.800   0.467  17.684  0.7674  1.2546 -1.9676
 4671TIP3    H238209   4.946   0.507  17.686  1.6262 -1.6694 -0.2193
 4672TIP3   OH238210   6.498   1.618  18.432 -0.5395 -0.1878  0.4069
 4672TIP3    H138211   6.512   1.693  18.374 -1.0831  0.5707  1.2280
 4672TIP3    H238212   6.579   1.612  18.483 -0.7564  0.2913  0.8220
 4673TIP3   OH238213   2.930   2.894  19.282 -0.0396 -0.2267  0.2295
 4673TIP3    H138214   2.878   2.909  19.361 -0.1698 -0.9383  0.2854
 4673TIP3    H238215   2.911   2.803  19.258  1.1545 -0.4900  0.2274
 4674TIP3   OH238216   5.499   3.761  17.011  0.2600  0.3105 -0.3817
 4674TIP3    H138217   5.486   3.786  17.102  1.8412  0.1679 -0.0885
 4674TIP3    H238218   5.578   3.807  16.985 -1.0664  1.6952 -2.2396
 4675TIP3   OH238219   1.820   4.725  19.139  0.1379 -0.1120 -0.3366
 4675TIP3    H138220   1.738   4.748  19.183 -0.3094 -1.5573 -0.3441
 4675TIP3    H238221   1.874   4.687  19.208 -0.3568 -1.8856 -0.8609
 4676TIP3   OH238222   5.000   6.175  18.231  0.3400 -0.4104 -0.2967
 4676TIP3    H138223   5.036   6.111  18.293 -0.2772  1.0854  1.7154
 4676TIP3    H238224   4.907   6.152  18.224  0.5270 -0.9373 -1.1735
 4677TIP3   OH238225   2.746   1.533  19.601 -0.0020 -0.0799  0.0102
 4677TIP3    H138226   2.688   1.595  19.644 -0.0547 -1.5219  2.1446
 4677TIP3    H238227   2.689   1.484  19.542  0.3783  3.1471 -3.4291
 4678TIP3   OH238228   4.770   4.903  20.037  0.2770  0.6762 -0.0148
 4678TIP3    H138229   4.784   4.842  19.965 -0.7165  0.1790  0.1988
 4678TIP3    H238230   4.775   4.989  19.997 -0.4420  0.4043 -0.7167
 4679TIP3   OH238231   2.780   0.922  18.145 -0.6424  0.3633  0.0401
 4679TIP3    H138232   2.746   0.911  18.234 -2.1551 -1.0563 -0.6525
 4679TIP3    H238233   2.702   0.929  18.090  0.0596 -2.9040 -1.6238
 4680TIP3   OH238234   2.941   3.197  19.297  0.0673 -0.3824  0.0449
 4680TIP3    H138235   3.004   3.267  19.284 -0.7505 -0.0052 -2.5911
 4680TIP3    H238236   2.984   3.119  19.262 -0.5660 -0.2896 -0.9902
 4681TIP3   OH238237   2.614   6.428  18.241  0.1446 -0.4557  0.0726
 4681TIP3    H138238   2.677   6.440  18.169  0.1166 -1.4551 -0.1349
 4681TIP3    H238239   2.614   6.512  18.286  1.2464 -0.2639 -0.2392
 4682TIP3   OH238240   0.559   5.531  16.886  0.1493 -0.2093 -0.2545
 4682TIP3    H138241   0.633   5.531  16.825  1.9403 -0.8778  1.7986
 4682TIP3    H238242   0.507   5.455  16.860  0.2994  0.1120 -1.5681
 4683TIP3   OH238243   0.575   4.532  18.629 -0.5280 -0.4061  0.1364
 4683TIP3    H138244   0.622   4.606  18.590 -1.4585  1.3848  2.1781
 4683TIP3    H238245   0.483   4.550  18.610 -0.8230 -0.6054  1.2955
 4684TIP3   OH238246   4.335   4.676  19.484  0.0533 -0.0973  0.1380
 4684TIP3    H138247   4.241   4.660  19.478 -0.2149  1.7217 -1.4147
 4684TIP3    H238248   4.342   4.763  19.524  0.9533  0.6488 -1.5236
 4685TIP3   OH238249   1.417   3.886  18.923  0.1402 -0.0131  0.1237
 4685TIP3    H138250   1.359   3.959  18.946 -0.0694  0.5413 -1.9456
 4685TIP3    H238251   1.358   3.816  18.895  0.3841 -0.5330  0.8979
 4686TIP3   OH238252   5.064   2.310  18.344  0.0083 -0.8377 -0.1610
 4686TIP3    H138253   5.087   2.222  18.376  0.7389 -0.3382  0.7175
 4686TIP3    H238254   5.090   2.369  18.414 -2.8989 -0.0963  0.4351
 4687TIP3   OH238255   5.107   1.754  19.296  1.0335  0.1468 -0.1169
 4687TIP3    H138256   5.130   1.669  19.260  0.9447  0.4201 -0.8428
 4687TIP3    H238257   5.071   1.735  19.383 -0.8872 -0.7506 -1.0633
 4688TIP3   OH238258   4.868   3.739  18.178 -0.4599 -0.0015  0.3213
 4688TIP3    H138259   4.826   3.822  18.157  2.9178  2.2493  1.5680
 4688TIP3    H238260   4.898   3.749  18.268  0.7108 -2.2930  0.2744
 4689TIP3   OH238261   3.246   0.225  20.519 -0.3719  0.3438  0.2091
 4689TIP3    H138262   3.194   0.150  20.493  0.3759  0.0117 -0.3730
 4689TIP3    H238263   3.336   0.192  20.524 -0.4648  0.1610  3.9365
 4690TIP3   OH238264   6.009   1.340  19.389 -0.2637  0.0131  0.5808
 4690TIP3    H138265   6.082   1.381  19.436  1.4437 -1.8589 -0.2937
 4690TIP3    H238266   5.973   1.277  19.451 -0.4843  0.2096  0.6549
 4691TIP3   OH238267   1.117   0.610  17.049  0.1771  0.0667 -0.4409
 4691TIP3    H138268   1.106   0.544  16.980 -1.0685  0.2288 -0.4243
 4691TIP3    H238269   1.091   0.692  17.008  0.0802  0.2744  0.0326
 4692TIP3   OH238270   3.272   3.336  18.865  0.2320 -0.2159 -0.0407
 4692TIP3    H138271   3.312   3.253  18.841  1.1223  0.6385 -1.6266
 4692TIP3    H238272   3.345   3.396  18.876 -0.4729  0.7040 -0.2431
 4693TIP3   OH238273   2.057   1.015  20.312 -0.2848 -0.3485 -0.7027
 4693TIP3    H138274   1.997   1.089  20.305 -0.2277 -0.2081  0.2494
 4693TIP3    H238275   2.122   1.031  20.243 -0.9476 -0.1542 -1.3020
 4694TIP3   OH238276   0.365   0.868  20.153 -0.2165 -0.0717 -0.2032
 4694TIP3    H138277   0.426   0.930  20.193 -0.3689 -1.0801  1.6620
 4694TIP3    H238278   0.294   0.923  20.119 -0.8565  0.7552  2.3194
 4695TIP3   OH238279   5.708   5.202  18.870  0.1585  0.0425 -0.8097
 4695TIP3    H138280   5.734   5.184  18.780  0.9164  0.6475 -0.7257
 4695TIP3    H238281   5.733   5.123  18.918  0.1571 -0.1097 -1.0531
 4696TIP3   OH238282   0.695   1.512  19.820 -0.0745  0.3411  0.0383
 4696TIP3    H138283   0.604   1.519  19.850  0.1742  0.3189  0.8124
 4696TIP3    H238284   0.688   1.474  19.733 -0.7857 -0.1797  0.3106
 4697TIP3   OH238285   2.936   3.246  18.597  0.5151 -0.2278 -0.4657
 4697TIP3    H138286   2.977   3.332  18.609  1.1391 -0.6246  0.4197
 4697TIP3    H238287   2.988   3.188  18.652  1.8214 -1.7381 -3.1085
 4698TIP3   OH238288   0.324   0.107  18.316  0.4573  0.2862  0.7417
 4698TIP3    H138289   0.283   0.025  18.343  1.8811 -0.6339  0.2214
 4698TIP3    H238290   0.252   0.170  18.313 -0.5030 -0.7017  2.0780
 4699TIP3   OH238291   1.090   0.193  19.833 -0.1058 -0.4555  0.0865
 4699TIP3    H138292   1.018   0.216  19.773  0.7814  1.0566 -0.4518
 4699TIP3    H238293   1.055   0.212  19.920 -0.9813 -1.4987 -0.0108
 4700TIP3   OH238294   2.338   3.675  17.682  0.1467  0.9339  0.1091
 4700TIP3    H138295   2.405   3.700  17.745 -0.6066  0.3892  1.1641
 4700TIP3    H238296   2.259   3.662  17.735 -0.4662  0.2912 -0.9236
 4701TIP3   OH238297   4.094   5.826  18.094  0.6298  0.3193 -0.3220
 4701TIP3    H138298   4.102   5.784  18.008 -1.1184  1.7340 -1.2317
 4701TIP3    H238299   4.002   5.818  18.117  0.1902  3.5179 -0.5357
 4702TIP3   OH238300   2.527   0.381  18.794 -0.1626  0.0332  0.4000
 4702TIP3    H138301   2.603   0.440  18.789 -1.4891  1.9378  1.5963
 4702TIP3    H238302   2.507   0.361  18.702  1.4883 -0.1548  0.0400
 4703TIP3   OH238303   3.878   5.376  19.471  0.2247  1.0361 -0.3532
 4703TIP3    H138304   3.933   5.321  19.415  0.0253  1.8021 -1.3433
 4703TIP3    H238305   3.933   5.452  19.492 -0.7394  2.3744 -2.2891
 4704TIP3   OH238306   6.414   1.604  18.128 -0.0668  0.2414  0.1102
 4704TIP3    H138307   6.506   1.619  18.104 -0.2303 -0.1472 -0.8119
 4704TIP3    H238308   6.366   1.676  18.087 -0.3575 -0.4607 -0.8094
 4705TIP3   OH238309   6.204   1.538  18.848 -0.5920  0.2323 -0.5351
 4705TIP3    H138310   6.248   1.585  18.777 -1.5907  1.0985 -0.6044
 4705TIP3    H238311   6.118   1.516  18.814 -1.2186  0.9711  0.5046
 4706TIP3   OH238312   0.591   1.039  20.189  0.1996 -0.7337  0.5281
 4706TIP3    H138313   0.687   1.039  20.191  0.2412 -0.3084 -0.7600
 4706TIP3    H238314   0.567   1.132  20.181 -0.2460 -0.9452 -0.9008
 4707TIP3   OH238315   0.947   1.439  19.056 -0.4289  0.1203  0.4126
 4707TIP3    H138316   0.935   1.480  18.971 -0.1439  0.6936  0.6452
 4707TIP3    H238317   0.904   1.353  19.048 -0.9270  0.4150 -0.1100
 4708TIP3   OH238318   0.966   1.887  18.740  0.1054  0.0496 -0.6301
 4708TIP3    H138319   0.988   1.978  18.720 -0.3358  0.3114  0.0368
 4708TIP3    H238320   1.045   1.837  18.719  0.6458  0.7069 -0.1716
 4709TIP3   OH238321   2.907   5.623  19.980 -0.4597 -0.2388 -0.9471
 4709TIP3    H138322   2.830   5.669  20.013 -0.1999 -0.9504  0.7617
 4709TIP3    H238323   2.980   5.657  20.032 -0.4178 -3.2840  1.2389
 4710TIP3   OH238324   5.715   4.762  18.523 -0.0805 -0.0984 -0.8970
 4710TIP3    H138325   5.795   4.798  18.561 -0.1502 -0.3839 -0.4693
 4710TIP3    H238326   5.669   4.723  18.598 -0.9215  0.6150 -1.0205
 4711TIP3   OH238327   4.209   1.142  20.452 -0.3188 -0.1287  0.0147
 4711TIP3    H138328   4.166   1.057  20.448  0.1474 -0.4007  0.6101
 4711TIP3    H238329   4.298   1.122  20.482 -0.3215  0.6061  0.5237
 4712TIP3   OH238330   5.702   0.169  17.084 -0.4032 -0.0784 -0.7310
 4712TIP3    H138331   5.668   0.131  17.004 -0.2453 -1.1167 -0.3183
 4712TIP3    H238332   5.793   0.193  17.064 -0.5848  0.3282 -1.0698
 4713TIP3   OH238333   3.263   1.253  18.044  0.0928 -0.7108  0.3528
 4713TIP3    H138334   3.230   1.165  18.061  1.3239 -1.0022  1.4138
 4713TIP3    H238335   3.205   1.311  18.093 -0.0189 -1.0271  0.5939
 4714TIP3   OH238336   2.283   6.612  19.978  0.3380 -0.7490  0.2077
 4714TIP3    H138337   2.301   6.523  20.007  0.4013 -0.4643  1.0716
 4714TIP3    H238338   2.368   6.655  19.979  0.3606 -0.7704 -0.5457
 4715TIP3   OH238339   0.439   0.651  19.985  0.1854 -0.3832  0.1788
 4715TIP3    H138340   0.365   0.639  19.926  0.1452 -0.8854  0.3289
 4715TIP3    H238341   0.402   0.697  20.061  0.4662  1.3294 -0.6609
 4716TIP3   OH238342   4.360   2.768  19.564 -0.7452 -0.6599 -0.2412
 4716TIP3    H138343   4.375   2.816  19.482 -3.1022 -0.1838 -0.4615
 4716TIP3    H238344   4.265   2.760  19.570 -0.7015  0.0027  2.8583
 4717TIP3   OH238345   1.105   5.705  19.279 -0.5414 -0.2237 -0.1930
 4717TIP3    H138346   1.169   5.657  19.227 -0.3826  1.0491 -1.2522
 4717TIP3    H238347   1.131   5.797  19.270 -2.2554  0.2964 -0.3080
 4718TIP3   OH238348   0.639   6.542  18.253  0.5529 -0.3389  0.2590
 4718TIP3    H138349   0.645   6.630  18.288  0.6657 -0.8295  1.5000
 4718TIP3    H238350   0.580   6.496  18.312 -0.4025 -0.8014 -1.0105
 4719TIP3   OH238351   4.123   5.865  19.442 -0.2224  0.3209 -0.2090
 4719TIP3    H138352   4.114   5.915  19.361  1.0840  1.3684  0.2407
 4719TIP3    H238353   4.148   5.931  19.507  0.1365 -0.7188  0.7199
 4720TIP3   OH238354   0.322   1.093  19.757 -0.0634  0.1673 -0.0800
 4720TIP3    H138355   0.263   1.052  19.693  0.0813 -0.6733  0.3116
 4720TIP3    H238356   0.401   1.039  19.756  0.1362  0.4371  0.4414
 4721TIP3   OH238357   4.820   5.801  17.303 -0.1909  0.9978 -0.1934
 4721TIP3    H138358   4.784   5.827  17.388 -0.8385  0.2405 -0.2139
 4721TIP3    H238359   4.772   5.854  17.239  0.3743  1.6467 -0.0854
 4722TIP3   OH238360   1.886   1.638  18.744 -0.0619  0.6166  0.2605
 4722TIP3    H138361   1.809   1.654  18.799  0.2969  1.5787  0.5028
 4722TIP3    H238362   1.862   1.562  18.692  0.0280 -1.0761  2.5658
 4723TIP3   OH238363   0.570   4.879  17.281  0.6685  0.2469  0.6471
 4723TIP3    H138364   0.572   4.783  17.288  0.6568 -0.1317 -2.7963
 4723TIP3    H238365   0.652   4.901  17.238  0.1756  1.6854  0.4052
 4724TIP3   OH238366   4.257   0.703  19.911 -0.3749 -0.3103  0.4437
 4724TIP3    H138367   4.276   0.720  19.818 -3.4338  0.8200 -0.0716
 4724TIP3    H238368   4.197   0.629  19.910 -0.2657 -0.4213  1.5795
 4725TIP3   OH238369   5.045   5.104  20.800 -0.2430  0.1737 -0.0725
 4725TIP3    H138370   4.972   5.161  20.774 -1.8757 -1.1197  1.3901
 4725TIP3    H238371   5.031   5.024  20.750  0.6360  0.1748 -0.3308
 4726TIP3   OH238372   6.243   4.394  18.697 -0.1421  0.3056 -0.1804
 4726TIP3    H138373   6.226   4.332  18.768  0.2261 -0.0821 -0.4261
 4726TIP3    H238374   6.224   4.344  18.617 -2.2162  1.2493 -0.3330
 4727TIP3   OH238375   1.634   0.538  17.669  0.5179 -0.1692 -0.4568
 4727TIP3    H138376   1.674   0.534  17.756 -0.7897  0.1732  0.1827
 4727TIP3    H238377   1.654   0.453  17.630 -0.0421 -0.8592  0.7132
 4728TIP3   OH238378   1.636   6.093  19.186  0.5047 -0.1644  0.0906
 4728TIP3    H138379   1.701   6.090  19.257  0.1103  1.1047  0.5300
 4728TIP3    H238380   1.687   6.077  19.107  0.9274 -1.7976  0.6451
 4729TIP3   OH238381   2.538   6.296  19.223  0.1435  0.0225 -0.4505
 4729TIP3    H138382   2.485   6.368  19.257  0.3555 -0.6265  1.3884
 4729TIP3    H238383   2.607   6.284  19.289 -0.3767 -2.4018 -0.2620
 4730TIP3   OH238384   5.713   5.881  19.616  0.1727 -0.5622  0.7444
 4730TIP3    H138385   5.635   5.844  19.658 -0.1353 -1.0007 -0.1880
 4730TIP3    H238386   5.715   5.840  19.530  1.8586 -1.1367  1.0236
 4731TIP3   OH238387   6.476   5.688  19.371 -0.0279  0.5299 -0.1096
 4731TIP3    H138388   6.404   5.742  19.339 -0.5097 -0.6542 -1.0886
 4731TIP3    H238389   6.530   5.671  19.294 -0.2788 -0.9594  0.0102
 4732TIP3   OH238390   2.089   4.141  17.953 -0.5235 -0.5630  0.4998
 4732TIP3    H138391   1.998   4.157  17.978 -0.7594 -1.8946  0.6009
 4732TIP3    H238392   2.137   4.146  18.036 -0.4885  0.2543  0.4300
 4733TIP3   OH238393   3.324   3.857  18.305 -0.4032 -0.5359  0.0619
 4733TIP3    H138394   3.301   3.876  18.214 -1.7761  1.3578  0.7488
 4733TIP3    H238395   3.416   3.829  18.301 -0.9716 -2.4239 -2.0934
 4734TIP3   OH238396   5.861   2.065  18.275  0.0391  0.4475  1.0664
 4734TIP3    H138397   5.821   2.109  18.200 -0.7805  0.8146  1.7085
 4734TIP3    H238398   5.949   2.043  18.245 -0.6309 -0.4006 -0.3894
 4735TIP3   OH238399   5.711   1.399  19.423  0.0870 -0.2096  0.7398
 4735TIP3    H138400   5.776   1.469  19.433 -1.3187  0.8362  3.7850
 4735TIP3    H238401   5.641   1.440  19.371 -0.4203  0.4649  1.9191
 4736TIP3   OH238402   2.586   2.072  19.100  0.3192 -0.1941  0.3417
 4736TIP3    H138403   2.549   2.000  19.151 -0.0947 -2.5773 -2.9847
 4736TIP3    H238404   2.672   2.086  19.137 -0.4394 -0.8562  2.4866
 4737TIP3   OH238405   2.835   1.502  16.934  0.7626 -0.3192 -0.2037
 4737TIP3    H138406   2.763   1.486  16.872  1.8501 -0.4475 -1.4714
 4737TIP3    H238407   2.840   1.422  16.985 -0.0416 -0.2793 -0.0389
 4738TIP3   OH238408   2.711   1.397  18.644 -0.2431  0.0671 -0.2196
 4738TIP3    H138409   2.680   1.437  18.563  0.6805  0.9917 -0.1441
 4738TIP3    H238410   2.724   1.305  18.621 -1.3673  0.0075 -0.7062
 4739TIP3   OH238411   1.568   0.734  18.243  0.2957  0.9621  0.9703
 4739TIP3    H138412   1.489   0.730  18.189  1.2293  0.6776 -0.4259
 4739TIP3    H238413   1.598   0.643  18.246  1.3253  1.2626  0.2940
 4740TIP3   OH238414   6.610   4.259  19.664 -0.0565  0.1228 -0.0162
 4740TIP3    H138415   6.645   4.206  19.592 -0.1245 -1.5273  1.1048
 4740TIP3    H238416   6.536   4.306  19.626 -0.1250 -0.7631 -1.0151
 4741TIP3   OH238417   1.184   5.889  19.494  0.9509 -0.3831  0.0046
 4741TIP3    H138418   1.199   5.796  19.477  1.4034 -0.1638 -0.8913
 4741TIP3    H238419   1.266   5.931  19.470  0.0464  0.4916 -1.8230
 4742TIP3   OH238420   1.742   3.319  19.649 -0.2295  0.1232  0.2451
 4742TIP3    H138421   1.726   3.316  19.743 -1.5298 -2.2553  0.0047
 4742TIP3    H238422   1.655   3.328  19.610  0.3243  1.5568 -0.7800
 4743TIP3   OH238423   0.125   0.805  18.540 -0.1843 -0.1117 -0.3531
 4743TIP3    H138424   0.211   0.831  18.506 -0.1247  1.1818  0.6773
 4743TIP3    H238425   0.070   0.796  18.462  0.3068  1.3502 -0.9058
 4744TIP3   OH238426   6.469   4.693  18.746 -0.1710 -0.6748  0.3951
 4744TIP3    H138427   6.414   4.746  18.804 -0.3960 -1.0360  0.5143
 4744TIP3    H238428   6.490   4.751  18.673 -0.4786 -0.4463  0.4868
 4745TIP3   OH238429   5.411   0.281  18.279 -0.1344 -0.7963  0.5102
 4745TIP3    H138430   5.316   0.296  18.285 -0.2724 -1.0485 -0.8230
 4745TIP3    H238431   5.426   0.255  18.188  1.7603  3.1764 -0.5385
 4746TIP3   OH238432   6.693   1.887  19.874  0.0299  0.2432 -0.3134
 4746TIP3    H138433   6.717   1.797  19.896  0.7230  0.4999  0.0328
 4746TIP3    H238434   6.775   1.926  19.843  0.0341  1.1089  0.7312
 4747TIP3   OH238435   5.651   5.132  19.441 -0.1733 -0.6421 -0.4304
 4747TIP3    H138436   5.601   5.062  19.483 -1.6344  0.5349 -0.1237
 4747TIP3    H238437   5.631   5.211  19.492  1.4642  0.0201 -0.7262
 4748TIP3   OH238438   0.268   6.377  18.200  0.4565 -0.0150  0.4961
 4748TIP3    H138439   0.345   6.322  18.208 -0.2804 -1.0868  0.5151
 4748TIP3    H238440   0.242   6.369  18.108 -0.4623 -0.8586  0.8106
 4749TIP3   OH238441   6.414   5.188  17.121 -0.0850 -0.0677  0.1518
 4749TIP3    H138442   6.382   5.108  17.164  0.6143 -0.1817  0.4714
 4749TIP3    H238443   6.471   5.229  17.186  0.1279  0.3231 -0.2767
 4750TIP3   OH238444   4.706   5.977  17.132  0.1039 -0.0203  0.4156
 4750TIP3    H138445   4.689   6.039  17.203 -1.0295 -1.7521  1.7512
 4750TIP3    H238446   4.623   5.971  17.084  0.6382  0.5603 -0.6096
 4751TIP3   OH238447   5.577   0.077  20.203 -0.0025  0.3847 -0.2674
 4751TIP3    H138448   5.510   0.083  20.134 -0.1551  0.3060 -0.1254
 4751TIP3    H238449   5.537   0.119  20.279 -0.2728 -0.5202  0.1113
 4752TIP3   OH238450   2.634   3.521  19.208 -0.0045 -0.1190  0.4038
 4752TIP3    H138451   2.650   3.602  19.257 -1.2917 -0.3578  1.2860
 4752TIP3    H238452   2.708   3.514  19.148  1.6571  0.2100  2.3055
 4753TIP3   OH238453   5.575   0.866  17.363  0.3260  0.0299 -0.0968
 4753TIP3    H138454   5.532   0.936  17.314 -0.3637  0.8607  1.6254
 4753TIP3    H238455   5.599   0.802  17.296 -0.9921  0.8820 -1.4620
 4754TIP3   OH238456   3.533   6.511  18.791 -0.1709 -0.4889 -0.5944
 4754TIP3    H138457   3.460   6.568  18.767 -1.9665 -2.6289 -0.5985
 4754TIP3    H238458   3.509   6.425  18.755  1.1601 -1.8552  1.5336
 4755TIP3   OH238459   3.846   2.802  19.673  0.0613 -0.0412  0.0077
 4755TIP3    H138460   3.933   2.770  19.698  0.3820  0.7709 -0.0354
 4755TIP3    H238461   3.863   2.886  19.629 -0.6073 -0.6715 -1.5404
 4756TIP3   OH238462   4.484   4.188  19.737  0.0831  0.1351 -0.3031
 4756TIP3    H138463   4.437   4.270  19.720  2.1208  1.2969 -0.6246
 4756TIP3    H238464   4.544   4.209  19.808 -0.1879 -1.4517  0.4384
 4757TIP3   OH238465   1.795   3.860  19.279  0.3031 -0.5120  0.1927
 4757TIP3    H138466   1.770   3.798  19.347 -1.3571  0.5612  0.6215
 4757TIP3    H238467   1.712   3.893  19.245  1.1177  1.5535  0.0699
 4758TIP3   OH238468   3.759   1.242  18.300  0.0209  0.0611  0.0894
 4758TIP3    H138469   3.682   1.189  18.281 -0.0929  0.1460  0.3114
 4758TIP3    H238470   3.745   1.273  18.389 -0.8967  2.1421 -0.7162
 4759TIP3   OH238471   6.674   3.906  18.865  0.5612 -0.0001  0.3173
 4759TIP3    H138472   6.715   3.877  18.784  1.6153  0.6784  0.5786
 4759TIP3    H238473   6.692   3.835  18.927  0.5881 -0.0956  0.2011
 4760TIP3   OH238474   1.502   0.976  17.977 -0.4300 -0.1311 -0.2365
 4760TIP3    H138475   1.464   1.028  17.906 -0.8515  0.1286  0.1754
 4760TIP3    H238476   1.474   0.886  17.959  1.3702 -0.4706 -1.6756
 4761TIP3   OH238477   3.746   0.248  18.294 -0.6127 -0.0659 -0.6049
 4761TIP3    H138478   3.652   0.253  18.312 -0.1537 -0.1749  2.3149
 4761TIP3    H238479   3.765   0.154  18.295 -0.2292  0.0080  0.5504
 4762TIP3   OH238480   2.748   1.306  17.166 -0.5428 -0.1115  0.2136
 4762TIP3    H138481   2.689   1.381  17.172 -0.3200  0.0002  1.0814
 4762TIP3    H238482   2.835   1.342  17.186 -0.2294 -0.3540 -0.6536
 4763TIP3   OH238483   1.637   6.578  17.529  0.4522 -0.1749  0.2252
 4763TIP3    H138484   1.731   6.564  17.522  0.9251  2.6363 -0.5007
 4763TIP3    H238485   1.603   6.558  17.442  0.4174 -0.7770  0.3704
 4764TIP3   OH238486   1.506   6.584  19.707  0.1323 -0.1798 -0.2421
 4764TIP3    H138487   1.530   6.512  19.766 -1.1943 -0.8851 -0.5323
 4764TIP3    H238488   1.528   6.663  19.756  3.2473 -0.7129 -0.5671
 4765TIP3   OH238489   6.054   4.935  20.393  0.3377  0.1183 -0.6378
 4765TIP3    H138490   5.972   4.927  20.346  0.5059 -1.0995 -0.7530
 4765TIP3    H238491   6.111   4.984  20.334 -0.2459  0.8503 -0.6105
 4766TIP3   OH238492   5.922   2.355  18.387 -0.3439  0.3255  0.5474
 4766TIP3    H138493   5.897   2.263  18.377  1.1698 -0.1797  1.1759
 4766TIP3    H238494   5.883   2.381  18.471 -0.4710  0.1516  0.5418
 4767TIP3   OH238495   1.330   1.390  19.680 -0.4914  0.2467 -0.1153
 4767TIP3    H138496   1.333   1.298  19.707 -2.3134  1.0457  3.4955
 4767TIP3    H238497   1.299   1.388  19.589 -0.0074 -2.6607 -0.2980
 4768TIP3   OH238498   3.118   4.328  19.869  0.1673 -0.4520 -0.2757
 4768TIP3    H138499   3.094   4.344  19.960 -0.0082  1.3913 -0.6223
 4768TIP3    H238500   3.141   4.414  19.834 -2.3276 -0.6121 -2.7080
 4769TIP3   OH238501   0.835   4.820  17.609 -0.3788 -0.3219  0.0616
 4769TIP3    H138502   0.794   4.734  17.599 -3.0803  0.8276  0.3087
 4769TIP3    H238503   0.853   4.826  17.703 -2.2216  0.1547  0.4282
 4770TIP3   OH238504   4.010   5.651  18.410 -0.1148  0.1562 -0.0806
 4770TIP3    H138505   4.033   5.558  18.417  0.7650  0.3820  0.2560
 4770TIP3    H238506   3.944   5.655  18.341  2.1144 -0.3687 -2.3847
 4771TIP3   OH238507   5.735   3.633  19.910 -0.0533 -0.3250 -0.7682
 4771TIP3    H138508   5.772   3.701  19.967 -1.0065  0.5473 -1.1579
 4771TIP3    H238509   5.809   3.603  19.857  0.3405  0.5727 -0.7371
 4772TIP3   OH238510   5.383   3.415  18.847  0.2792  0.5112 -0.9905
 4772TIP3    H138511   5.362   3.501  18.810  0.9728  1.1157 -0.0203
 4772TIP3    H238512   5.303   3.388  18.891  0.9617  2.1157  1.3987
 4773TIP3   OH238513   5.350   5.359  16.699 -0.0700 -0.3309 -0.0864
 4773TIP3    H138514   5.355   5.325  16.610  3.0433  0.3841 -0.2779
 4773TIP3    H238515   5.426   5.323  16.744 -1.1327 -0.0409  2.0879
 4774TIP3   OH238516   3.893   6.424  19.548 -0.3459 -0.2339  0.2440
 4774TIP3    H138517   3.914   6.479  19.472  0.0980 -0.0109  0.5208
 4774TIP3    H238518   3.902   6.483  19.623  2.5500 -1.2200  0.8044
 4775TIP3   OH238519   3.002   3.234  19.828 -0.5089 -0.3267 -0.3404
 4775TIP3    H138520   2.982   3.170  19.759 -1.2470 -2.0771  1.3884
 4775TIP3    H238521   2.916   3.268  19.853 -0.6038 -1.8621  1.6219
 4776TIP3   OH238522   2.563   5.796  17.512  0.2844 -0.0342 -0.2939
 4776TIP3    H138523   2.537   5.706  17.530 -1.0324  0.2511 -0.7085
 4776TIP3    H238524   2.656   5.789  17.489  0.0039 -1.4002 -1.1547
 4777TIP3   OH238525   0.077   6.320  17.988  0.1681  0.5405  0.0076
 4777TIP3    H138526   0.035   6.397  17.950  2.2329  1.7708  0.0452
 4777TIP3    H238527   0.053   6.248  17.931 -0.7783  1.4463 -0.7696
 4778TIP3   OH238528   2.212   1.069  17.966  0.2289  0.0775 -0.3323
 4778TIP3    H138529   2.221   1.053  18.060 -1.0229 -2.5665 -0.5571
 4778TIP3    H238530   2.292   1.114  17.941 -0.4159  3.0607  2.3520
 4779TIP3   OH238531   2.555   3.316  18.675 -0.6883 -0.4989  0.0262
 4779TIP3    H138532   2.560   3.402  18.634  1.9057  0.4605  2.0901
 4779TIP3    H238533   2.572   3.254  18.604  0.0672  0.8588 -1.0256
 4780TIP3   OH238534   2.220   3.984  17.547 -0.3679  0.1526 -0.1267
 4780TIP3    H138535   2.161   3.914  17.518 -3.1109  0.8795  3.1046
 4780TIP3    H238536   2.288   3.939  17.596 -0.9677 -0.4327  0.1913
 4781TIP3   OH238537   0.023   4.201  18.047 -0.0275  0.0505 -0.0662
 4781TIP3    H138538   0.090   4.269  18.056 -1.8800  2.0053 -0.3042
 4781TIP3    H238539  -0.009   4.211  17.957 -1.9251  0.4638  0.6168
 4782TIP3   OH238540   4.390   6.712  17.901  0.1597 -0.1435  0.1268
 4782TIP3    H138541   4.335   6.770  17.953 -0.7679 -1.2984  0.4642
 4782TIP3    H238542   4.336   6.688  17.826  0.1027 -1.4799  0.5816
 4783TIP3   OH238543   6.313   1.535  17.543 -0.6858 -0.2592 -0.6200
 4783TIP3    H138544   6.311   1.440  17.536 -0.4978 -0.2513 -0.8098
 4783TIP3    H238545   6.322   1.565  17.453  1.2479 -0.1329 -0.4461
 4784TIP3   OH238546   6.539   6.640  19.555  0.5522  1.0881  0.5371
 4784TIP3    H138547   6.461   6.585  19.548 -0.8255  2.9783 -0.0074
 4784TIP3    H238548   6.542   6.664  19.648  0.1216  1.4550  0.4644
 4785TIP3   OH238549   4.228   6.262  19.820  0.2990  0.2151 -0.2894
 4785TIP3    H138550   4.224   6.194  19.887  1.6506  0.4662  0.0701
 4785TIP3    H238551   4.139   6.266  19.785 -0.3669 -0.1330  1.2706
 4786TIP3   OH238552   6.120   5.123  18.356 -0.3608  0.1068 -0.5685
 4786TIP3    H138553   6.181   5.177  18.305  1.0177 -0.8808 -0.0463
 4786TIP3    H238554   6.125   5.157  18.445 -1.2988  0.6095 -0.7036
 4787TIP3   OH238555   1.130   0.366  19.177  0.4697  0.2949 -0.1293
 4787TIP3    H138556   1.046   0.411  19.173  0.9012  1.1587  0.4074
 4787TIP3    H238557   1.154   0.368  19.270  0.1711 -1.6792  0.0423
 4788TIP3   OH238558   2.685   1.697  18.563  0.5761 -0.2711 -0.1080
 4788TIP3    H138559   2.649   1.614  18.593  1.8101  0.2673  3.2977
 4788TIP3    H238560   2.649   1.762  18.624  0.5472  1.5781 -1.9761
 4789TIP3   OH238561   5.670   0.095  18.969 -0.4643  0.1467  0.1766
 4789TIP3    H138562   5.634   0.072  18.884  0.2505 -1.6995  0.3353
 4789TIP3    H238563   5.762   0.070  18.964 -0.5283 -0.4788  1.6387
 4790TIP3   OH238564   1.980   3.331  20.218 -0.0357  0.7102 -0.3623
 4790TIP3    H138565   2.054   3.370  20.263 -0.8965  0.9757  0.8583
 4790TIP3    H238566   2.019   3.264  20.162  1.1130  0.7839  0.3211
 4791TIP3   OH238567   0.528   5.242  17.898  0.4733  0.3822  0.1395
 4791TIP3    H138568   0.468   5.170  17.883  1.1631  0.2023 -2.0164
 4791TIP3    H238569   0.543   5.241  17.993 -2.3405  0.0286  0.6597
 4792TIP3   OH238570   4.239   1.071  17.599  0.5334 -0.1533  0.3280
 4792TIP3    H138571   4.208   1.068  17.509  1.4532  1.8438 -0.0957
 4792TIP3    H238572   4.194   1.145  17.639 -0.8457 -1.7655  1.9541
 4793TIP3   OH238573   5.757   5.815  17.123 -0.2250  0.1750 -0.6168
 4793TIP3    H138574   5.839   5.858  17.144 -0.5736 -0.1595  1.6296
 4793TIP3    H238575   5.693   5.885  17.120 -0.2725  0.1699  0.0997
 4794TIP3   OH238576   0.799   5.910  17.981  0.5419  0.5409  0.2988
 4794TIP3    H138577   0.765   5.985  18.030 -1.6884 -1.1367  1.5017
 4794TIP3    H238578   0.728   5.886  17.921  1.3445 -0.3971 -0.3110
 4795TIP3   OH238579   0.901   3.015  17.792  0.1616  0.0301 -0.1842
 4795TIP3    H138580   0.906   3.039  17.699 -1.3697  1.9392  0.1682
 4795TIP3    H238581   0.872   2.923  17.791  0.3771 -0.0450 -1.5958
 4796TIP3   OH238582   1.561   2.470  17.395  0.2861 -0.2940 -0.0985
 4796TIP3    H138583   1.498   2.522  17.445 -0.7934 -0.5887 -1.0863
 4796TIP3    H238584   1.562   2.385  17.438  0.1435 -0.2325  0.0265
 4797TIP3   OH238585   1.355   6.019  18.697  0.2271 -0.6619  0.3001
 4797TIP3    H138586   1.341   5.975  18.780 -0.9362  0.6161  0.8186
 4797TIP3    H238587   1.392   6.104  18.720 -0.9524  0.0730 -0.3857
 4798TIP3   OH238588   3.149   4.810  18.042  0.1168  0.5387 -0.1717
 4798TIP3    H138589   3.094   4.764  18.105  0.6503  2.7418  2.0751
 4798TIP3    H238590   3.087   4.859  17.988 -0.2984 -0.5161 -0.6690
 4799TIP3   OH238591   2.507   2.835  17.902  0.2329  0.0898 -0.3684
 4799TIP3    H138592   2.454   2.905  17.864 -0.2103 -1.2184 -2.3543
 4799TIP3    H238593   2.449   2.789  17.962  0.3936  1.1268  0.6001
 4800TIP3   OH238594   4.679   4.284  19.181  0.7120 -0.1534  0.5478
 4800TIP3    H138595   4.718   4.281  19.094 -2.2842 -1.2105 -0.9066
 4800TIP3    H238596   4.700   4.199  19.219  1.1760 -0.0876  0.4418
 4801TIP3   OH238597   0.950   3.716  19.749  0.4791 -0.3737 -0.1289
 4801TIP3    H138598   0.864   3.757  19.739  0.7214  0.0091 -0.6832
 4801TIP3    H238599   0.968   3.720  19.843  0.7904  1.4374 -0.2327
 4802TIP3   OH238600   0.103   5.905  19.584  0.2103 -0.0149  0.3255
 4802TIP3    H138601   0.117   5.857  19.502 -0.0755 -1.9826  1.3592
 4802TIP3    H238602   0.024   5.956  19.569  0.3327 -0.1195 -0.7247
 4803TIP3   OH238603   4.407   2.235  18.763  0.2812  0.1294  0.1868
 4803TIP3    H138604   4.362   2.311  18.802 -1.7663  0.5967 -2.7427
 4803TIP3    H238605   4.339   2.168  18.756  0.6214 -0.0491 -2.0788
 4804TIP3   OH238606   0.603   0.097  18.293 -0.1343  0.6015 -0.8131
 4804TIP3    H138607   0.631   0.094  18.384  0.5315 -3.2277 -1.0094
 4804TIP3    H238608   0.508   0.100  18.296 -0.1486 -0.5356  0.0256
 4805TIP3   OH238609   0.898   6.626  19.488 -0.7256 -0.2233 -0.3070
 4805TIP3    H138610   0.807   6.622  19.459 -1.4413 -0.2917  1.7567
 4805TIP3    H238611   0.923   6.535  19.503 -0.8482 -0.1222  0.5755
 4806TIP3   OH238612   3.236   3.814  17.575  0.2028  0.4180 -0.7064
 4806TIP3    H138613   3.278   3.863  17.504  0.6783  0.0288 -0.6968
 4806TIP3    H238614   3.293   3.740  17.590 -0.1265  0.2606 -0.2063
 4807TIP3   OH238615   0.826   0.994  19.835  0.0117  0.0974 -0.4166
 4807TIP3    H138616   0.763   1.064  19.852  0.8495  1.2306 -1.7444
 4807TIP3    H238617   0.901   1.039  19.796  0.1715 -1.6553 -2.2473
 4808TIP3   OH238618   0.307   2.897  18.146  0.5173 -0.0397 -0.0257
 4808TIP3    H138619   0.214   2.881  18.136  0.3957  1.0200 -0.7871
 4808TIP3    H238620   0.314   2.952  18.225  0.3912  0.6386 -0.4756
 4809TIP3   OH238621   3.492   0.958  17.993  0.5660  0.0907  0.6149
 4809TIP3    H138622   3.478   0.978  17.901  0.3940  0.2753  0.6818
 4809TIP3    H238623   3.586   0.967  18.006  0.7252 -0.8991  0.2242
 4810TIP3   OH238624   3.217   5.551  17.463  0.1969 -0.0691 -0.0533
 4810TIP3    H138625   3.230   5.462  17.496  0.2682 -1.2566 -3.0362
 4810TIP3    H238626   3.129   5.550  17.426 -0.9212  1.9991  2.2525
 4811TIP3   OH238627   0.525   6.197  18.521 -0.6181 -0.0315  0.6276
 4811TIP3    H138628   0.549   6.127  18.461  2.2005  0.4169  1.0881
 4811TIP3    H238629   0.503   6.271  18.465  2.3458  0.5070 -0.0365
 4812TIP3   OH238630   4.003   6.355  19.070 -0.2452  0.1495 -0.0681
 4812TIP3    H138631   4.013   6.410  18.992 -0.5237 -1.3957 -1.2453
 4812TIP3    H238632   3.918   6.379  19.106  0.0937  1.2151  0.0504
 4813TIP3   OH238633   3.842   5.490  20.525 -0.0009  0.3481  0.5417
 4813TIP3    H138634   3.887   5.424  20.578  0.4634  0.6311  0.4992
 4813TIP3    H238635   3.892   5.570  20.538 -0.1403  0.5234  0.0148
 4814TIP3   OH238636   3.820   4.805  18.280  0.9261 -0.1195  0.1221
 4814TIP3    H138637   3.897   4.802  18.224  1.2814  0.1864  0.5896
 4814TIP3    H238638   3.781   4.718  18.272  1.8664 -0.6037  0.6314
 4815TIP3   OH238639   4.209   2.156  17.287  0.1760  0.0020  0.2994
 4815TIP3    H138640   4.262   2.235  17.278  2.2901 -1.2452  0.9911
 4815TIP3    H238641   4.237   2.100  17.215 -2.1304  0.2477 -0.8846
 4816TIP3   OH238642   2.216   1.271  19.884  0.0836  0.0286 -0.2160
 4816TIP3    H138643   2.184   1.350  19.842 -1.4255 -0.2215  0.4056
 4816TIP3    H238644   2.309   1.267  19.861 -0.1189  1.2713 -1.3259
 4817TIP3   OH238645   0.208   1.512  20.293 -0.1935 -0.4605  0.0840
 4817TIP3    H138646   0.212   1.566  20.371  0.8861  1.1804 -1.0466
 4817TIP3    H238647   0.137   1.550  20.241  0.9166  0.2697 -0.9572
 4818TIP3   OH238648   5.311   1.767  18.299 -0.2548  0.5899  0.7194
 4818TIP3    H138649   5.372   1.725  18.238  0.2618  3.0211 -0.5614
 4818TIP3    H238650   5.367   1.808  18.364 -0.5926  1.3788  0.5229
 4819TIP3   OH238651   1.455   5.244  18.749  0.8876 -0.0439  0.3905
 4819TIP3    H138652   1.545   5.262  18.721  2.0672  1.5206  4.4829
 4819TIP3    H238653   1.461   5.231  18.843 -2.9553 -2.1720  0.5374
 4820TIP3   OH238654   2.327   1.091  19.656  0.1445  0.4439  0.2893
 4820TIP3    H138655   2.379   1.100  19.576  1.5897  0.8066  1.2288
 4820TIP3    H238656   2.389   1.109  19.727 -0.8879 -0.6988  1.5359
 4821TIP3   OH238657   1.486   2.368  19.545  0.0520 -0.5299  0.1289
 4821TIP3    H138658   1.436   2.292  19.516 -0.7621  0.6121 -1.6221
 4821TIP3    H238659   1.549   2.383  19.475 -0.3820  0.9119  0.0221
 4822TIP3   OH238660   0.640   4.598  17.219 -0.3209 -0.1592 -0.5031
 4822TIP3    H138661   0.679   4.567  17.301  2.2656  0.9720 -1.2050
 4822TIP3    H238662   0.709   4.588  17.154 -1.0492  2.3162 -1.7801
 4823TIP3   OH238663   4.989   5.525  19.685 -0.0042 -0.0238  0.1249
 4823TIP3    H138664   5.084   5.514  19.677  0.0436  0.8591 -0.6382
 4823TIP3    H238665   4.953   5.467  19.617 -0.1817 -2.6696  2.3209
 4824TIP3   OH238666   0.458   1.563  19.546  0.3818 -0.6803 -0.3045
 4824TIP3    H138667   0.463   1.493  19.611 -1.7408  0.9112  1.7479
 4824TIP3    H238668   0.373   1.550  19.503  0.2237  0.2789 -0.2996
 4825TIP3   OH238669   2.709   3.941  17.711  0.4136  0.0605  0.2441
 4825TIP3    H138670   2.804   3.945  17.709  0.4921 -1.2464 -2.3138
 4825TIP3    H238671   2.688   3.848  17.716 -0.6617  0.1372 -1.7833
 4826TIP3   OH238672   0.856   6.278  17.771  0.9335  0.2479 -0.0308
 4826TIP3    H138673   0.787   6.317  17.717  0.5709  0.8043  0.8206
 4826TIP3    H238674   0.937   6.320  17.742  0.8127  0.1639 -0.4935
 4827TIP3   OH238675   1.288   5.569  19.088 -0.3647 -0.5567 -0.8812
 4827TIP3    H138676   1.239   5.516  19.025 -0.5991 -2.5735  0.8663
 4827TIP3    H238677   1.378   5.535  19.083 -0.0148  0.4071 -1.2753
 4828TIP3   OH238678   0.284   1.337  17.010 -0.3639  0.3958 -0.0927
 4828TIP3    H138679   0.190   1.355  17.014 -0.7751 -1.0780 -1.7210
 4828TIP3    H238680   0.293   1.275  16.938  1.7305 -0.4009  0.7808
 4829TIP3   OH238681   4.352   1.115  17.984 -0.1913  0.1153  0.0038
 4829TIP3    H138682   4.381   1.152  18.067 -0.2165 -0.9222  0.4907
 4829TIP3    H238683   4.432   1.081  17.943 -0.3104 -0.1994  0.0298
 4830TIP3   OH238684   3.284   4.937  17.130  0.4627  0.5506  0.1188
 4830TIP3    H138685   3.234   4.883  17.069 -2.2120  0.0181  2.5472
 4830TIP3    H238686   3.276   5.026  17.096 -0.6929  0.2377 -0.4937
 4831TIP3   OH238687   4.597   6.473  17.711  0.1227  0.1354 -0.9969
 4831TIP3    H138688   4.509   6.466  17.748  1.1302 -1.4120  1.3833
 4831TIP3    H238689   4.616   6.385  17.677  1.0924  0.1752 -0.5889
 4832TIP3   OH238690   3.777   5.472  18.344  0.0704  0.5010  0.0814
 4832TIP3    H138691   3.748   5.445  18.257  2.6582 -0.3056 -0.6279
 4832TIP3    H238692   3.828   5.398  18.377 -0.2591  1.0709  2.0047
 4833TIP3   OH238693   4.508   4.434  19.353 -0.3889  0.0554 -0.3766
 4833TIP3    H138694   4.444   4.435  19.282 -0.5820 -0.2843 -0.2066
 4833TIP3    H238695   4.575   4.371  19.326 -0.6082 -0.2862 -0.1299
 4834TIP3   OH238696   5.122   5.047  19.634  0.2534 -0.2098  0.2255
 4834TIP3    H138697   5.071   4.987  19.579 -0.1518 -1.2941  1.7129
 4834TIP3    H238698   5.056   5.093  19.686  0.6512  0.4008  0.1891
 4835TIP3   OH238699   4.220   3.034  19.464 -0.1740  0.3395 -0.3121
 4835TIP3    H138700   4.130   3.056  19.488  0.1395  0.5324  0.7741
 4835TIP3    H238701   4.273   3.070  19.536  0.7026 -0.3793 -0.5762
 4836TIP3   OH238702   4.067   1.778  18.914 -1.0724 -0.0469  0.2010
 4836TIP3    H138703   3.990   1.725  18.936 -0.0693 -1.2030  0.9941
 4836TIP3    H238704   4.116   1.725  18.851 -0.2725  0.1145  0.6823
 4837TIP3   OH238705   2.692   2.989  18.037  0.2548  0.0287  0.1617
 4837TIP3    H138706   2.659   3.079  18.046  0.2115 -0.1591  2.5282
 4837TIP3    H238707   2.613   2.934  18.039  0.3821 -0.1447  0.5707
 4838TIP3   OH238708   2.706   1.469  19.882 -0.3376 -0.2656 -0.6189
 4838TIP3    H138709   2.769   1.465  19.953 -1.9103  0.8533  0.9211
 4838TIP3    H238710   2.758   1.495  19.805  0.9889  1.3051  0.7383
 4839TIP3   OH238711   3.119   0.217  20.037  0.3228 -0.0593  0.3531
 4839TIP3    H138712   3.124   0.215  19.941 -0.7498 -0.6858  0.2938
 4839TIP3    H238713   3.167   0.296  20.062  0.3731  0.2628 -0.7134
 4840TIP3   OH238714   3.947   5.019  20.745  0.1437 -0.5583  0.0578
 4840TIP3    H138715   4.030   5.004  20.790  0.2740 -2.9898 -0.8355
 4840TIP3    H238716   3.930   4.937  20.698 -1.1805  1.0164 -2.3833
 4841TIP3   OH238717   2.968   5.515  17.693 -0.3803 -0.0546  0.2194
 4841TIP3    H138718   3.045   5.471  17.730  0.0362  0.3793 -0.1219
 4841TIP3    H238719   2.954   5.473  17.609  0.8820  1.3739 -0.7621
 4842TIP3   OH238720   3.503   4.782  18.559 -0.2252 -0.0076  0.2155
 4842TIP3    H138721   3.506   4.853  18.623 -1.0340 -1.3229  1.8043
 4842TIP3    H238722   3.573   4.723  18.586 -0.7830 -0.7378  0.0797
 4843TIP3   OH238723   6.096   1.561  19.133  0.3194  0.1062  0.3890
 4843TIP3    H138724   6.116   1.576  19.041 -0.4520 -0.8328  0.0617
 4843TIP3    H238725   6.169   1.507  19.165  0.0970 -0.3833  0.0786
 4844TIP3   OH238726   0.455   0.187  18.570 -0.0766 -0.2439  0.0716
 4844TIP3    H138727   0.425   0.255  18.510  0.2700  0.5198  0.7380
 4844TIP3    H238728   0.502   0.235  18.639  0.0525 -1.1454  0.6320
 4845TIP3   OH238729   2.382   4.943  17.875 -0.3040  0.2803  0.6326
 4845TIP3    H138730   2.306   4.896  17.842 -0.1967  1.0943 -0.8846
 4845TIP3    H238731   2.447   4.875  17.894 -0.6068 -0.2686 -0.2660
 4846TIP3   OH238732   5.549   2.868  20.322  0.3159  0.4294  0.2543
 4846TIP3    H138733   5.507   2.795  20.368  0.4110  0.7750  0.9032
 4846TIP3    H238734   5.546   2.843  20.230 -0.2627 -0.0860  0.4061
 4847TIP3   OH238735   0.808   4.544  18.344 -0.4299 -0.4150 -0.2419
 4847TIP3    H138736   0.865   4.531  18.268  0.4597 -2.7920  0.7387
 4847TIP3    H238737   0.863   4.587  18.409 -0.9382  0.8049 -0.5777
 4848TIP3   OH238738   2.579   4.826  18.347  0.2519  0.1834  0.2905
 4848TIP3    H138739   2.575   4.868  18.433 -0.3583  0.4237  0.1460
 4848TIP3    H238740   2.633   4.748  18.361 -0.2635 -0.0571  1.0008
 4849TIP3   OH238741   4.791   3.614  17.505 -0.0840  0.1679  0.1091
 4849TIP3    H138742   4.731   3.666  17.558  0.5416  0.7744  0.2370
 4849TIP3    H238743   4.737   3.543  17.469 -1.2256  1.5510 -1.0077
 4850TIP3   OH238744   2.084   2.415  19.016  0.1536  0.5685 -0.0315
 4850TIP3    H138745   2.166   2.444  19.056  0.0154 -0.3087  0.9288
 4850TIP3    H238746   2.109   2.345  18.956  0.2631  1.3170 -0.8818
 4851TIP3   OH238747   1.190   1.081  17.546  0.1036  0.3268 -0.4510
 4851TIP3    H138748   1.107   1.097  17.591  0.0169  4.3916 -1.6937
 4851TIP3    H238749   1.257   1.100  17.611  0.0857 -0.3680 -0.2153
 4852TIP3   OH238750   2.133   4.387  19.463 -0.7346 -0.0980 -0.4607
 4852TIP3    H138751   2.213   4.387  19.411 -1.0425 -1.9244 -1.0087
 4852TIP3    H238752   2.162   4.373  19.553 -0.4235 -0.5801 -0.6342
 4853TIP3   OH238753   0.563   4.803  17.557 -0.4649 -0.5761  0.0190
 4853TIP3    H138754   0.655   4.828  17.545 -0.2462 -1.7222 -0.8234
 4853TIP3    H238755   0.513   4.880  17.530  0.2170 -0.3261 -0.5508
 4854TIP3   OH238756   1.222   4.604  18.955  0.5915 -0.6054 -0.3400
 4854TIP3    H138757   1.285   4.620  19.025 -0.1340 -1.6923  0.6040
 4854TIP3    H238758   1.157   4.546  18.994 -1.0337  0.5126 -1.2632
 4855TIP3   OH238759   6.493   0.098  17.051 -0.2174 -0.2246  0.2720
 4855TIP3    H138760   6.546   0.027  17.087 -0.3566 -0.5400 -0.1406
 4855TIP3    H238761   6.554   0.149  16.998  0.0696  0.4506  1.2338
 4856TIP3   OH238762   0.718   4.854  18.137 -0.4120 -0.4486 -0.2729
 4856TIP3    H138763   0.807   4.885  18.149 -1.1593  1.9702 -0.5577
 4856TIP3    H238764   0.691   4.824  18.224 -0.0284  0.8350  0.3077
 4857TIP3   OH238765   3.638   3.655  17.661 -0.1348 -0.3456  0.0775
 4857TIP3    H138766   3.642   3.699  17.576  1.4225  1.2305  0.9085
 4857TIP3    H238767   3.567   3.591  17.651  0.3460 -0.5932 -2.5656
 4858TIP3   OH238768   3.854   1.558  18.869  0.0090  0.0370  0.0075
 4858TIP3    H138769   3.919   1.500  18.829 -1.0681 -0.7783 -0.6477
 4858TIP3    H238770   3.824   1.613  18.797 -1.2264 -0.7594 -0.1250
 4859TIP3   OH238771   6.672   0.387  18.667  0.2037  0.2479 -0.3290
 4859TIP3    H138772   6.751   0.369  18.615  1.2286  0.9653  0.9116
 4859TIP3    H238773   6.686   0.475  18.702 -1.4169  0.6049 -0.5076
 4860TIP3   OH238774   0.463   0.585  17.013  0.2531 -0.2079  0.1528
 4860TIP3    H138775   0.424   0.620  16.933  1.0013  1.6402  0.5436
 4860TIP3    H238776   0.464   0.659  17.074  0.7447 -1.2663  1.4909
 4861TIP3   OH238777   1.398   1.129  19.830 -0.2138  0.0227  0.6262
 4861TIP3    H138778   1.384   1.128  19.925  1.2538  0.6826  0.8873
 4861TIP3    H238779   1.482   1.173  19.819 -0.7561  0.7269 -1.0500
 4862TIP3   OH238780   1.124   3.874  17.645  0.0519 -0.2511  0.3082
 4862TIP3    H138781   1.144   3.823  17.567 -2.0990  0.1124 -0.5497
 4862TIP3    H238782   1.069   3.816  17.698  1.7353 -0.6110  1.7531
 4863TIP3   OH238783   4.580   3.333  17.481  0.3879  0.1337  0.1692
 4863TIP3    H138784   4.528   3.269  17.433  0.1357  0.1925  0.3611
 4863TIP3    H238785   4.667   3.293  17.487  0.7608  0.6551 -1.3798
 4864TIP3   OH238786   3.342   3.153  17.961 -1.0287  0.7184  0.5559
 4864TIP3    H138787   3.382   3.081  17.912  0.2247  2.6650 -1.4197
 4864TIP3    H238788   3.271   3.185  17.905 -0.7335  1.8619  0.8126
 4865TIP3   OH238789   2.244   4.360  19.705 -0.5295  0.2231  0.0519
 4865TIP3    H138790   2.158   4.352  19.745 -2.4828  0.5156 -3.6840
 4865TIP3    H238791   2.264   4.454  19.708 -1.2216  0.3998 -0.6656
 4866TIP3   OH238792   4.029   1.244  19.703  0.4552 -0.0840  0.3862
 4866TIP3    H138793   3.990   1.240  19.615  1.2702  0.1227  0.0097
 4866TIP3    H238794   4.005   1.330  19.736  1.1421  0.3097 -0.1125
 4867TIP3   OH238795   1.746   0.896  19.280 -0.0308  0.1181  0.4509
 4867TIP3    H138796   1.748   0.821  19.221 -1.7095  0.9835 -0.7830
 4867TIP3    H238797   1.836   0.904  19.311  0.7872 -0.7467 -1.5336
 4868TIP3   OH238798   2.600   0.278  20.092  0.3637  0.0994  0.2550
 4868TIP3    H138799   2.581   0.329  20.171 -0.8542  0.8118 -0.4605
 4868TIP3    H238800   2.618   0.344  20.025  0.0304 -0.4426 -0.3760
 4869TIP3   OH238801   6.070   5.231  18.852 -0.3509  0.3932  0.0145
 4869TIP3    H138802   6.126   5.202  18.925 -1.7823 -0.4510  0.8093
 4869TIP3    H238803   6.009   5.293  18.892 -0.3155  0.9404 -0.7509
 4870TIP3   OH238804   5.971   6.206  17.956 -0.3815  0.7337 -0.2204
 4870TIP3    H138805   5.972   6.119  17.917 -0.2688  1.1042 -1.0773
 4870TIP3    H238806   5.990   6.265  17.883  3.3651  1.2561  0.9416
 4871TIP3   OH238807   5.465   0.669  19.581 -0.1008  0.1012 -0.5360
 4871TIP3    H138808   5.397   0.608  19.609 -0.2372 -0.3293 -1.7712
 4871TIP3    H238809   5.456   0.675  19.486 -0.0274  1.9818 -0.4711
 4872TIP3   OH238810   6.532   5.058  18.759 -0.3573  0.0036 -0.3080
 4872TIP3    H138811   6.557   5.146  18.731  0.7237 -0.2272 -0.1052
 4872TIP3    H238812   6.463   5.033  18.698  1.4335 -0.2021 -2.3881
 4873TIP3   OH238813   3.629   2.354  19.506  0.1985  0.3170  0.7099
 4873TIP3    H138814   3.639   2.449  19.520 -0.4350  0.2354  1.7574
 4873TIP3    H238815   3.709   2.316  19.542  0.7817  0.4918 -0.3524
 4874TIP3   OH238816   6.008   5.725  19.439 -0.3480 -0.5021  0.3498
 4874TIP3    H138817   6.024   5.691  19.351 -1.1345 -3.5228  1.2805
 4874TIP3    H238818   5.914   5.713  19.453 -0.2682  0.1134  1.5522
 4875TIP3   OH238819   5.360   6.121  19.355 -0.3591 -0.4453  0.2388
 4875TIP3    H138820   5.452   6.132  19.332 -0.6432 -1.8231 -1.7510
 4875TIP3    H238821   5.355   6.150  19.446  1.5243  2.0592 -0.3473
 4876TIP3   OH238822   2.552   2.256  16.931  0.4737 -0.5263  0.6387
 4876TIP3    H138823   2.619   2.260  16.999  2.7990  0.2275 -1.5479
 4876TIP3    H238824   2.515   2.344  16.928  2.8720  0.5251 -1.3004
 4877TIP3   OH238825   2.660   0.222  17.240 -0.2662  0.2699 -0.1327
 4877TIP3    H138826   2.591   0.199  17.178  0.0326  2.6639 -1.4347
 4877TIP3    H238827   2.714   0.286  17.195  3.7072 -2.3845  0.3126
 4878TIP3   OH238828   4.281   4.962  17.643  0.3122 -0.2415  0.3740
 4878TIP3    H138829   4.359   4.979  17.697  0.1132  1.5651  0.1494
 4878TIP3    H238830   4.212   4.944  17.706  0.3981  0.4779  0.6838
 4879TIP3   OH238831   3.031   0.765  17.524  0.2878 -0.2644  0.4064
 4879TIP3    H138832   3.052   0.819  17.447  0.1516 -0.2348  0.3903
 4879TIP3    H238833   3.116   0.743  17.561  0.4359 -1.5763 -0.6297
 4880TIP3   OH238834   5.378   5.307  19.807  0.3722 -0.1119  0.2541
 4880TIP3    H138835   5.410   5.351  19.885  1.8890 -0.1448 -0.3068
 4880TIP3    H238836   5.327   5.233  19.840  0.7946  0.0034  1.1967
 4881TIP3   OH238837   3.610   1.436  19.915  0.3993  0.3541 -0.1302
 4881TIP3    H138838   3.671   1.409  19.846 -0.6830 -1.1119 -0.5740
 4881TIP3    H238839   3.665   1.479  19.980  1.6662  0.4621 -1.2250
 4882TIP3   OH238840   3.849   3.997  19.270  0.0600 -0.7928 -0.4460
 4882TIP3    H138841   3.920   4.048  19.309 -0.5933 -0.0636 -0.1763
 4882TIP3    H238842   3.804   3.957  19.344 -1.4532  0.9540 -0.3495
 4883TIP3   OH238843   3.083   6.535  17.738  1.1858 -0.0279 -0.6551
 4883TIP3    H138844   3.168   6.552  17.698  0.7804 -0.3399 -1.6893
 4883TIP3    H238845   3.022   6.529  17.664 -0.2606  2.9052  0.1465
 4884TIP3   OH238846   0.932   4.641  16.614 -0.1671  0.4968 -0.0136
 4884TIP3    H138847   0.995   4.658  16.684 -0.2489  2.1472 -0.2934
 4884TIP3    H238848   0.986   4.619  16.538 -0.0419 -0.3864  0.3191
 4885TIP3   OH238849   0.737   5.771  16.689  0.3434 -0.1586  0.8059
 4885TIP3    H138850   0.706   5.861  16.694 -0.6908 -0.5538  2.0072
 4885TIP3    H238851   0.675   5.727  16.632  0.8714 -0.1197  0.1867
 4886TIP3   OH238852   6.255   2.676  17.281 -0.3241 -0.2835  0.6008
 4886TIP3    H138853   6.281   2.762  17.248 -0.1096 -0.3918  0.4862
 4886TIP3    H238854   6.159   2.677  17.276 -0.2918 -0.3217 -0.0940
 4887TIP3   OH238855   0.887   4.464  19.634 -0.7131 -0.5912 -0.1564
 4887TIP3    H138856   0.876   4.392  19.572 -2.9936 -2.9961  2.7489
 4887TIP3    H238857   0.932   4.425  19.709 -0.7399  1.3751  0.9623
 4888TIP3   OH238858   4.157   2.758  19.773 -0.1031 -0.8693 -0.5710
 4888TIP3    H138859   4.144   2.852  19.783 -0.3209 -0.8526 -0.9806
 4888TIP3    H238860   4.143   2.722  19.860 -1.1457 -0.6497 -0.6393
 4889TIP3   OH238861   5.503   0.217  19.181  0.2432 -0.2247  0.5317
 4889TIP3    H138862   5.426   0.162  19.168 -0.2637  0.1989  1.6725
 4889TIP3    H238863   5.555   0.204  19.101 -1.5726  0.4181 -0.8269
 4890TIP3   OH238864   5.796   4.780  20.437  0.3348  0.1903  0.4174
 4890TIP3    H138865   5.806   4.835  20.514  0.4218 -0.3585  0.8013
 4890TIP3    H238866   5.780   4.842  20.365 -3.1145  0.5937  1.3485
 4891TIP3   OH238867   5.173   0.604  19.495 -0.1580 -0.0232 -0.0432
 4891TIP3    H138868   5.205   0.610  19.585  1.4799 -2.3518 -0.3997
 4891TIP3    H238869   5.094   0.550  19.501 -0.5660  0.5644  0.0589
 4892TIP3   OH238870   3.424   4.170  18.760 -0.4602 -0.1761 -0.2677
 4892TIP3    H138871   3.492   4.104  18.775  0.6096  0.8301 -0.5695
 4892TIP3    H238872   3.414   4.214  18.844 -0.9315 -0.4907 -0.1562
 4893TIP3   OH238873   5.160   1.795  19.810  0.1416  0.1120  0.1518
 4893TIP3    H138874   5.105   1.731  19.765  0.4094 -0.9064  1.2050
 4893TIP3    H238875   5.128   1.880  19.780 -2.0647 -0.4279  0.7551
 4894TIP3   OH238876   2.818   0.633  17.253 -0.7199  0.3609 -0.1984
 4894TIP3    H138877   2.735   0.680  17.258  0.2246  3.1271 -4.5966
 4894TIP3    H238878   2.804   0.565  17.188  0.0941 -0.0314  0.0215
 4895TIP3   OH238879   0.846   5.347  18.702 -0.3549 -0.3970 -0.4239
 4895TIP3    H138880   0.776   5.349  18.636 -0.4813 -0.5037 -0.2951
 4895TIP3    H238881   0.920   5.391  18.660 -0.8211  0.6439 -0.1906
 4896TIP3   OH238882   4.401   4.758  17.829 -0.4195 -0.0854 -0.3839
 4896TIP3    H138883   4.397   4.824  17.898  1.9836 -0.9303  0.6552
 4896TIP3    H238884   4.466   4.792  17.767 -1.0006 -0.3366 -1.1426
 4897TIP3   OH238885   2.750   3.670  18.329  0.0263 -0.2477  0.6065
 4897TIP3    H138886   2.681   3.626  18.380  0.2031 -1.8949 -0.5131
 4897TIP3    H238887   2.702   3.732  18.273 -0.3464  0.0364  1.2191
 4898TIP3   OH238888   5.438   1.070  19.357 -0.0868  0.5105 -0.4014
 4898TIP3    H138889   5.436   0.987  19.404 -1.1795 -1.0338 -2.9478
 4898TIP3    H238890   5.347   1.097  19.350  0.3201  2.7567  1.5716
 4899TIP3   OH238891   0.522   3.919  20.298 -0.2761  0.8679 -0.2553
 4899TIP3    H138892   0.536   3.827  20.319 -0.1251  0.2341 -2.7326
 4899TIP3    H238893   0.610   3.955  20.287 -0.3452  0.8207 -1.0276
 4900TIP3   OH238894   6.194   3.414  19.711 -0.5590  0.0629  0.6021
 4900TIP3    H138895   6.119   3.471  19.729 -0.2470  0.2938  1.2096
 4900TIP3    H238896   6.252   3.468  19.657 -1.6398 -0.7370 -1.4857
 4901TIP3   OH238897   2.942   0.063  19.690  0.1394 -0.0124  0.4194
 4901TIP3    H138898   2.891   0.095  19.764 -0.3003  0.1025  0.0675
 4901TIP3    H238899   3.028   0.041  19.728  0.1797  0.8015  0.8206
 4902TIP3   OH238900   4.511   0.633  18.354 -0.2873  0.1391  0.3799
 4902TIP3    H138901   4.419   0.608  18.358 -0.2300 -0.3535 -0.9643
 4902TIP3    H238902   4.559   0.554  18.378 -0.1914 -0.1747 -0.7601
 4903TIP3   OH238903   5.437   3.088  19.447 -0.1841 -0.2382 -0.2491
 4903TIP3    H138904   5.471   3.166  19.492  0.0018  0.3555 -1.3969
 4903TIP3    H238905   5.360   3.120  19.400 -1.0260 -1.0956  0.5006
 4904TIP3   OH238906   3.012   6.085  18.970  0.1430  0.1352  0.3281
 4904TIP3    H138907   3.054   6.148  19.028 -0.2243  0.6153  0.0836
 4904TIP3    H238908   2.973   6.020  19.028 -0.0095  0.4780  0.6114
 4905TIP3   OH238909   0.285   5.614  16.430 -0.2052 -0.1347 -0.0173
 4905TIP3    H138910   0.316   5.585  16.516 -0.2587  0.0660  0.0685
 4905TIP3    H238911   0.253   5.534  16.388 -0.2695 -0.2175  0.1873
 4906TIP3   OH238912   3.129   6.122  17.311 -0.0767  0.0451  0.0713
 4906TIP3    H138913   3.106   6.155  17.398  1.2407 -1.3941  1.0197
 4906TIP3    H238914   3.049   6.133  17.260 -0.6432  1.6800  1.2106
 4907TIP3   OH238915   6.119   0.991  19.358  0.0125 -0.1302  0.1696
 4907TIP3    H138916   6.103   0.958  19.446  1.1144 -2.3484 -0.4072
 4907TIP3    H238917   6.180   1.064  19.370 -1.8547  1.3222  1.4060
 4908TIP3   OH238918   0.403   3.450  18.367 -0.3980 -0.3914 -0.6747
 4908TIP3    H138919   0.315   3.458  18.329 -1.3803  0.9581  1.6801
 4908TIP3    H238920   0.434   3.540  18.374 -0.3173 -0.5553  1.7204
 4909TIP3   OH238921   3.034   5.389  19.261  0.1152 -0.0048  0.0112
 4909TIP3    H138922   2.952   5.429  19.234 -0.9159 -2.2575 -0.3803
 4909TIP3    H238923   3.019   5.362  19.352 -0.3461 -2.1554 -0.6419
 4910TIP3   OH238924   1.882   0.521  17.448 -0.2557 -0.6230 -0.1296
 4910TIP3    H138925   1.915   0.590  17.505  2.0585 -0.8074 -1.1694
 4910TIP3    H238926   1.839   0.460  17.508 -0.0965  0.4276  1.0996
 4911TIP3   OH238927   4.816   1.605  18.179 -0.0548 -0.3320  0.7463
 4911TIP3    H138928   4.820   1.522  18.131 -0.8155  1.5607 -2.9358
 4911TIP3    H238929   4.907   1.636  18.180  0.0623 -0.6666  1.1809
 4912TIP3   OH238930   6.455   3.092  19.990 -0.2905 -0.3583  0.1150
 4912TIP3    H138931   6.498   3.102  20.076 -2.0930  0.3936  0.9662
 4912TIP3    H238932   6.403   3.171  19.979 -1.1870 -1.0745 -1.0494
 4913TIP3   OH238933   6.695   0.737  18.316 -0.3595  0.0676 -0.6431
 4913TIP3    H138934   6.601   0.736  18.332 -0.2082  2.1344  0.7982
 4913TIP3    H238935   6.705   0.717  18.223 -2.1223 -1.1661 -0.6085
 4914TIP3   OH238936   2.991   5.824  17.605  0.3186  0.6686  0.1052
 4914TIP3    H138937   2.957   5.888  17.543 -1.2248 -1.3474 -1.2485
 4914TIP3    H238938   2.916   5.803  17.661  0.7133 -0.1332  0.3453
 4915TIP3   OH238939   1.997   2.311  18.699 -0.1667 -0.3262  0.3973
 4915TIP3    H138940   1.954   2.396  18.697 -0.0679 -0.2841  0.1094
 4915TIP3    H238941   2.073   2.324  18.756  0.6040  0.1330 -0.7089
 4916TIP3   OH238942   5.820   3.084  17.336 -0.1210  0.1654 -0.2511
 4916TIP3    H138943   5.770   3.008  17.365  0.8505 -0.6704 -0.6957
 4916TIP3    H238944   5.907   3.049  17.317 -0.1123  1.0624 -2.0560
 4917TIP3   OH238945   5.600   1.568  18.396  0.2176 -0.2773  0.1417
 4917TIP3    H138946   5.529   1.506  18.383 -1.1760  1.0636  1.0153
 4917TIP3    H238947   5.658   1.555  18.321 -0.1915 -2.3595  0.1276
 4918TIP3   OH238948   5.385   1.938  19.221 -0.1111  0.0137  0.0722
 4918TIP3    H138949   5.391   1.858  19.274  1.6437  0.6865  0.9690
 4918TIP3    H238950   5.411   1.910  19.133  1.4086 -0.2600  0.5770
 4919TIP3   OH238951   2.379   1.469  17.910  0.2903  0.1861  0.2914
 4919TIP3    H138952   2.330   1.390  17.887 -1.2219  1.1002  0.2600
 4919TIP3    H238953   2.390   1.463  18.005 -0.4567  0.2885  0.3845
 4920TIP3   OH238954   2.934   4.839  20.130 -0.3812 -0.0581  0.0457
 4920TIP3    H138955   2.914   4.932  20.120  1.5416  0.3544 -0.3325
 4920TIP3    H238956   2.874   4.795  20.070 -1.0954  0.9549 -0.0051
 4921TIP3   OH238957   1.147   4.115  19.480  0.0788  0.0007 -0.0295
 4921TIP3    H138958   1.226   4.157  19.513  0.8320  0.3744 -2.1690
 4921TIP3    H238959   1.158   4.023  19.500  0.5310  0.2057  0.6926
 4922TIP3   OH238960   5.105   1.668  18.082 -0.0878 -0.8024  0.4319
 4922TIP3    H138961   5.111   1.747  18.028 -0.5115 -0.3860  0.9751
 4922TIP3    H238962   5.194   1.655  18.115  0.5618 -1.9809 -1.5960
 4923TIP3   OH238963   5.609   0.942  18.065  0.3391 -0.0666 -0.0920
 4923TIP3    H138964   5.676   0.981  18.009  1.0762 -1.8084 -0.4983
 4923TIP3    H238965   5.604   1.001  18.141 -2.5494  3.8654 -2.9367
 4924TIP3   OH238966   0.377   0.743  19.013 -0.0197 -0.1094 -0.6134
 4924TIP3    H138967   0.311   0.767  18.948  1.4688  0.2147 -2.0470
 4924TIP3    H238968   0.449   0.706  18.962  0.0716 -2.4730  1.0800
 4925TIP3   OH238969   6.376   6.516  17.333  0.2610 -0.3339  0.3121
 4925TIP3    H138970   6.469   6.538  17.326  0.3096  0.5994  2.9424
 4925TIP3    H238971   6.331   6.598  17.314 -0.0257 -0.6772 -0.5212
 4926TIP3   OH238972   0.708   3.740  20.556 -0.0591 -0.2834 -0.7025
 4926TIP3    H138973   0.640   3.797  20.593 -0.5979 -1.3533 -0.0070
 4926TIP3    H238974   0.675   3.651  20.570  1.9513 -0.8768  0.5768
 4927TIP3   OH238975   4.070   4.902  17.173  0.0891  0.0116  0.2815
 4927TIP3    H138976   4.119   4.901  17.255  2.1235  0.0851 -0.8703
 4927TIP3    H238977   4.061   4.995  17.152 -0.6867  0.0042  0.5395
 4928TIP3   OH238978   5.132   2.600  17.606  0.2984  0.4175 -0.5337
 4928TIP3    H138979   5.187   2.602  17.684 -0.3594  0.1990 -0.0599
 4928TIP3    H238980   5.127   2.692  17.578 -1.7134  0.9470  1.3070
 4929TIP3   OH238981   3.667   4.827  17.790 -0.0334 -0.1916 -0.8197
 4929TIP3    H138982   3.634   4.881  17.862  0.4984 -1.0154  0.0743
 4929TIP3    H238983   3.719   4.887  17.737 -1.3551  0.6905 -1.1754
 4930TIP3   OH238984   1.340   4.260  18.784  0.3164  0.0670 -0.2074
 4930TIP3    H138985   1.310   4.208  18.859 -1.0688 -0.6586 -1.2320
 4930TIP3    H238986   1.385   4.197  18.728 -0.4928  0.1745 -0.9841
 4931TIP3   OH238987   0.717   3.819  19.328 -0.2468  0.3372  0.3290
 4931TIP3    H138988   0.692   3.760  19.257  1.8510 -0.9872  0.5894
 4931TIP3    H238989   0.658   3.796  19.400  0.3005 -1.2646  0.3136
 4932TIP3   OH238990   4.953   3.476  18.137  0.0305 -0.3439 -0.0011
 4932TIP3    H138991   4.880   3.424  18.169 -0.1599 -0.6424 -0.8968
 4932TIP3    H238992   4.935   3.565  18.168 -0.3267 -0.5542  0.4027
 4933TIP3   OH238993   0.810   1.019  19.458  0.5200 -0.2650 -0.4090
 4933TIP3    H138994   0.872   1.088  19.482 -1.0356  0.0491  3.2585
 4933TIP3    H238995   0.829   0.947  19.518  0.3614 -2.1086 -2.4200
 4934TIP3   OH238996   5.018   5.073  18.091 -0.0545  0.6018 -0.1559
 4934TIP3    H138997   5.023   5.053  17.998  0.7447  0.3050 -0.0602
 4934TIP3    H238998   5.024   5.169  18.095  1.1893  0.5471 -0.3542
 4935TIP3   OH238999   2.802   4.076  19.200  0.7936  0.3271  0.2270
 4935TIP3    H139000   2.801   4.092  19.294 -0.3983  2.0983 -0.0129
 4935TIP3    H239001   2.750   4.148  19.164 -0.3487 -1.3192 -1.6296
 4936TIP3   OH239002   1.273   5.907  18.925  0.1114  0.2818 -0.1933
 4936TIP3    H139003   1.239   5.974  18.984  0.9914 -0.1305  0.8286
 4936TIP3    H239004   1.202   5.843  18.918 -0.3465  0.7962 -0.3372
 4937TIP3   OH239005   0.172   4.057  19.201 -0.0394 -0.2049 -0.0879
 4937TIP3    H139006   0.213   3.971  19.197  0.6295  0.1390 -1.1343
 4937TIP3    H239007   0.239   4.114  19.238  0.3872  0.3245 -1.6289
 4938TIP3   OH239008   4.648   2.118  19.633 -0.0938 -0.0351  0.7920
 4938TIP3    H139009   4.626   2.041  19.581 -0.6261  0.3228  0.4805
 4938TIP3    H239010   4.742   2.111  19.647 -0.2414 -1.0937  1.3373
 4939TIP3   OH239011   2.419   6.337  20.057 -0.3931 -0.5316  0.1875
 4939TIP3    H139012   2.400   6.312  19.966 -0.3192 -1.1863  0.3493
 4939TIP3    H239013   2.512   6.321  20.067 -0.4154 -0.5197  0.4014
 4940TIP3   OH239014   4.520   0.868  18.226  0.4280  0.0750 -0.4455
 4940TIP3    H139015   4.453   0.849  18.161 -0.1225 -0.8132  0.3617
 4940TIP3    H239016   4.528   0.787  18.277  0.1204  1.0809  1.2484
 4941TIP3   OH239017   4.576   3.107  19.415  0.2855 -0.3023  0.0817
 4941TIP3    H139018   4.650   3.082  19.470  0.3466  1.6614  0.9648
 4941TIP3    H239019   4.519   3.157  19.473 -0.0108  1.1869 -1.4384
 4942TIP3   OH239020   5.158   2.264  19.479 -0.0042 -0.8501  0.2243
 4942TIP3    H139021   5.114   2.229  19.556  1.3079  0.0780  1.4469
 4942TIP3    H239022   5.215   2.193  19.450 -0.7203 -1.3083 -0.1044
 4943TIP3   OH239023   1.616   2.340  19.795  0.0373 -0.3663  0.0695
 4943TIP3    H139024   1.603   2.247  19.815 -0.1888 -0.1218  1.0835
 4943TIP3    H239025   1.578   2.351  19.708 -0.0815 -1.1854  0.0073
 4944TIP3   OH239026   1.105   4.335  19.114  0.5555  0.3352  0.2616
 4944TIP3    H139027   1.092   4.393  19.189 -1.4327 -1.6050  1.5223
 4944TIP3    H239028   1.098   4.247  19.150 -1.8916 -0.6971 -2.3786
 4945TIP3   OH239029   0.092   5.460  19.999 -0.1587 -0.1698 -0.2240
 4945TIP3    H139030   0.079   5.470  19.905 -1.2191  0.9293  0.0103
 4945TIP3    H239031   0.014   5.499  20.039 -0.1003 -1.3141  1.1017
 4946TIP3   OH239032   5.584   4.243  17.905  0.5366  0.0822 -0.1357
 4946TIP3    H139033   5.540   4.301  17.968 -0.9690  0.7197 -1.6655
 4946TIP3    H239034   5.673   4.277  17.900  0.0304  1.5242 -0.0634
 4947TIP3   OH239035   5.924   6.306  19.521  0.5799  0.5773  0.0302
 4947TIP3    H139036   5.839   6.260  19.517  1.0242 -0.1909 -1.2392
 4947TIP3    H239037   5.936   6.326  19.614 -0.9145  0.5529  0.2558
 4948TIP3   OH239038   5.509   5.152  17.809 -0.3030 -0.7431 -0.5248
 4948TIP3    H139039   5.582   5.097  17.836  0.6992  0.3913 -0.8273
 4948TIP3    H239040   5.530   5.239  17.844 -0.7429 -0.0571 -1.8810
 4949TIP3   OH239041   0.972   4.333  18.846 -0.7311 -0.6636  0.2246
 4949TIP3    H139042   1.020   4.355  18.766 -0.8072 -0.8110  0.1395
 4949TIP3    H239043   1.040   4.305  18.907 -0.6061  0.0248  0.4082
 4950TIP3   OH239044   6.398   4.538  20.139 -0.0623  0.8346 -0.2416
 4950TIP3    H139045   6.449   4.504  20.213 -0.5967  0.4497 -0.0425
 4950TIP3    H239046   6.421   4.631  20.136  0.2280  0.7836  0.1947
 4951TIP3   OH239047   4.746   3.292  18.178  0.7273 -0.2711 -0.4400
 4951TIP3    H139048   4.695   3.283  18.259  0.5685 -3.0752 -0.7782
 4951TIP3    H239049   4.684   3.324  18.114  0.2683 -0.2789 -0.0066
 4952TIP3   OH239050   5.025   3.428  18.627  0.3974  0.8235 -0.5576
 4952TIP3    H139051   5.034   3.332  18.629 -0.6277  0.6794  2.7243
 4952TIP3    H239052   4.965   3.444  18.554  0.5446 -1.0034 -1.1517
 4953TIP3   OH239053   3.062   6.352  17.097  0.0411  0.0115  0.0362
 4953TIP3    H139054   2.972   6.320  17.087 -0.2786  0.6859  0.7126
 4953TIP3    H239055   3.109   6.313  17.023 -0.9003  0.0186 -0.5834
 4954TIP3   OH239056   4.385   5.435  19.244  0.1788 -0.1534 -0.0265
 4954TIP3    H139057   4.320   5.460  19.177  0.7000 -0.5020 -0.6722
 4954TIP3    H239058   4.372   5.499  19.314 -0.7159 -0.0798 -0.2367
 4955TIP3   OH239059   1.594   2.496  20.023 -0.0233  0.9781  0.6570
 4955TIP3    H139060   1.613   2.448  19.943 -0.9813  1.5558  0.0658
 4955TIP3    H239061   1.507   2.465  20.049  0.6355  0.1345  1.9842
 4956TIP3   OH239062   3.776   5.477  17.672 -0.3471  0.4883 -0.0080
 4956TIP3    H139063   3.855   5.470  17.619  0.0986  1.5534  0.4968
 4956TIP3    H239064   3.724   5.400  17.648  0.6575 -0.0071 -0.6401
 4957TIP3   OH239065   0.425   3.163  19.467 -0.0650  0.1176 -0.4707
 4957TIP3    H139066   0.446   3.255  19.450 -0.5847  0.4559  0.5892
 4957TIP3    H239067   0.414   3.124  19.381  0.4924  0.9761 -0.9409
 4958TIP3   OH239068   5.631   5.615  17.000 -0.0816  0.2321 -0.0682
 4958TIP3    H139069   5.686   5.538  16.984 -0.2332  0.2814 -0.8407
 4958TIP3    H239070   5.689   5.675  17.048  0.6391  0.3782 -1.0772
 4959TIP3   OH239071   3.773   0.796  18.381  0.2183 -0.5525 -0.4593
 4959TIP3    H139072   3.714   0.800  18.305 -0.4053 -2.0527 -0.0926
 4959TIP3    H239073   3.783   0.702  18.398 -1.4977 -0.2955  2.6701
 4960TIP3   OH239074   2.857   1.412  19.334  0.1214  0.7790 -0.0961
 4960TIP3    H139075   2.853   1.497  19.378 -0.4886  1.0137 -0.5936
 4960TIP3    H239076   2.774   1.370  19.355  0.3199  0.4036 -0.0532
 4961TIP3   OH239077   6.502   4.774  19.962  0.1964  0.4114  0.5077
 4961TIP3    H139078   6.528   4.736  19.878 -0.7028  0.8862 -0.0003
 4961TIP3    H239079   6.504   4.869  19.947  1.3048  0.5483  1.4202
 4962TIP3   OH239080   0.666   0.361  17.602  0.2564  0.4863  0.0166
 4962TIP3    H139081   0.604   0.346  17.530  0.0861  1.3034 -0.0140
 4962TIP3    H239082   0.721   0.433  17.572  1.0713 -0.0621  0.1521
 4963TIP3   OH239083   1.390   4.494  19.412 -0.1008  0.4769  0.4128
 4963TIP3    H139084   1.332   4.534  19.347 -0.5921 -1.0561 -0.1319
 4963TIP3    H239085   1.337   4.486  19.490 -0.7897 -1.2950 -0.2054
 4964TIP3   OH239086   2.895   6.661  18.430 -0.4553  0.2318  0.0097
 4964TIP3    H139087   2.928   6.714  18.502  1.2218  2.1933 -2.0578
 4964TIP3    H239088   2.968   6.654  18.369 -1.6502 -1.7474 -1.3205
 4965TIP3   OH239089   4.387   4.704  19.143 -0.5378  0.1527 -0.2690
 4965TIP3    H139090   4.386   4.696  19.238  0.4642 -1.0951 -0.3447
 4965TIP3    H239091   4.303   4.668  19.115  0.3183 -2.1849 -0.0106
 4966TIP3   OH239092   6.420   2.887  17.494  0.6522 -0.2844  0.0730
 4966TIP3    H139093   6.503   2.873  17.449  0.8269  0.0014  0.2992
 4966TIP3    H239094   6.370   2.945  17.437 -0.3077 -2.1981 -1.1540
 4967TIP3   OH239095   6.161   6.444  16.120  0.6275  0.2498  0.4038
 4967TIP3    H139096   6.217   6.366  16.125  0.2008 -0.1567 -0.7313
 4967TIP3    H239097   6.132   6.459  16.209  0.1147 -1.3431  0.5306
 4968TIP3   OH239098   4.105   2.254  18.569 -0.2444 -0.1727 -0.5631
 4968TIP3    H139099   4.015   2.245  18.600 -0.3989  1.4983 -0.4745
 4968TIP3    H239100   4.150   2.305  18.637  0.4527  0.0578 -1.1723
 4969TIP3   OH239101   3.755   2.441  19.090  0.1867 -0.6216  0.4304
 4969TIP3    H139102   3.706   2.365  19.119  0.2465 -0.9647 -0.3320
 4969TIP3    H239103   3.698   2.483  19.025  1.1644 -1.4174 -0.9893
 4970TIP3   OH239104   5.188   6.299  18.482  0.7174 -0.0317 -0.6668
 4970TIP3    H139105   5.283   6.287  18.485  0.6178 -0.8084  2.2015
 4970TIP3    H239106   5.153   6.212  18.463  0.5584 -0.2768  0.6379
 4971TIP3   OH239107   1.005   6.642  18.251 -0.3348 -0.1369 -0.5318
 4971TIP3    H139108   1.078   6.585  18.277 -1.0714 -0.5399  0.7590
 4971TIP3    H239109   0.997   6.629  18.156 -0.1095 -1.7738 -0.3649
 4972TIP3   OH239110   4.821   4.744  17.419  0.4712  0.1378  0.5583
 4972TIP3    H139111   4.828   4.779  17.330  1.3542 -0.0108  0.5561
 4972TIP3    H239112   4.735   4.702  17.421 -0.1754  1.4161  0.2498
 4973TIP3   OH239113   5.793   5.962  19.223 -0.1117  0.1934  0.4884
 4973TIP3    H139114   5.847   6.038  19.244 -0.2562  1.0215 -1.7647
 4973TIP3    H239115   5.703   5.993  19.236 -0.1302 -0.3214  1.6682
 4974TIP3   OH239116   5.754   4.478  19.509  0.1975 -0.2856 -0.1048
 4974TIP3    H139117   5.760   4.382  19.508 -1.3893 -0.4059 -0.8972
 4974TIP3    H239118   5.663   4.497  19.487  0.1579  1.3975  1.2787
 4975TIP3   OH239119   6.670   4.346  16.722 -0.6189 -0.0579 -0.7135
 4975TIP3    H139120   6.601   4.351  16.788 -0.6017 -1.4058 -0.5658
 4975TIP3    H239121   6.748   4.376  16.767 -1.1529  1.9824 -1.0254
 4976TIP3   OH239122   4.404   3.328  18.830  0.1619 -0.2226  0.1249
 4976TIP3    H139123   4.484   3.358  18.875  0.4308  0.6175 -0.8543
 4976TIP3    H239124   4.351   3.407  18.823  0.6104 -0.0665 -1.9870
 4977TIP3   OH239125   0.151   3.385  20.208 -0.3759 -0.0572 -0.2262
 4977TIP3    H139126   0.075   3.354  20.158  1.0640 -1.2602 -1.7727
 4977TIP3    H239127   0.169   3.472  20.174 -1.0140  0.2176  0.1182
 4978TIP3   OH239128   2.721   3.731  20.381 -0.2972 -0.4469  0.0745
 4978TIP3    H139129   2.639   3.702  20.341  0.1114  1.0204 -2.0002
 4978TIP3    H239130   2.789   3.687  20.330  0.2724  2.2386 -1.7199
 4979TIP3   OH239131   3.373   3.557  17.628  0.2207  0.2712 -0.0557
 4979TIP3    H139132   3.382   3.477  17.575  0.4982 -0.2858  0.8197
 4979TIP3    H239133   3.346   3.526  17.714  3.0662  0.8444  1.1444
 4980TIP3   OH239134   4.968   2.727  19.164 -0.2740  0.1476  0.3637
 4980TIP3    H139135   5.026   2.654  19.141 -0.7610 -0.5038  1.1483
 4980TIP3    H239136   4.963   2.724  19.259 -0.1419  1.3403  0.4153
 4981TIP3   OH239137   2.861   5.964  18.411 -0.0088 -0.3007 -1.0435
 4981TIP3    H139138   2.900   5.883  18.379 -1.8223 -1.1179 -1.3094
 4981TIP3    H239139   2.832   6.009  18.331 -1.5140 -0.7453 -0.7796
 4982TIP3   OH239140   1.740   6.635  19.004  0.2389  0.0869  0.2330
 4982TIP3    H139141   1.740   6.633  18.908  0.5153  1.5331  0.1894
 4982TIP3    H239142   1.731   6.543  19.029 -1.3761 -0.1938 -1.1708
 4983TIP3   OH239143   4.649   3.537  17.805 -0.1946  0.1376  0.5885
 4983TIP3    H139144   4.601   3.581  17.735 -0.2515 -1.4152 -0.3879
 4983TIP3    H239145   4.582   3.485  17.851  0.2379 -0.6449  0.3408
 4984TIP3   OH239146   6.463   6.556  18.795  0.1458 -0.7051 -0.0225
 4984TIP3    H139147   6.526   6.569  18.724  2.3270 -0.4935  1.8363
 4984TIP3    H239148   6.415   6.477  18.770  1.7518 -1.3956 -1.1161
 4985TIP3   OH239149   1.368   1.587  20.426 -0.1891 -0.4091  0.3681
 4985TIP3    H139150   1.285   1.604  20.469 -0.4008 -0.1637 -0.1331
 4985TIP3    H239151   1.344   1.547  20.342  0.2665 -2.9786  1.3719
 4986TIP3   OH239152   1.739   4.644  18.698 -0.2666 -0.6227 -0.2595
 4986TIP3    H139153   1.753   4.549  18.703  1.0833 -0.4477 -0.2763
 4986TIP3    H239154   1.809   4.676  18.641  2.2419  0.8965  3.2873
 4987TIP3   OH239155   4.544   1.041  17.790 -0.7975 -0.0416  0.3263
 4987TIP3    H139156   4.495   1.061  17.710 -0.0954 -2.1855 -0.7246
 4987TIP3    H239157   4.636   1.052  17.766 -0.6076  0.6534  1.2872
 4988TIP3   OH239158   1.382   0.745  18.022  0.3933  0.1866 -0.0433
 4988TIP3    H139159   1.382   0.653  17.997 -0.2266  0.3915 -0.8596
 4988TIP3    H239160   1.290   0.772  18.013  0.7509  1.1644 -0.9333
 4989TIP3   OH239161   1.529   3.969  19.902 -0.0522 -0.4644 -0.2562
 4989TIP3    H139162   1.590   3.980  19.975  0.9178 -0.1957 -1.0835
 4989TIP3    H239163   1.512   3.875  19.898 -2.4166 -0.2443  2.1047
 4990TIP3   OH239164   3.711   3.418  18.808 -0.1581  0.3983 -0.4968
 4990TIP3    H139165   3.779   3.350  18.810 -1.7167 -1.2354 -0.7833
 4990TIP3    H239166   3.666   3.404  18.725 -0.4233  1.9224 -0.6356
 4991TIP3   OH239167   2.892   5.258  18.703 -0.6511 -0.2193 -0.1793
 4991TIP3    H139168   2.848   5.177  18.730  0.2562 -0.7457 -0.2448
 4991TIP3    H239169   2.977   5.230  18.671  0.3262  0.9003  1.2933
 4992TIP3   OH239170   1.239   0.348  16.934 -0.0411 -0.2366 -0.4682
 4992TIP3    H139171   1.319   0.371  16.980  0.1217 -2.0825  0.2440
 4992TIP3    H239172   1.245   0.396  16.851  0.4671  1.7898  0.6756
 4993TIP3   OH239173   1.323   3.892  20.279  0.0018 -0.3007  0.4379
 4993TIP3    H139174   1.352   3.864  20.193 -0.3955  0.5564  0.0134
 4993TIP3    H239175   1.284   3.814  20.318 -1.0160 -0.3813 -0.6794
 4994TIP3   OH239176   1.391   0.144  17.661 -0.6200  0.0667  0.0208
 4994TIP3    H139177   1.325   0.213  17.653 -0.0735  0.6562  0.5312
 4994TIP3    H239178   1.423   0.131  17.571 -0.3659  0.8422 -0.0070
 4995TIP3   OH239179   3.439   4.915  19.857  0.1393  0.1090 -0.4271
 4995TIP3    H139180   3.368   4.860  19.825  0.9390 -2.5820  1.9608
 4995TIP3    H239181   3.400   4.966  19.927  0.1371  0.0437 -0.3809
 4996TIP3   OH239182   6.440   1.911  17.621  0.1724 -0.2105  0.4078
 4996TIP3    H139183   6.456   1.998  17.658 -0.4541  0.0005  0.2084
 4996TIP3    H239184   6.493   1.852  17.673  2.6786  0.5854 -1.0878
 4997TIP3   OH239185   3.694   3.079  17.808 -0.1387  0.4663  0.4750
 4997TIP3    H139186   3.726   3.006  17.860 -1.1801 -0.0755  0.3904
 4997TIP3    H239187   3.607   3.051  17.779  0.9369  0.0788 -2.8129
 4998TIP3   OH239188   2.228   0.227  17.491  0.0565  0.8401  0.0686
 4998TIP3    H139189   2.316   0.227  17.453  0.4125  0.2853  0.8642
 4998TIP3    H239190   2.243   0.214  17.585 -0.9307 -0.6467  0.0521
 4999TIP3   OH239191   4.722   0.070  18.745  0.1589  0.0262  0.5091
 4999TIP3    H139192   4.700  -0.015  18.785 -0.2256  1.2677  3.1494
 4999TIP3    H239193   4.801   0.098  18.791  1.1639  0.4692 -1.4033
 5000TIP3   OH239194   5.129   3.433  17.895 -0.3809 -0.2454 -0.2916
 5000TIP3    H139195   5.070   3.434  17.971 -2.0099  0.7574 -1.5022
 5000TIP3    H239196   5.083   3.484  17.829  1.8136  0.4373 -1.3723
 5001TIP3   OH239197   5.292   4.477  19.144  0.2549  0.0456  0.4395
 5001TIP3    H139198   5.262   4.436  19.224  0.4818  1.5284  1.3177
 5001TIP3    H239199   5.325   4.562  19.171  3.6978 -0.7645 -0.6665
 5002TIP3   OH239200   3.152   0.994  18.677 -0.3396 -0.2802  0.0491
 5002TIP3    H139201   3.138   1.078  18.632 -2.9560 -0.2148  0.8198
 5002TIP3    H239202   3.079   0.987  18.738  0.1698 -2.8432  0.4830
 5003TIP3   OH239203   0.244   3.398  19.645  0.0560  0.6414  0.2573
 5003TIP3    H139204   0.178   3.425  19.582 -0.7807  0.7688  1.1676
 5003TIP3    H239205   0.326   3.400  19.596 -0.6192  0.3843 -0.9136
 5004TIP3   OH239206   6.092   0.608  17.167 -0.1177 -0.2402 -0.4414
 5004TIP3    H139207   6.076   0.681  17.226 -2.4400 -1.5541  0.7045
 5004TIP3    H239208   6.111   0.534  17.225  0.8334 -0.8763 -1.5050
 5005TIP3   OH239209   6.331   0.618  18.750  0.1708  0.1251 -0.2904
 5005TIP3    H139210   6.383   0.553  18.703 -0.8153 -0.3667 -0.7403
 5005TIP3    H239211   6.289   0.669  18.681 -0.9843 -0.3575  0.0268
 5006TIP3   OH239212   4.645   4.949  16.871 -0.0034  0.1192 -0.0952
 5006TIP3    H139213   4.686   4.884  16.814  0.3464  0.1286  0.1443
 5006TIP3    H239214   4.668   5.033  16.832  1.3225  0.1887  0.7469
 5007TIP3   OH239215   1.873   3.501  18.979  0.3128 -0.6827  0.2657
 5007TIP3    H139216   1.913   3.554  19.049 -0.3403 -1.2104  1.0539
 5007TIP3    H239217   1.945   3.485  18.918  0.9683 -0.4528  0.9570
 5008TIP3   OH239218   0.131   5.173  19.731  0.1110 -0.0845 -0.6247
 5008TIP3    H139219   0.067   5.241  19.709  0.6640  0.4455 -0.6405
 5008TIP3    H239220   0.150   5.129  19.648 -1.4298 -1.3352 -0.3576
 5009TIP3   OH239221   2.153   3.595  18.113 -0.1428 -0.1326 -0.1379
 5009TIP3    H139222   2.124   3.633  18.196 -0.4958 -1.8450  0.5801
 5009TIP3    H239223   2.240   3.631  18.099  0.0736 -0.0799  1.1828
 5010TIP3   OH239224   0.723   1.971  18.432  0.4814 -0.1234 -0.3959
 5010TIP3    H139225   0.708   1.931  18.517  1.4677 -0.2565 -0.2670
 5010TIP3    H239226   0.719   2.066  18.449 -2.8302 -0.0841 -0.8853
 5011TIP3   OH239227   0.375   4.191  19.420 -0.1791 -0.5291 -0.2415
 5011TIP3    H139228   0.458   4.209  19.465 -0.3001 -0.5506 -0.0082
 5011TIP3    H239229   0.364   4.096  19.427 -0.8209 -0.3970  0.7942
 5012TIP3   OH239230   0.110   5.999  17.142  0.0938  0.3273 -0.1228
 5012TIP3    H139231   0.197   5.963  17.127 -0.3428 -0.3677 -1.1465
 5012TIP3    H239232   0.098   6.063  17.072 -0.3975  0.0632 -0.2872
 5013TIP3   OH239233   5.644   2.418  19.071  0.4066 -0.0808 -0.1335
 5013TIP3    H139234   5.570   2.430  19.012  0.4777 -1.2012 -0.4751
 5013TIP3    H239235   5.614   2.352  19.133  0.6599  0.4276  0.5471
 5014TIP3   OH239236   6.300   6.379  19.994 -0.7901  0.4374 -0.0908
 5014TIP3    H139237   6.216   6.399  20.034 -1.6117  0.8775 -1.9508
 5014TIP3    H239238   6.336   6.465  19.971 -0.0410  0.2286  0.2626
 5015TIP3   OH239239   5.031   5.879  18.934 -0.1538 -0.2809  0.2126
 5015TIP3    H139240   5.081   5.884  19.016  3.6034 -1.9130 -1.7335
 5015TIP3    H239241   5.059   5.956  18.884  0.8446 -1.4077 -1.0472
 5016TIP3   OH239242   5.419   2.694  17.106 -0.6458 -0.3763 -0.0012
 5016TIP3    H139243   5.366   2.769  17.078 -0.2231 -0.4780 -1.1331
 5016TIP3    H239244   5.488   2.688  17.040  0.4347 -0.6222  1.1100
 5017TIP3   OH239245   4.467   1.467  18.528 -0.1370  0.2098  0.2086
 5017TIP3    H139246   4.452   1.450  18.621 -0.1421  2.5744  0.7045
 5017TIP3    H239247   4.530   1.399  18.501  0.9947  0.3350  2.3225
 5018TIP3   OH239248   3.224   2.331  19.834  0.2968 -0.1477 -0.9164
 5018TIP3    H139249   3.302   2.342  19.779  1.8393 -2.1193  0.7238
 5018TIP3    H239250   3.232   2.399  19.901  2.0339 -1.8152  0.6948
 5019TIP3   OH239251   4.903   5.893  17.768  0.3760  0.3595  0.1002
 5019TIP3    H139252   4.840   5.899  17.696 -1.4885 -2.6777  1.2487
 5019TIP3    H239253   4.890   5.973  17.818 -1.1048  0.7709 -0.8814
 5020TIP3   OH239254   5.667   3.710  18.882 -0.4181 -0.6320  0.1663
 5020TIP3    H139255   5.677   3.616  18.869 -1.1037 -0.4852 -1.6083
 5020TIP3    H239256   5.573   3.726  18.874 -0.1936  0.3515 -0.7248
 5021TIP3   OH239257   4.997   1.536  17.609 -0.1072  0.0058  0.9463
 5021TIP3    H139258   5.018   1.443  17.597  0.6820  0.0831  1.6083
 5021TIP3    H239259   4.915   1.549  17.562  0.5257 -0.7015 -0.3867
 5022TIP3   OH239260   0.343   1.514  19.261 -0.7068 -0.2763 -0.3790
 5022TIP3    H139261   0.421   1.469  19.294 -0.3887 -0.4979 -1.4243
 5022TIP3    H239262   0.298   1.448  19.208 -1.6799 -0.1863  0.3069
 5023TIP3   OH239263   0.356   3.209  18.067 -0.4707 -0.0306  0.3161
 5023TIP3    H139264   0.352   3.119  18.099 -0.1486 -0.2392 -0.2044
 5023TIP3    H239265   0.439   3.214  18.019 -1.0455  0.1886 -0.6989
 5024TIP3   OH239266   0.900   0.529  19.163  0.0292 -0.4100  0.0694
 5024TIP3    H139267   0.851   0.544  19.082  0.2245  0.4792  0.1129
 5024TIP3    H239268   0.903   0.614  19.206  2.0961 -0.2752 -0.2094
 5025TIP3   OH239269   0.554   0.606  18.022  0.0612 -0.1282  0.0242
 5025TIP3    H139270   0.533   0.597  17.929 -1.7113 -0.6413  0.4428
 5025TIP3    H239271   0.494   0.547  18.066  1.3297 -0.3965  1.4737
 5026TIP3   OH239272   3.771   5.243  20.071  0.1218  0.0053  0.3787
 5026TIP3    H139273   3.677   5.258  20.083 -0.0822  0.9411 -1.9222
 5026TIP3    H239274   3.780   5.148  20.077 -1.3999 -0.3353 -1.5755
 5027TIP3   OH239275   5.519   2.186  17.617  0.1071 -0.5691 -0.2898
 5027TIP3    H139276   5.563   2.177  17.533 -0.0072 -0.0124 -0.4108
 5027TIP3    H239277   5.443   2.240  17.599  0.1845 -0.2870  0.2080
 5028TIP3   OH239278   0.851   3.271  20.139  0.0011  0.2345  0.3477
 5028TIP3    H139279   0.898   3.346  20.176  1.0585 -0.2686  0.0887
 5028TIP3    H239280   0.770   3.266  20.188  0.0591  1.3562  0.5833
 5029TIP3   OH239281   1.644   1.590  20.125 -0.2935 -0.3580 -0.0992
 5029TIP3    H139282   1.647   1.600  20.220 -1.3020 -0.8831  0.0070
 5029TIP3    H239283   1.719   1.534  20.105  0.0924 -0.0131  0.3466
 5030TIP3   OH239284   2.872   1.365  17.777 -0.4556 -0.3512 -0.2249
 5030TIP3    H139285   2.789   1.352  17.823 -2.5160  1.7141 -3.0057
 5030TIP3    H239286   2.885   1.284  17.728 -1.2967 -0.3669 -0.4291
 5031TIP3   OH239287   2.043   0.571  18.212 -0.4251 -0.0215  0.5868
 5031TIP3    H139288   1.999   0.610  18.287 -0.0023  0.8577  0.3941
 5031TIP3    H239289   2.073   0.485  18.243 -2.2862 -0.6668  0.6985
 5032TIP3   OH239290   1.627   2.221  17.864 -0.5144  0.0372  0.3518
 5032TIP3    H139291   1.594   2.263  17.784 -1.0660 -1.2218 -0.1064
 5032TIP3    H239292   1.661   2.137  17.835 -1.6255 -0.8780  1.5632
 5033TIP3   OH239293   3.533   1.010  19.338  0.1370 -0.1696  0.1500
 5033TIP3    H139294   3.541   1.105  19.330 -1.9013  0.0247 -0.0927
 5033TIP3    H239295   3.579   0.975  19.262 -0.0383  0.6834 -0.3629
 5034TIP3   OH239296   4.257   5.792  18.361  0.4216  0.6115  0.5194
 5034TIP3    H139297   4.194   5.728  18.394  1.9355 -1.4498 -0.4270
 5034TIP3    H239298   4.219   5.824  18.279 -0.1419  0.6404  0.7879
 5035TIP3   OH239299   6.324   2.478  17.962 -0.1499 -0.0992  0.4125
 5035TIP3    H139300   6.264   2.428  18.018  1.9170 -1.0746  1.8791
 5035TIP3    H239301   6.364   2.541  18.022  0.7956  0.0737 -0.3911
 5036TIP3   OH239302   3.920   6.579  17.793  0.3607  0.0445  0.6473
 5036TIP3    H139303   3.957   6.493  17.774  2.7028  0.6457  1.9924
 5036TIP3    H239304   3.994   6.639  17.784 -1.1095  1.8761  0.1722
 5037TIP3   OH239305   4.942   5.076  18.842  0.1282  0.5242 -0.2719
 5037TIP3    H139306   4.990   4.993  18.837 -1.6332 -0.4892 -2.7939
 5037TIP3    H239307   5.005   5.138  18.879  2.1671 -1.4829 -0.1328
 5038TIP3   OH239308   0.565   3.757  19.573  0.2148  0.1561 -0.2692
 5038TIP3    H139309   0.491   3.809  19.541 -0.2292 -0.7482 -0.7917
 5038TIP3    H239310   0.606   3.811  19.640 -2.1894 -0.1209  1.5661
 5039TIP3   OH239311   0.296   4.013  17.916 -0.1229 -0.5858 -0.2013
 5039TIP3    H139312   0.230   3.993  17.982 -2.8449  1.5352 -2.0741
 5039TIP3    H239313   0.283   3.948  17.848 -0.5004  0.0168 -0.7124
 5040TIP3   OH239314   1.991   0.095  19.770  0.1650  0.2959  0.3851
 5040TIP3    H139315   2.071   0.134  19.804  0.7096 -1.2172  0.9377
 5040TIP3    H239316   1.924   0.161  19.785  1.3850  1.8321 -0.6182
 5041TIP3   OH239317   4.272   1.860  19.959  0.5831 -0.1056 -0.0527
 5041TIP3    H139318   4.231   1.894  20.038  0.8805 -0.5907  0.3130
 5041TIP3    H239319   4.269   1.933  19.897  2.1096  0.9408  1.0371
 5042TIP3   OH239320   2.270   4.350  18.809  0.3546 -0.1392 -0.4980
 5042TIP3    H139321   2.194   4.307  18.848  1.8649 -2.2432  0.3325
 5042TIP3    H239322   2.233   4.420  18.755 -2.2467 -1.8531 -1.1290
 5043TIP3   OH239323   4.727   6.345  18.724  0.3114 -0.4887  0.0742
 5043TIP3    H139324   4.690   6.384  18.645 -0.3197 -0.4747  0.3712
 5043TIP3    H239325   4.817   6.379  18.728 -0.7004  2.3065  1.2224
 5044TIP3   OH239326   2.047   1.582  17.478  0.4895 -0.5621  0.1938
 5044TIP3    H139327   2.029   1.601  17.386 -0.6189  0.0673  0.5182
 5044TIP3    H239328   1.993   1.645  17.526  0.9460 -0.9765  1.2789
 5045TIP3   OH239329   1.182   2.702  17.946  0.4947  0.0218 -0.0265
 5045TIP3    H139330   1.090   2.718  17.964  0.6460  1.9928 -0.7177
 5045TIP3    H239331   1.219   2.789  17.931  2.5339 -0.6863  0.4894
 5046TIP3   OH239332   6.044   0.906  19.608  0.1550 -0.1080 -0.1277
 5046TIP3    H139333   6.073   0.961  19.680  0.7972 -1.5702  0.7691
 5046TIP3    H239334   5.955   0.936  19.590  1.0598  2.4471 -0.9375
 5047TIP3   OH239335   5.864   3.347  17.901  0.5789  0.1583  0.5774
 5047TIP3    H139336   5.894   3.256  17.913 -1.0031 -0.3593  0.8799
 5047TIP3    H239337   5.816   3.345  17.819  2.1279  1.1989 -0.3992
 5048TIP3   OH239338   5.855   4.409  20.563  0.2152  0.7338 -0.1991
 5048TIP3    H139339   5.834   4.337  20.503 -0.7550  0.5661  0.3225
 5048TIP3    H239340   5.811   4.486  20.525 -1.9104  0.2803  1.1617
 5049TIP3   OH239341   0.740   1.798  20.186 -0.2766  0.1886  0.0555
 5049TIP3    H139342   0.775   1.819  20.100  2.2936  2.3807  1.4971
 5049TIP3    H239343   0.684   1.872  20.208 -0.6239 -0.1771  0.4152
 5050TIP3   OH239344   2.964   0.331  18.795  0.1181  0.1129 -1.1001
 5050TIP3    H139345   2.998   0.299  18.879  0.8081  0.7001 -1.1450
 5050TIP3    H239346   2.874   0.357  18.814 -0.3285 -1.4263 -0.9655
 5051TIP3   OH239347   3.420   6.463  19.947  0.3132  0.2802 -0.2052
 5051TIP3    H139348   3.465   6.509  20.018  0.4904 -0.0354 -0.1131
 5051TIP3    H239349   3.424   6.524  19.873  0.2632  0.5447  0.0099
 5052TIP3   OH239350   5.592   5.959  19.906  0.1660  0.1056 -0.2398
 5052TIP3    H139351   5.560   5.980  19.994  0.6084 -1.1858  0.2539
 5052TIP3    H239352   5.520   5.912  19.864  0.6556 -1.0401  0.1624
 5053TIP3   OH239353   0.753   4.016  20.188  0.2883  0.1933  0.0905
 5053TIP3    H139354   0.823   4.018  20.253 -0.7224  0.8388  1.2025
 5053TIP3    H239355   0.769   4.093  20.133  0.3630  0.4296  0.4404
 5054TIP3   OH239356   3.570   0.569  19.203 -0.1158 -0.1923 -0.6454
 5054TIP3    H139357   3.561   0.478  19.175 -1.3571 -0.7428  1.3781
 5054TIP3    H239358   3.503   0.616  19.154  0.5985 -0.3063 -1.7771
 5055TIP3   OH239359   6.716   0.978  16.998 -0.2569  0.2029 -0.1377
 5055TIP3    H139360   6.636   1.003  16.953 -0.7534 -0.0668  0.5846
 5055TIP3    H239361   6.745   0.899  16.953 -0.9879 -0.3155  0.2815
 5056TIP3   OH239362   0.090   6.423  19.968 -0.2003  0.2389  0.2623
 5056TIP3    H139363   0.037   6.344  19.958 -1.1219  0.5609  2.2679
 5056TIP3    H239364   0.126   6.417  20.056  1.2845  1.1582 -0.2478
 5057TIP3   OH239365   4.558   5.428  18.342 -0.1385 -0.1642 -0.0292
 5057TIP3    H139366   4.611   5.508  18.350  0.2814 -0.4815  0.4354
 5057TIP3    H239367   4.594   5.384  18.265  0.4182 -0.4781  0.4046
 5058TIP3   OH239368   6.615   0.329  17.942  0.6104 -0.0376 -0.1286
 5058TIP3    H139369   6.695   0.381  17.945  0.1163  0.7992 -1.0481
 5058TIP3    H239370   6.607   0.302  17.850  0.4217 -1.0597  0.1755
 5059TIP3   OH239371   1.479   5.702  18.833  0.0892 -0.3291  0.4229
 5059TIP3    H139372   1.432   5.653  18.766  0.3990 -2.6828  1.8166
 5059TIP3    H239373   1.413   5.760  18.871 -1.6021 -2.9311  1.7380
 5060TIP3   OH239374   5.551   1.245  17.942  0.1416  0.3045  0.1156
 5060TIP3    H139375   5.615   1.183  17.908 -1.3885 -0.1304 -2.1743
 5060TIP3    H239376   5.481   1.190  17.978 -1.5109  0.5463 -2.4721
 5061TIP3   OH239377   2.720   6.505  18.017 -0.1687  0.0366 -0.1729
 5061TIP3    H139378   2.691   6.552  17.938  0.8486 -0.2648 -0.7413
 5061TIP3    H239379   2.809   6.476  17.996  0.4173  0.5946  1.3628
 5062TIP3   OH239380   2.631   0.322  18.332 -0.5355  0.1734 -0.4038
 5062TIP3    H139381   2.709   0.297  18.382 -0.3507 -0.4033 -0.9627
 5062TIP3    H239382   2.665   0.352  18.248 -0.9002  0.1814 -0.5517
 5063TIP3   OH239383   5.622   1.046  18.627 -0.0806 -0.0844  0.1963
 5063TIP3    H139384   5.637   0.992  18.704 -0.8843 -0.4388  0.1215
 5063TIP3    H239385   5.655   0.994  18.554 -1.6471 -0.9009  0.0195
 5064TIP3   OH239386   0.530   4.187  17.917  0.0006  1.0096  0.2829
 5064TIP3    H139387   0.504   4.227  17.833 -0.1846  1.4077  0.5270
 5064TIP3    H239388   0.457   4.127  17.938 -0.7179  2.0781  0.9320
 5065TIP3   OH239389   0.103   1.284  19.619 -0.1821 -0.7164 -0.1467
 5065TIP3    H139390   0.188   1.279  19.662 -0.6458  0.7310  1.0245
 5065TIP3    H239391   0.115   1.240  19.535  1.8778 -0.0039 -0.2615
 5066TIP3   OH239392   1.354   2.142  18.865  0.7541  0.5652 -0.4487
 5066TIP3    H139393   1.402   2.067  18.830 -0.2659 -0.5509  0.4690
 5066TIP3    H239394   1.356   2.207  18.794  2.2410 -0.0425 -1.0056
 5067TIP3   OH239395   6.055   5.663  17.096  0.2590 -0.1654  0.0531
 5067TIP3    H139396   5.997   5.700  17.030 -0.3088 -1.8408 -0.4234
 5067TIP3    H239397   6.103   5.594  17.051  0.4739 -0.7747  1.1719
 5068TIP3   OH239398   0.876   6.058  18.814  0.1698  0.0495  0.0544
 5068TIP3    H139399   0.814   5.985  18.811  1.2283 -0.8943  0.3674
 5068TIP3    H239400   0.822   6.136  18.799 -0.8286 -0.8709 -1.3325
 5069TIP3   OH239401   6.277   4.027  19.954  0.2576 -0.2713  0.3143
 5069TIP3    H139402   6.234   4.094  19.899 -0.6542 -1.2674 -0.2292
 5069TIP3    H239403   6.349   3.995  19.900  0.8843  0.4530  0.6923
 5070TIP3   OH239404   1.929   0.619  19.937  0.1617  0.8359  0.0393
 5070TIP3    H139405   1.975   0.556  19.992  1.3311  1.6203 -0.0288
 5070TIP3    H239406   1.988   0.635  19.864 -0.5498  1.2894 -0.4500
 5071TIP3   OH239407   1.739   2.269  18.313  0.0201  0.2138 -0.4383
 5071TIP3    H139408   1.803   2.326  18.357  0.1477  0.6290 -1.1444
 5071TIP3    H239409   1.719   2.201  18.378  0.7638  0.3896 -0.0099
 5072TIP3   OH239410   5.251   6.215  17.846  0.0586 -0.5433  0.0987
 5072TIP3    H139411   5.242   6.307  17.823  1.9666 -0.2844  0.1864
 5072TIP3    H239412   5.294   6.175  17.770 -0.2611 -1.2519  0.2769
 5073TIP3   OH239413   5.252   4.336  18.137  0.1205 -0.0756 -0.0788
 5073TIP3    H139414   5.286   4.247  18.149  1.5124  0.4137 -0.2822
 5073TIP3    H239415   5.330   4.390  18.124 -0.6648  1.2963  0.7454
 5074TIP3   OH239416   4.911   0.514  19.635 -0.4678  0.2651 -0.3396
 5074TIP3    H139417   4.955   0.575  19.694 -0.7901  0.6708 -0.5150
 5074TIP3    H239418   4.841   0.476  19.687 -0.5420  0.3733 -0.3609
 5075TIP3   OH239419   4.497   5.402  20.539 -0.1829 -0.1449  0.1094
 5075TIP3    H139420   4.506   5.307  20.547 -0.4412 -0.0596  2.0120
 5075TIP3    H239421   4.547   5.437  20.613  3.1829  1.4628 -2.6483
 5076TIP3   OH239422   4.297   6.276  17.348 -0.3002 -0.1423  0.3620
 5076TIP3    H139423   4.285   6.275  17.253 -0.7695  1.1192  0.3972
 5076TIP3    H239424   4.374   6.221  17.363  2.2302  2.7127 -1.1128
 5077TIP3   OH239425   0.058   2.723  18.259 -0.1762  0.6257 -0.4353
 5077TIP3    H139426   0.124   2.739  18.326 -0.0891  0.4434 -0.4766
 5077TIP3    H239427  -0.025   2.723  18.307  0.0366 -1.5569  0.0318
 5078TIP3   OH239428   4.701   2.677  19.111 -0.7473  0.3207 -0.1571
 5078TIP3    H139429   4.684   2.654  19.019  0.0660  0.2296 -0.2983
 5078TIP3    H239430   4.794   2.702  19.112 -0.8049  0.5244  0.6043
 5079TIP3   OH239431   0.598   6.572  20.248 -0.0988 -0.4762  0.6225
 5079TIP3    H139432   0.601   6.494  20.193  0.7150 -0.7828  1.0757
 5079TIP3    H239433   0.689   6.586  20.273 -0.3742  0.0389  1.3585
 5080TIP3   OH239434   5.340   0.043  20.016  0.7147 -0.0886 -0.0680
 5080TIP3    H139435   5.277   0.111  20.040  0.0465 -0.0620 -1.7397
 5080TIP3    H239436   5.290  -0.018  19.963  1.8149 -0.7292 -0.3944
 5081TIP3   OH239437   1.240   3.265  19.450 -0.3120  0.0330 -0.1087
 5081TIP3    H139438   1.293   3.186  19.441  1.3753  1.0039  0.8308
 5081TIP3    H239439   1.162   3.237  19.497 -0.5732 -1.3946 -1.3291
 5082TIP3   OH239440   5.762   1.842  19.357  0.3317 -0.1108 -0.2248
 5082TIP3    H139441   5.705   1.814  19.429 -0.4670  0.6536 -0.5364
 5082TIP3    H239442   5.810   1.763  19.332  0.8546 -0.3240  1.3385
 5083TIP3   OH239443   3.065   0.581  18.799 -0.2651  0.0892 -0.9155
 5083TIP3    H139444   3.035   0.491  18.792 -1.1928  0.2533  0.6037
 5083TIP3    H239445   3.153   0.580  18.762 -0.3055 -1.4080 -1.0105
 5084TIP3   OH239446   2.557   0.073  17.586  0.2798 -0.4239 -0.1556
 5084TIP3    H139447   2.487   0.021  17.627  0.4261 -1.2889 -0.9764
 5084TIP3    H239448   2.512   0.127  17.521  0.4540 -1.5773 -1.2581
 5085TIP3   OH239449   5.621   3.194  18.115  0.3354 -0.1572  0.5971
 5085TIP3    H139450   5.611   3.197  18.020 -1.8093 -1.8917  0.7012
 5085TIP3    H239451   5.547   3.243  18.149  0.3647 -0.6397  1.3826
 5086TIP3   OH239452   6.309   0.255  18.336 -0.0486 -0.2269 -0.0480
 5086TIP3    H139453   6.317   0.160  18.339 -0.0211 -0.2254 -0.0775
 5086TIP3    H239454   6.398   0.287  18.343 -0.0980 -0.1914  0.4666
 5087TIP3   OH239455   0.947   3.697  20.102 -0.0449  0.2627 -0.1930
 5087TIP3    H139456   0.935   3.722  20.194 -1.0922 -1.8483  0.3137
 5087TIP3    H239457   1.007   3.622  20.106  0.0071  0.2441 -1.2420
 5088TIP3   OH239458   3.054   5.726  17.906  0.1904 -0.4329 -0.7036
 5088TIP3    H139459   2.993   5.786  17.863 -0.8745 -2.0104 -1.4751
 5088TIP3    H239460   3.034   5.640  17.868 -0.4871 -1.8729  2.6243
 5089TIP3   OH239461   2.736   4.930  17.364  0.2654 -0.0592 -0.6858
 5089TIP3    H139462   2.788   5.003  17.329  0.4221  0.5603  0.7360
 5089TIP3    H239463   2.799   4.858  17.373  1.3149  1.0399  2.1591
 5090TIP3   OH239464   3.979   6.160  16.325  0.2338 -0.4046 -0.0606
 5090TIP3    H139465   3.884   6.148  16.325 -0.4621  3.5905 -0.6004
 5090TIP3    H239466   4.002   6.164  16.418 -0.2966 -0.5042  0.0780
 5091TIP3   OH239467   5.496   6.605  19.848  0.6341  0.5246 -0.0464
 5091TIP3    H139468   5.540   6.680  19.807 -1.3886  1.4170 -0.6900
 5091TIP3    H239469   5.436   6.644  19.912 -0.7271 -0.5010 -0.6534
 5092TIP3   OH239470   5.394   3.183  18.711  0.7092 -1.1948 -0.5809
 5092TIP3    H139471   5.347   3.207  18.631 -0.3810 -0.7428  0.1675
 5092TIP3    H239472   5.400   3.264  18.761 -1.2051 -1.9693  1.0619
 5093TIP3   OH239473   0.640   3.037  17.416 -0.4045 -0.0136  0.1098
 5093TIP3    H139474   0.688   3.119  17.407 -0.9330  0.8487  3.6472
 5093TIP3    H239475   0.548   3.063  17.416 -0.5611 -0.3150  2.4219
 5094TIP3   OH239476   0.218   6.595  17.654 -0.7195  0.5853  0.1930
 5094TIP3    H139477   0.162   6.672  17.670 -2.2506 -0.4449  0.0308
 5094TIP3    H239478   0.160   6.532  17.611  1.2792  0.4083 -2.4847
 5095TIP3   OH239479   2.602   5.857  19.049  0.5260 -0.0647  0.7329
 5095TIP3    H139480   2.614   5.766  19.075  1.9378  0.5876  2.5627
 5095TIP3    H239481   2.586   5.853  18.955  0.8513 -2.1628  0.7189
 5096TIP3   OH239482   0.400   2.018  16.920 -0.1544 -0.3114 -0.0764
 5096TIP3    H139483   0.478   2.073  16.929 -0.3309 -0.1376  0.4762
 5096TIP3    H239484   0.364   2.014  17.009 -1.1474  0.1754 -0.4383
 5097TIP3   OH239485   5.789   4.233  20.322  0.1342 -0.0057 -0.7146
 5097TIP3    H139486   5.863   4.211  20.266  1.1368  1.5771 -0.0846
 5097TIP3    H239487   5.761   4.319  20.291  0.7767  0.9520  1.2170
 5098TIP3   OH239488   3.862   2.088  20.135 -0.2643 -0.0577 -0.5622
 5098TIP3    H139489   3.946   2.126  20.111  0.6888 -1.6408  0.1833
 5098TIP3    H239490   3.809   2.096  20.055 -0.0192  2.4539 -0.5592
 5099TIP3   OH239491   3.980   2.356  17.356 -0.3278  0.4957 -0.0351
 5099TIP3    H139492   3.888   2.364  17.333 -0.6669  0.5378  1.3064
 5099TIP3    H239493   4.017   2.442  17.337 -1.1024  1.2489  1.6976
 5100TIP3   OH239494   2.720   5.563  17.830 -0.3747  0.1417  0.3150
 5100TIP3    H139495   2.728   5.513  17.911 -1.7753 -0.7383 -0.0490
 5100TIP3    H239496   2.808   5.566  17.794  0.4592  1.3430  2.3083
 5101TIP3   OH239497   6.707   3.759  18.635 -0.8225  0.4838 -0.2070
 5101TIP3    H139498   6.666   3.675  18.658  1.2948 -0.3938  0.5728
 5101TIP3    H239499   6.673   3.778  18.548 -0.0526 -2.1279 -1.1969
 5102TIP3   OH239500   2.366   3.447  17.204 -0.0823  0.1671  0.3368
 5102TIP3    H139501   2.293   3.400  17.162  1.0409  0.0514 -1.6022
 5102TIP3    H239502   2.337   3.459  17.294 -2.9969  1.1105 -0.5973
 5103TIP3   OH239503   0.495   3.721  17.745  0.2925  0.1471 -0.1338
 5103TIP3    H139504   0.500   3.670  17.825 -2.0772 -0.0503 -0.0250
 5103TIP3    H239505   0.414   3.772  17.754  1.4862  2.3429 -1.1504
 5104TIP3   OH239506   1.651   5.703  19.037  0.1698  0.1908 -0.1557
 5104TIP3    H139507   1.644   5.762  19.112  2.3912  0.1467  0.1523
 5104TIP3    H239508   1.567   5.710  18.993 -0.9365  0.7952  1.9063
 5105TIP3   OH239509   5.253   0.070  17.372 -0.1523 -0.4676  0.3771
 5105TIP3    H139510   5.239  -0.021  17.401 -0.6973 -0.8554 -1.0293
 5105TIP3    H239511   5.183   0.119  17.415  0.8017 -0.4770  2.0431
 5106TIP3   OH239512   5.652   2.986  18.280  0.0349  0.0181  0.2012
 5106TIP3    H139513   5.664   3.055  18.215  1.4626 -0.7342 -0.3858
 5106TIP3    H239514   5.609   2.915  18.232  0.5679 -0.3183  0.2096
 5107TIP3   OH239515   2.318   2.999  19.118 -0.0557 -0.0899 -0.7166
 5107TIP3    H139516   2.404   2.998  19.074 -0.0802 -2.4258 -0.8316
 5107TIP3    H239517   2.255   2.997  19.046 -0.1370 -1.4862 -0.6191
 5108TIP3   OH239518   2.634   2.459  18.958 -0.5256 -0.2131  0.4526
 5108TIP3    H139519   2.692   2.452  18.882  0.4613  1.0094  1.0702
 5108TIP3    H239520   2.682   2.416  19.029 -0.7314  0.0791  0.7740
 5109TIP3   OH239521   5.343   3.582  17.815 -0.1766 -0.4383  0.3759
 5109TIP3    H139522   5.289   3.609  17.741 -1.1468  0.5766  1.4115
 5109TIP3    H239523   5.282   3.536  17.873  0.5637 -1.1881  0.5851
 5110TIP3   OH239524   4.664   6.524  19.336 -0.3503 -0.3354  0.2355
 5110TIP3    H139525   4.722   6.559  19.404  0.4044 -1.7968  0.3967
 5110TIP3    H239526   4.578   6.522  19.377 -0.0388 -0.4985  0.9060
 5111TIP3   OH239527   0.806   3.065  18.786 -0.2888  0.0001 -0.2300
 5111TIP3    H139528   0.893   3.029  18.800  0.4668  2.1048  1.1022
 5111TIP3    H239529   0.805   3.145  18.839 -4.3929 -1.8947  3.0995
 5112TIP3   OH239530   5.312   5.844  17.840 -0.0787 -0.3178  0.5204
 5112TIP3    H139531   5.387   5.881  17.793 -0.0387  0.7868  1.4074
 5112TIP3    H239532   5.259   5.803  17.772 -0.5850  2.1995 -0.7277
 5113TIP3   OH239533   3.729   4.596  20.023 -0.2244  0.6263 -0.0118
 5113TIP3    H139534   3.736   4.594  20.119  0.0731  1.9666  0.0102
 5113TIP3    H239535   3.814   4.568  19.992  0.3020  1.9806  0.1470
 5114TIP3   OH239536   1.662   3.856  18.489  0.1120  0.1841  0.3807
 5114TIP3    H139537   1.636   3.770  18.520 -0.9790  0.0881 -0.7144
 5114TIP3    H239538   1.717   3.892  18.559  0.2305 -1.2188  1.0281
 5115TIP3   OH239539   4.748   6.165  17.346 -0.1245 -0.3284  0.1021
 5115TIP3    H139540   4.718   6.106  17.414  0.9364 -2.2827 -1.0436
 5115TIP3    H239541   4.672   6.219  17.325 -0.8800 -0.7022  1.7570
 5116TIP3   OH239542   3.243   1.585  17.908 -0.3354  0.4346 -0.4388
 5116TIP3    H139543   3.307   1.602  17.839 -0.0578 -0.5049 -0.4277
 5116TIP3    H239544   3.285   1.616  17.988  0.6731 -1.3431 -0.2342
 5117TIP3   OH239545   2.179   2.612  20.155 -0.0745 -0.2239  0.0104
 5117TIP3    H139546   2.169   2.543  20.221  1.0565  1.0858  1.6278
 5117TIP3    H239547   2.093   2.654  20.150 -0.2774 -0.6010  0.3281
 5118TIP3   OH239548   1.413   0.557  17.498 -0.3730 -0.2890 -0.1497
 5118TIP3    H139549   1.483   0.572  17.562  0.5777 -2.4773 -0.5737
 5118TIP3    H239550   1.456   0.565  17.413 -1.3957  1.5384 -0.5445
 5119TIP3   OH239551   1.540   4.891  19.648  0.1594 -0.0337  0.1546
 5119TIP3    H139552   1.613   4.864  19.593  0.2289  0.1288  0.1684
 5119TIP3    H239553   1.463   4.853  19.605 -0.1091  2.0839 -1.4522
 5120TIP3   OH239554   3.189   2.759  19.144  0.5245  0.1960  0.0728
 5120TIP3    H139555   3.168   2.740  19.053 -0.5005 -1.1025  0.5461
 5120TIP3    H239556   3.275   2.718  19.158  0.7628  0.5488 -0.3476
 5121TIP3   OH239557   3.290   5.897  17.705  0.0074 -0.1363  0.4273
 5121TIP3    H139558   3.215   5.844  17.677 -0.7528  1.5145 -0.8454
 5121TIP3    H239559   3.250   5.972  17.750  1.0260 -0.2470  1.5740
 5122TIP3   OH239560   5.211   4.082  18.602 -0.4211  0.0098  0.2733
 5122TIP3    H139561   5.177   4.024  18.534 -0.4467  0.4936 -0.1337
 5122TIP3    H239562   5.245   4.158  18.555 -0.9593  0.6166  0.8301
 5123TIP3   OH239563   4.350   5.385  20.313 -0.7880  0.5584 -0.3353
 5123TIP3    H139564   4.333   5.469  20.271 -1.5512  0.4628 -0.2281
 5123TIP3    H239565   4.410   5.406  20.385  0.1021  0.7998 -1.1194
 5124TIP3   OH239566   3.983   1.401  19.171 -0.1398 -0.1152  0.0828
 5124TIP3    H139567   3.950   1.410  19.081 -1.4653 -1.2320  0.4182
 5124TIP3    H239568   3.908   1.423  19.226  0.2285 -0.8546  0.8958
 5125TIP3   OH239569   0.692   5.405  17.752 -0.0806  0.5313  0.3860
 5125TIP3    H139570   0.621   5.355  17.793 -0.3722  1.4151  1.0117
 5125TIP3    H239571   0.673   5.496  17.775  1.6573  0.7369  1.2102
 5126TIP3   OH239572   0.621   0.667  18.856  0.1357  0.3746  0.2474
 5126TIP3    H139573   0.688   0.705  18.913 -1.4351  0.4463  2.1645
 5126TIP3    H239574   0.669   0.636  18.780  2.5252 -0.5859  2.0116
 5127TIP3   OH239575   5.922   0.316  17.064  0.2187 -0.0285 -0.1751
 5127TIP3    H139576   5.905   0.331  17.157  4.3035 -0.3945  0.8076
 5127TIP3    H239577   5.936   0.404  17.028 -0.3557  0.0405 -0.2443
 5128TIP3   OH239578   4.673   2.979  18.937 -0.2539  0.6431  0.4926
 5128TIP3    H139579   4.724   2.957  19.015 -0.1182  0.7220  0.4281
 5128TIP3    H239580   4.586   2.942  18.953  0.8077 -3.0058 -1.0129
 5129TIP3   OH239581   1.292   4.431  20.155 -0.5655 -0.7786 -0.5321
 5129TIP3    H139582   1.261   4.351  20.112 -0.6245 -1.8382  1.3651
 5129TIP3    H239583   1.226   4.450  20.222  0.3764 -0.2455  0.2890
 5130TIP3   OH239584   3.053   0.519  19.939  0.1675  0.5125 -0.2614
 5130TIP3    H139585   3.121   0.562  19.887  0.8343 -1.4136 -1.0543
 5130TIP3    H239586   3.099   0.484  20.016 -0.1764  0.3486 -0.1270
 5131TIP3   OH239587   4.955   4.915  17.561 -0.3165  0.0265 -0.5335
 5131TIP3    H139588   4.889   4.853  17.530  0.4300 -0.7581 -0.6050
 5131TIP3    H239589   5.020   4.917  17.491 -0.7359  1.5556 -0.9159
 5132TIP3   OH239590   4.500   0.558  20.308  0.4160  0.3280 -0.5673
 5132TIP3    H139591   4.593   0.579  20.308  0.0480  2.1601  0.5346
 5132TIP3    H239592   4.459   0.630  20.259 -0.3400 -1.0786 -2.1142
 5133TIP3   OH239593   3.531   2.301  18.043  0.0691 -0.0497  0.3762
 5133TIP3    H139594   3.584   2.236  17.996 -1.6317 -1.2820  0.0903
 5133TIP3    H239595   3.517   2.263  18.129 -0.5213  0.1775  0.3832
 5134TIP3   OH239596   4.777   5.023  18.225  0.9316 -0.1148  0.2007
 5134TIP3    H139597   4.788   5.017  18.320  0.8536 -0.0950  0.2109
 5134TIP3    H239598   4.866   5.032  18.190  0.9552 -0.0542  0.2762
 5135TIP3   OH239599   6.337   5.305  20.508  0.0961  0.2806  0.3403
 5135TIP3    H139600   6.364   5.255  20.585 -1.0380 -0.0979  0.5057
 5135TIP3    H239601   6.416   5.311  20.454  0.4171 -1.1191  0.6325
 5136TIP3   OH239602   3.202   6.674  18.979 -0.2623  0.0223  0.3437
 5136TIP3    H139603   3.263   6.601  18.983  3.3226  2.6756 -0.5727
 5136TIP3    H239604   3.211   6.717  19.065  0.0365  1.0134 -0.1638
 5137TIP3   OH239605   0.379   5.697  19.251  0.0297 -0.1790 -0.0608
 5137TIP3    H139606   0.356   5.643  19.176 -0.1799 -1.6683  1.0492
 5137TIP3    H239607   0.466   5.666  19.278  0.9020  1.5437 -0.7310
 5138TIP3   OH239608   5.569   3.136  17.853  0.0679  0.1732  0.4719
 5138TIP3    H139609   5.612   3.083  17.785 -0.2453 -0.1608  0.5324
 5138TIP3    H239610   5.570   3.225  17.818 -0.1653 -0.0125 -0.0054
 5139TIP3   OH239611   6.121   3.022  19.317 -0.9568  0.0521  0.4539
 5139TIP3    H139612   6.136   3.111  19.349 -2.4356 -0.1503  1.8254
 5139TIP3    H239613   6.047   3.030  19.257 -0.8890 -0.2119  0.3314
 5140TIP3   OH239614   1.479   5.344  18.146  0.0448  0.3044  0.7536
 5140TIP3    H139615   1.484   5.257  18.186  1.3766 -0.6256 -1.3242
 5140TIP3    H239616   1.522   5.335  18.061 -2.5662  2.1973 -0.9267
 5141TIP3   OH239617   3.549   1.615  17.867  0.4258 -0.1953  0.4865
 5141TIP3    H139618   3.538   1.534  17.916  2.2348 -1.1354 -0.5614
 5141TIP3    H239619   3.632   1.652  17.899  0.0907  0.7524  0.2977
 5142TIP3   OH239620   5.718   5.699  20.105  0.3770 -0.2642  0.4785
 5142TIP3    H139621   5.751   5.782  20.138  0.0687  0.2936 -0.5767
 5142TIP3    H239622   5.637   5.684  20.153  0.4766  0.0047  0.7313
 5143TIP3   OH239623   2.995   4.191  19.021  0.1300  0.4004 -0.1442
 5143TIP3    H139624   2.952   4.127  19.077 -2.8880  0.0708 -2.5987
 5143TIP3    H239625   2.964   4.276  19.053 -1.7539  0.2045 -1.2906
 5144TIP3   OH239626   5.875   0.982  17.007  0.2601  0.8469  0.6611
 5144TIP3    H139627   5.919   0.955  16.926 -0.9987  2.7133 -0.7225
 5144TIP3    H239628   5.879   0.905  17.063  1.8443 -0.2663 -0.8835
 5145TIP3   OH239629   3.673   3.774  17.905  0.0744 -0.5582 -0.8754
 5145TIP3    H139630   3.594   3.827  17.893  0.4829 -0.1151 -1.7178
 5145TIP3    H239631   3.671   3.711  17.833  1.2200  0.4104 -1.7960
 5146TIP3   OH239632   0.454   1.864  18.352 -0.6319  0.2982 -0.2632
 5146TIP3    H139633   0.427   1.800  18.418 -1.2706  0.2707 -0.5381
 5146TIP3    H239634   0.542   1.890  18.378 -0.9534  0.4507  0.7229
 5147TIP3   OH239635   5.778   0.139  18.087  0.5020  0.0941 -0.0046
 5147TIP3    H139636   5.865   0.179  18.080  0.2583  0.7416  0.6788
 5147TIP3    H239637   5.796   0.048  18.111  0.9597  0.6989  2.1574
 5148TIP3   OH239638   5.774   2.271  19.363 -0.1968  0.7878 -0.5597
 5148TIP3    H139639   5.731   2.274  19.277  2.6606  1.4293 -2.1019
 5148TIP3    H239640   5.838   2.201  19.355  1.8095  2.4590  0.1032
 5149TIP3   OH239641   6.044   4.829  19.407  0.3335  0.1897 -0.0220
 5149TIP3    H139642   5.970   4.884  19.382 -1.5891 -2.2560 -0.0802
 5149TIP3    H239643   6.039   4.824  19.503  0.5311  0.1519 -0.0135
 5150TIP3   OH239644   6.598   4.548  20.326  0.4310 -0.2419 -0.1339
 5150TIP3    H139645   6.649   4.467  20.331 -0.8474 -1.1754 -1.6885
 5150TIP3    H239646   6.662   4.614  20.299  1.2608 -0.9386  0.0742
 5151TIP3   OH239647   6.100   0.526  19.175 -0.4505 -0.1665  0.6466
 5151TIP3    H139648   6.077   0.541  19.267 -2.4643  3.6205 -0.2861
 5151TIP3    H239649   6.117   0.613  19.139  2.1933 -1.6517 -2.2134
 5152TIP3   OH239650   5.277   4.829  19.495  0.2539 -0.3076 -0.3645
 5152TIP3    H139651   5.235   4.773  19.560  0.3657 -0.3444 -0.3230
 5152TIP3    H239652   5.244   4.917  19.513 -1.5915 -0.6490 -1.7546
 5153TIP3   OH239653   2.758   0.305  19.112 -0.5851 -0.1787 -0.0699
 5153TIP3    H139654   2.710   0.256  19.046 -1.1357 -0.7821  0.7555
 5153TIP3    H239655   2.721   0.276  19.195  0.0033  0.6572  0.5025
 5154TIP3   OH239656   4.922   3.966  19.449 -0.3656  0.3300  0.4164
 5154TIP3    H139657   4.861   4.022  19.496 -2.1752  0.3911 -1.8391
 5154TIP3    H239658   4.954   4.020  19.377 -0.9206 -1.0176 -0.8701
 5155TIP3   OH239659   2.839   0.529  18.549 -0.0475  0.8017  0.1190
 5155TIP3    H139660   2.859   0.547  18.458  0.2672 -0.2667 -0.0418
 5155TIP3    H239661   2.897   0.457  18.573 -0.6453  0.5669  0.9409
 5156TIP3   OH239662   4.667   0.332  19.417 -0.0545  0.0613 -0.5335
 5156TIP3    H139663   4.714   0.319  19.335  0.7321 -0.2973 -0.0397
 5156TIP3    H239664   4.649   0.244  19.449  1.9684  0.1196  0.9501
 5157TIP3   OH239665   3.159   2.880  20.040 -0.4156 -0.4523  0.3152
 5157TIP3    H139666   3.177   2.962  20.086  1.0002 -0.4437 -0.1839
 5157TIP3    H239667   3.246   2.843  20.023 -1.0077 -1.8098  0.0740
 5158TIP3   OH239668   5.731   6.205  20.246  0.5094 -0.1425  0.1420
 5158TIP3    H139669   5.671   6.195  20.320  1.7403 -0.3021  1.1575
 5158TIP3    H239670   5.699   6.283  20.199  0.4416  0.7296  1.5811
 5159TIP3   OH239671   2.059   4.871  20.196  0.5154 -0.2993 -0.2099
 5159TIP3    H139672   2.068   4.777  20.181 -1.9481 -0.7876  0.8319
 5159TIP3    H239673   1.964   4.887  20.194  0.8120  2.0059  0.5333
 5160TIP3   OH239674   1.133   0.864  18.043  0.7868  0.0893 -0.5700
 5160TIP3    H139675   1.087   0.863  17.959 -0.5892  1.9984  0.0808
 5160TIP3    H239676   1.081   0.807  18.100  0.9316 -0.1085 -0.6363
 5161TIP3   OH239677   1.543   2.643  19.730 -0.1926 -0.0783  0.2293
 5161TIP3    H139678   1.635   2.664  19.711 -0.8932  1.2167 -2.0570
 5161TIP3    H239679   1.545   2.551  19.756  1.6171 -0.4704 -1.0805
 5162TIP3   OH239680   3.307   1.164  19.503 -0.0110  0.0958 -0.0687
 5162TIP3    H139681   3.269   1.187  19.419 -1.1261  0.6675  0.5582
 5162TIP3    H239682   3.255   1.090  19.534  0.8546 -0.5853 -0.1820
 5163TIP3   OH239683   6.588   6.027  18.023 -0.5204 -0.4701  0.2222
 5163TIP3    H139684   6.572   5.933  18.022 -1.5167 -0.3310  1.1789
 5163TIP3    H239685   6.681   6.035  18.043 -0.3786 -1.2578 -0.0887
 5164TIP3   OH239686   5.409   2.983  18.441 -0.0454 -0.1023 -0.1952
 5164TIP3    H139687   5.503   2.968  18.428 -0.0662 -0.0615 -0.3978
 5164TIP3    H239688   5.403   3.021  18.528  0.1182 -0.1990 -0.1397
 5165TIP3   OH239689   2.419   4.911  17.533  0.2524  0.3972 -0.3372
 5165TIP3    H139690   2.328   4.935  17.548  0.8148  1.7886  1.0550
 5165TIP3    H239691   2.428   4.825  17.575  0.1794  1.3815  1.7918
 5166TIP3   OH239692   1.759   4.870  18.365 -0.0210  0.0471 -0.3626
 5166TIP3    H139693   1.667   4.847  18.347 -0.6601  0.6614  1.8068
 5166TIP3    H239694   1.753   4.943  18.427  1.9367 -0.4273  0.4338
 5167TIP3   OH239695   6.659   5.307  20.659 -0.5757  0.2180  0.3712
 5167TIP3    H139696   6.635   5.319  20.751  1.9618  1.3606  0.9719
 5167TIP3    H239697   6.706   5.223  20.657  1.5606  1.3325  0.6950
 5168TIP3   OH239698   1.292   5.603  19.510  0.0621 -0.3368  0.1864
 5168TIP3    H139699   1.220   5.561  19.557 -2.2137 -0.0644 -2.7643
 5168TIP3    H239700   1.352   5.632  19.578 -2.6605 -0.5036  2.8364
 5169TIP3   OH239701   5.730   1.999  18.887  0.1737  0.4591 -0.5032
 5169TIP3    H139702   5.797   2.066  18.902  0.1006  0.4999 -0.3586
 5169TIP3    H239703   5.747   1.932  18.953 -0.3800  0.8191  0.0113
 5170TIP3   OH239704   3.984   1.351  18.756  0.4258 -0.0021  0.4065
 5170TIP3    H139705   3.988   1.263  18.794  1.5785 -0.1032  0.0849
 5170TIP3    H239706   4.075   1.380  18.753  0.2350  0.5365 -1.0431
 5171TIP3   OH239707   4.111   0.843  19.069 -0.0766 -0.0411 -0.3599
 5171TIP3    H139708   4.120   0.850  18.973 -0.6627  0.3069 -0.3943
 5171TIP3    H239709   4.191   0.882  19.103 -0.7209  1.6460 -0.6813
 5172TIP3   OH239710   1.866   3.879  17.179  0.4922  0.0680 -0.1699
 5172TIP3    H139711   1.853   3.964  17.136 -0.2377  0.5124  0.8938
 5172TIP3    H239712   1.796   3.824  17.144 -1.4963  1.0591  1.9572
 5173TIP3   OH239713   6.269   3.679  20.355 -0.2510 -0.0950  0.1189
 5173TIP3    H139714   6.281   3.602  20.299  0.4085 -1.7189  2.3448
 5173TIP3    H239715   6.357   3.707  20.377 -0.4902 -0.1089  1.1350
 5174TIP3   OH239716   6.339   5.431  16.352 -0.0020  0.0324  0.0909
 5174TIP3    H139717   6.259   5.474  16.321 -0.2026 -1.1287 -1.0868
 5174TIP3    H239718   6.323   5.337  16.338  2.2500 -0.1361 -1.9179
 5175TIP3   OH239719   5.171   4.022  19.905 -0.1023 -0.3308  0.0113
 5175TIP3    H139720   5.164   4.110  19.869  2.9875 -0.3586 -0.9233
 5175TIP3    H239721   5.185   4.035  19.999  1.1500  0.2567 -0.2378
 5176TIP3   OH239722   1.446   1.910  19.221  0.1326  0.6056  0.1898
 5176TIP3    H139723   1.447   1.930  19.314 -0.4860  0.7417  0.1720
 5176TIP3    H239724   1.493   1.983  19.180  1.7091 -0.1803  0.5124
 5177TIP3   OH239725   1.904   0.785  18.909 -0.3312  0.1225 -0.0156
 5177TIP3    H139726   1.893   0.743  18.823  1.4221 -1.3422  0.4136
 5177TIP3    H239727   1.851   0.732  18.969  2.1636 -1.8983  0.5929
 5178TIP3   OH239728   5.387   6.225  20.174 -0.5237  0.3876 -0.0922
 5178TIP3    H139729   5.371   6.246  20.265  0.6998  3.3556 -0.4704
 5178TIP3    H239730   5.430   6.139  20.176  3.2400  2.0867  2.5375
 5179TIP3   OH239731   5.967   1.288  19.119  0.0425 -0.1242 -0.5319
 5179TIP3    H139732   5.883   1.332  19.131 -0.6403 -1.1237 -1.4750
 5179TIP3    H239733   6.018   1.314  19.196 -1.4409 -0.2260  0.5310
 5180TIP3   OH239734   0.215   4.402  18.096  0.3246 -0.5459  0.1242
 5180TIP3    H139735   0.238   4.396  18.189 -1.4265 -3.6373  0.4640
 5180TIP3    H239736   0.299   4.418  18.052  0.9981  2.8036  2.2299
 5181TIP3   OH239737   3.217   1.551  19.819  0.0630 -0.8558 -0.1304
 5181TIP3    H139738   3.141   1.580  19.768 -0.4245 -2.6508 -0.5185
 5181TIP3    H239739   3.287   1.611  19.794 -1.5841  2.0455  1.6147
 5182TIP3   OH239740   0.470   1.833  18.028 -0.0363  0.4395  0.1659
 5182TIP3    H139741   0.386   1.861  17.992 -0.3798 -0.7720 -0.0367
 5182TIP3    H239742   0.493   1.899  18.092 -1.3510  0.5728  0.5197
 5183TIP3   OH239743   5.689   1.778  19.034 -0.2544 -0.6636 -0.4101
 5183TIP3    H139744   5.631   1.704  19.018 -0.1322 -0.6834 -0.7658
 5183TIP3    H239745   5.756   1.744  19.093  0.3562 -1.1130 -1.3395
 5184TIP3   OH239746   2.196   0.211  19.910 -0.1013 -0.1869 -0.5411
 5184TIP3    H139747   2.253   0.168  19.974  0.3630 -1.5930 -1.8233
 5184TIP3    H239748   2.250   0.280  19.873  0.3215 -0.6286 -0.7730
 5185TIP3   OH239749   6.667   5.321  18.205  0.4865 -0.0411 -0.5031
 5185TIP3    H139750   6.671   5.225  18.205 -1.6802 -0.1796 -1.8166
 5185TIP3    H239751   6.715   5.347  18.127 -0.3285 -0.1646 -1.0544
 5186TIP3   OH239752   5.288   0.523  18.134  0.0308 -0.1759  0.2053
 5186TIP3    H139753   5.284   0.512  18.229 -0.0303  2.5758  0.6021
 5186TIP3    H239754   5.200   0.552  18.110  0.4271  0.4886 -0.4742
 5187TIP3   OH239755   3.422   0.958  17.656 -0.0995 -0.2729 -0.8159
 5187TIP3    H139756   3.388   1.018  17.590 -0.0978 -0.8560 -1.3485
 5187TIP3    H239757   3.378   0.875  17.639 -0.4387 -0.3152  0.1968
 5188TIP3   OH239758   2.172   0.856  19.187  0.1225 -0.0163  0.4207
 5188TIP3    H139759   2.170   0.925  19.120  3.0591  0.4813  0.7217
 5188TIP3    H239760   2.153   0.775  19.139  0.6847  0.5195 -0.7407
 5189TIP3   OH239761   4.187   2.950  17.003  0.4115 -0.6113 -0.5894
 5189TIP3    H139762   4.209   3.038  16.972  0.8464  0.5919  2.7834
 5189TIP3    H239763   4.100   2.959  17.041 -0.7045 -2.3681 -2.5134
 5190TIP3   OH239764   4.437   6.540  17.442 -0.0322 -0.1212 -0.0069
 5190TIP3    H139765   4.385   6.535  17.522  2.3679  0.3831  1.7139
 5190TIP3    H239766   4.455   6.449  17.420  0.0459 -0.2641  0.6088
 5191TIP3   OH239767   4.771   3.207  18.800  0.0947  0.0416  0.0167
 5191TIP3    H139768   4.859   3.169  18.806 -0.3071 -0.9653 -0.3482
 5191TIP3    H239769   4.714   3.144  18.844 -0.9506 -1.0204 -2.6806
 5192TIP3   OH239770   4.837   5.587  20.190  0.1857  0.2146 -0.0374
 5192TIP3    H139771   4.895   5.583  20.114 -1.1637  1.0134 -1.1448
 5192TIP3    H239772   4.764   5.642  20.162 -0.3408  0.5458  1.8499
 5193TIP3   OH239773   3.177   6.004  19.924 -0.2931  0.2011  0.1232
 5193TIP3    H139774   3.183   5.948  19.847  1.3524  2.3343 -1.4047
 5193TIP3    H239775   3.125   5.953  19.986  1.8951 -3.4659 -0.7238
 5194TIP3   OH239776   0.844   4.568  18.981  0.3386 -0.0136  0.5770
 5194TIP3    H139777   0.875   4.484  18.947  1.3717 -0.3293  2.1920
 5194TIP3    H239778   0.880   4.633  18.920 -2.0915 -0.7518 -1.8495
 5195TIP3   OH239779   5.861   5.448  17.583 -0.5413 -0.3982  0.5928
 5195TIP3    H139780   5.889   5.484  17.499 -0.7116 -2.0569 -0.2185
 5195TIP3    H239781   5.765   5.444  17.577 -0.6127  0.1751  1.1828
 5196TIP3   OH239782   3.965   0.217  16.325 -0.0127 -0.2826  0.3497
 5196TIP3    H139783   3.921   0.300  16.339 -1.3099 -0.8721 -0.0829
 5196TIP3    H239784   3.902   0.164  16.275  2.0619 -0.3543 -2.4320
 5197TIP3   OH239785   5.115   3.316  18.954  0.0086 -0.1465 -0.0930
 5197TIP3    H139786   5.076   3.234  18.922 -0.3334  0.3808 -1.0610
 5197TIP3    H239787   5.046   3.381  18.941  0.4734  0.3958  0.1703
 5198TIP3   OH239788   1.977   1.056  18.861 -0.3568  0.2346 -0.8299
 5198TIP3    H139789   1.962   0.962  18.869  1.6507 -0.1619 -1.3419
 5198TIP3    H239790   1.918   1.095  18.927 -0.2170 -1.4544  0.3656
 5199TIP3   OH239791   3.762   1.821  20.012 -0.0006  0.4957 -0.2591
 5199TIP3    H139792   3.685   1.778  20.048  0.8734 -1.0012 -0.1058
 5199TIP3    H239793   3.728   1.874  19.939 -1.1661 -0.1292 -0.1901
 5200TIP3   OH239794   0.756   0.115  19.902 -0.2035 -0.1395 -0.1329
 5200TIP3    H139795   0.683   0.076  19.949 -1.5542  0.5527 -1.5654
 5200TIP3    H239796   0.817   0.144  19.970 -0.5114 -2.0910  1.0515
 5201TIP3   OH239797   4.324   4.007  19.862 -0.0461 -0.4264  0.1807
 5201TIP3    H139798   4.386   3.934  19.865 -0.6055 -0.9272 -0.3003
 5201TIP3    H239799   4.362   4.067  19.796  0.9383  0.2257  1.2972
 5202TIP3   OH239800   1.274   6.517  18.237 -0.2337 -0.1545 -0.5366
 5202TIP3    H139801   1.323   6.554  18.164  0.3415  1.2902  0.5451
 5202TIP3    H239802   1.298   6.424  18.237  1.3450  0.2242 -0.9507
 5203TIP3   OH239803   1.969   3.705  18.384  0.2408  0.2436  0.4175
 5203TIP3    H139804   1.897   3.647  18.357  1.7607 -0.5189 -2.3455
 5203TIP3    H239805   1.931   3.792  18.381 -0.7899 -0.2022 -0.1263
 5204TIP3   OH239806   0.502   6.713  20.010 -0.1306  0.0204 -0.4697
 5204TIP3    H139807   0.516   6.691  20.102 -1.0800  0.0090 -0.3214
 5204TIP3    H239808   0.412   6.686  19.992  0.5086 -1.3929 -1.8146
 5205TIP3   OH239809   1.935   4.043  19.122 -0.6221  0.9620 -0.1732
 5205TIP3    H139810   1.937   4.105  19.195  1.6233  1.0338 -0.2498
 5205TIP3    H239811   1.899   3.962  19.160 -0.4425  1.3036  0.7494
 5206TIP3   OH239812   4.323   1.776  19.632 -0.0554  0.2451  0.4218
 5206TIP3    H139813   4.246   1.751  19.683 -0.3666  1.4845  0.5913
 5206TIP3    H239814   4.298   1.757  19.541 -0.7098  0.9519  0.4409
 5207TIP3   OH239815   1.059   6.223  18.043  0.2959 -0.1201  0.9420
 5207TIP3    H139816   1.005   6.301  18.056  0.2162  0.0452 -0.3026
 5207TIP3    H239817   1.149   6.253  18.056  0.2913  0.2668  0.1470
 5208TIP3   OH239818   2.197   1.572  19.789  0.3387  0.3605 -0.6604
 5208TIP3    H139819   2.120   1.570  19.847  0.0221 -0.1815 -1.0892
 5208TIP3    H239820   2.263   1.620  19.839  0.8349 -1.9767  1.1177
 5209TIP3   OH239821   3.595   6.186  16.860  0.1676  0.2561  0.0399
 5209TIP3    H139822   3.539   6.253  16.821 -0.3901 -0.0225  0.3526
 5209TIP3    H239823   3.658   6.164  16.791 -1.2956 -0.8077 -1.0135
 5210TIP3   OH239824   5.236   6.453  17.718 -0.3994  0.4349 -0.3193
 5210TIP3    H139825   5.241   6.535  17.768 -1.7469  0.4814 -0.2357
 5210TIP3    H239826   5.242   6.481  17.626 -0.3317  0.5742 -0.2728
 5211TIP3   OH239827   4.144   4.927  18.453 -0.0712 -0.3343 -0.1077
 5211TIP3    H139828   4.195   4.848  18.472 -2.1569 -1.4988  0.9943
 5211TIP3    H239829   4.075   4.898  18.393  0.3752  1.1517 -1.4114
 5212TIP3   OH239830   3.727   3.782  19.091 -0.5572 -0.6129 -0.2603
 5212TIP3    H139831   3.633   3.796  19.097 -0.2281  1.9144  0.2168
 5212TIP3    H239832   3.760   3.801  19.178  0.4560 -0.9111 -0.5620
 5213TIP3   OH239833   1.791   1.844  19.417  0.3286 -0.3746 -0.5710
 5213TIP3    H139834   1.873   1.803  19.447 -0.1627 -1.1672 -0.2822
 5213TIP3    H239835   1.722   1.790  19.455 -0.3630  1.0778  0.3184
 5214TIP3   OH239836   3.546   4.498  19.107  0.1459  0.5341 -0.1122
 5214TIP3    H139837   3.495   4.538  19.178 -2.0459 -0.9049 -0.7694
 5214TIP3    H239838   3.551   4.566  19.040  0.4209  1.2000  0.5628
 5215TIP3   OH239839   4.177   4.162  17.067  0.6276 -0.3027 -0.0743
 5215TIP3    H139840   4.216   4.224  17.128 -1.7196  1.4000 -0.1908
 5215TIP3    H239841   4.110   4.212  17.020 -0.5175 -2.6010 -1.0769
 5216TIP3   OH239842   3.380   5.844  20.283  0.2170  1.2016  0.0639
 5216TIP3    H139843   3.297   5.841  20.235  1.1425 -2.1529 -1.6824
 5216TIP3    H239844   3.380   5.764  20.335  2.5726  0.8056 -0.4416
 5217TIP3   OH239845   5.965   3.800  19.409  0.3178 -0.2158 -0.5111
 5217TIP3    H139846   6.050   3.842  19.405  1.1431 -1.6287  1.0709
 5217TIP3    H239847   5.983   3.711  19.441 -1.6349 -0.8882 -1.1102
 5218TIP3   OH239848   6.264   0.050  17.265  0.4076 -0.0764  0.5227
 5218TIP3    H139849   6.330   0.108  17.227 -1.1751  0.4310 -1.7193
 5218TIP3    H239850   6.204   0.109  17.311  0.8190 -0.3842  1.4628
 5219TIP3   OH239851   6.409   0.700  19.655  0.3212 -0.1349  0.1229
 5219TIP3    H139852   6.333   0.669  19.704  0.9806 -0.3899  1.0025
 5219TIP3    H239853   6.384   0.690  19.563 -1.0412  0.6213  0.3947
 5220TIP3   OH239854   0.642   1.142  17.613 -0.1427 -0.1162 -0.0529
 5220TIP3    H139855   0.549   1.160  17.604  0.0863  0.8684 -0.5899
 5220TIP3    H239856   0.676   1.216  17.663  0.2120 -0.8988  0.8862
 5221TIP3   OH239857   4.382   4.665  18.808  0.1264 -0.3489 -0.0797
 5221TIP3    H139858   4.368   4.755  18.837  0.8644  0.7107 -2.6841
 5221TIP3    H239859   4.476   4.650  18.818 -0.0229 -0.9333  0.5423
 5222TIP3   OH239860   5.041   4.581  17.061  0.2951  0.2183  0.1370
 5222TIP3    H139861   5.071   4.501  17.105 -0.9341 -0.1388  0.3581
 5222TIP3    H239862   4.964   4.554  17.011  0.5056  1.0442 -0.6552
 5223TIP3   OH239863   4.832   5.435  18.936 -0.1075 -0.6945 -0.2605
 5223TIP3    H139864   4.887   5.360  18.957  2.3899  0.8788 -0.6532
 5223TIP3    H239865   4.828   5.436  18.840  1.6027  0.7216 -0.3694
 5224TIP3   OH239866   5.800   2.628  17.594  0.0137  0.1944  0.0861
 5224TIP3    H139867   5.814   2.554  17.535  0.7238 -0.2769  0.8212
 5224TIP3    H239868   5.705   2.641  17.595  0.0232  0.8185 -1.8672
 5225TIP3   OH239869   1.527   0.089  17.413 -0.1076  0.2009 -0.4149
 5225TIP3    H139870   1.524   0.101  17.318 -2.8428  1.2061 -0.2677
 5225TIP3    H239871   1.582   0.011  17.425  1.0899  0.6095 -2.7300
 5226TIP3   OH239872   0.616   1.277  17.933  0.2557  0.8146 -0.4576
 5226TIP3    H139873   0.686   1.307  17.874 -0.3460 -1.5207 -2.4849
 5226TIP3    H239874   0.536   1.313  17.895 -0.2329 -1.4032 -1.6893
 5227TIP3   OH239875   0.135   5.986  18.147  0.1443  0.2790  0.2683
 5227TIP3    H139876   0.190   5.956  18.074  0.8881 -0.0938  0.9641
 5227TIP3    H239877   0.136   5.912  18.209  0.2971  0.9474  1.0788
 5228TIP3   OH239878   5.858   2.243  19.019 -0.0051 -0.0138  0.0367
 5228TIP3    H139879   5.863   2.166  19.075  0.7352 -0.5565 -0.7488
 5228TIP3    H239880   5.787   2.296  19.056 -1.7716 -1.9252 -0.4354
 5229TIP3   OH239881   5.259   4.157  17.368 -0.2630  0.2145  0.1856
 5229TIP3    H139882   5.206   4.083  17.339 -0.3103  0.9215 -1.6489
 5229TIP3    H239883   5.349   4.132  17.347 -0.0728 -0.0563  1.2490
 5230TIP3   OH239884   0.938   2.791  18.046 -0.2550 -0.3539  0.1163
 5230TIP3    H139885   0.979   2.842  18.116  0.1932  0.9404 -1.0448
 5230TIP3    H239886   0.869   2.848  18.012  0.9535  0.0311 -1.9249
 5231TIP3   OH239887   0.953   6.389  17.081 -0.0283 -0.2427 -0.6073
 5231TIP3    H139888   0.876   6.420  17.128  0.6536  1.7035 -0.7056
 5231TIP3    H239889   0.977   6.307  17.125 -1.1235  0.0213  0.5130
 5232TIP3   OH239890   6.012   6.380  17.754  0.1224  0.0560 -0.2048
 5232TIP3    H139891   6.075   6.452  17.748 -0.1968  0.3789  0.2263
 5232TIP3    H239892   5.938   6.408  17.699  0.8388 -0.8599 -1.7081
 5233TIP3   OH239893   3.902   0.909  19.448  0.0453  0.0966  0.5731
 5233TIP3    H139894   3.858   0.824  19.457  1.8852 -0.9322  0.3580
 5233TIP3    H239895   3.948   0.921  19.532  1.6040 -0.2412 -0.1926
 5234TIP3   OH239896   1.232   2.416  19.046  0.4506  0.4313  0.1903
 5234TIP3    H139897   1.188   2.449  19.125 -1.0953 -0.3710 -0.2981
 5234TIP3    H239898   1.234   2.321  19.058 -0.6926  0.2046 -1.1495
 5235TIP3   OH239899   3.752   4.196  17.947  0.1629 -0.3874  0.1960
 5235TIP3    H139900   3.785   4.160  17.865 -0.0316 -1.2615  0.4958
 5235TIP3    H239901   3.661   4.220  17.929  0.3820  0.2567 -0.0906
 5236TIP3   OH239902   2.607   3.531  18.900 -0.1863  0.2998  0.4374
 5236TIP3    H139903   2.665   3.504  18.972 -0.9842 -0.1094  0.9372
 5236TIP3    H239904   2.554   3.454  18.881  0.0462  0.3830 -0.6455
 5237TIP3   OH239905   3.625   3.912  18.388  0.5553  0.1432 -0.2317
 5237TIP3    H139906   3.604   4.003  18.411  0.6810  0.2849 -0.6746
 5237TIP3    H239907   3.675   3.880  18.463 -1.2834 -0.2353  0.9236
 5238TIP3   OH239908   0.168   6.050  17.780  0.1015 -0.0960  0.1266
 5238TIP3    H139909   0.186   5.972  17.833  2.1259 -0.4445 -0.9828
 5238TIP3    H239910   0.232   6.115  17.811 -2.2347  1.5904  1.7880
 5239TIP3   OH239911   1.398   0.663  19.957  0.0192  0.3684 -0.3016
 5239TIP3    H139912   1.340   0.604  20.007  0.1599  0.3518 -0.1574
 5239TIP3    H239913   1.484   0.622  19.963 -0.1178 -0.0751 -1.2675
 5240TIP3   OH239914   0.887   3.273  19.480  0.3187 -0.4152 -0.5445
 5240TIP3    H139915   0.806   3.269  19.530  0.3705  0.5037 -0.3705
 5240TIP3    H239916   0.953   3.233  19.536  0.1366 -0.4614 -0.3659
 5241TIP3   OH239917   1.586   4.035  18.766  0.1238 -0.3362 -0.4997
 5241TIP3    H139918   1.543   4.057  18.683 -0.7837 -0.8450 -0.1764
 5241TIP3    H239919   1.522   3.983  18.814  1.2554 -1.4830 -0.1681
 5242TIP3   OH239920   0.809   5.265  18.303  0.4491 -0.0477 -0.4359
 5242TIP3    H139921   0.754   5.274  18.381 -0.2127  2.0229 -1.0752
 5242TIP3    H239922   0.873   5.197  18.327 -0.8200 -0.7420  1.2301
 5243TIP3   OH239923   3.718   4.825  19.440  0.2229 -0.5533  0.0789
 5243TIP3    H139924   3.737   4.867  19.356 -1.0651 -0.5744 -0.2359
 5243TIP3    H239925   3.760   4.740  19.434 -0.7199 -0.9633 -0.9655
 5244TIP3   OH239926   4.200   2.549  19.371  0.8035 -0.3089 -0.0762
 5244TIP3    H139927   4.176   2.638  19.397 -1.4702 -0.3997 -1.6236
 5244TIP3    H239928   4.263   2.560  19.299 -0.2441  0.1063 -0.9513
 5245TIP3   OH239929   4.095   0.021  16.497  0.9534 -0.4571 -0.1465
 5245TIP3    H139930   4.050   0.083  16.440  1.2775 -0.0531  0.0410
 5245TIP3    H239931   4.119  -0.052  16.439  0.1346 -0.6406 -0.2663
 5246TIP3   OH239932   3.573   0.721  17.005 -0.1903 -0.3432  0.4350
 5246TIP3    H139933   3.626   0.683  16.935  0.7069 -0.8342  1.3502
 5246TIP3    H239934   3.603   0.812  17.010 -2.6850  0.7333 -2.0848
 5247TIP3   OH239935   5.293   4.056  18.063 -0.7779  0.0874 -0.1654
 5247TIP3    H139936   5.291   4.093  17.975  0.5091  0.5856 -0.0069
 5247TIP3    H239937   5.333   3.970  18.052  1.7954  1.1450  0.2097
 5248TIP3   OH239938   2.921   0.585  18.284 -0.2347  0.3221  0.5378
 5248TIP3    H139939   2.934   0.504  18.235 -0.8121 -0.2042  1.2186
 5248TIP3    H239940   2.961   0.653  18.230 -0.9104 -0.2249 -0.6921
 5249TIP3   OH239941   0.928   6.259  19.311  0.4758 -0.6062 -0.0198
 5249TIP3    H139942   0.856   6.299  19.262  0.1534  0.0189  0.9373
 5249TIP3    H239943   0.915   6.165  19.300 -0.0768 -0.4871 -0.4375
 5250TIP3   OH239944   3.685   0.840  20.429  0.0304 -0.0289  0.2306
 5250TIP3    H139945   3.696   0.825  20.335  1.7513 -3.2945  0.8114
 5250TIP3    H239946   3.620   0.774  20.456 -1.0158  1.3626  1.2765
 5251TIP3   OH239947   0.021   5.248  18.597  0.2217  0.1785  0.0873
 5251TIP3    H139948   0.003   5.288  18.682  0.6692 -1.2086  0.8740
 5251TIP3    H239949  -0.062   5.251  18.550  0.0548  1.2515  0.4344
 5252TIP3   OH239950   1.895   0.500  18.777  0.2894  0.4582 -0.2528
 5252TIP3    H139951   1.934   0.446  18.707 -1.0741 -2.4412  1.0454
 5252TIP3    H239952   1.811   0.527  18.742 -1.2515 -2.5789  0.7461
 5253TIP3   OH239953   1.768   1.071  19.536  0.9041  0.2649  0.3592
 5253TIP3    H139954   1.841   1.076  19.474  0.6650 -0.3347  0.0123
 5253TIP3    H239955   1.734   0.982  19.525 -0.9865  1.0695 -0.7588
 5254TIP3   OH239956   5.926   5.380  19.069 -0.1876 -0.4661 -0.2164
 5254TIP3    H139957   5.840   5.407  19.035 -0.0374 -0.6614 -0.7557
 5254TIP3    H239958   5.905   5.323  19.143 -0.5220  1.5954  1.3906
 5255TIP3   OH239959   0.485   6.693  19.708  0.0488 -0.3417  0.4025
 5255TIP3    H139960   0.405   6.743  19.727 -0.2676 -0.4281 -0.6445
 5255TIP3    H239961   0.472   6.609  19.752 -1.0308 -0.8503 -0.8272
 5256TIP3   OH239962   0.925   1.157  18.986 -0.1929  0.1421 -0.0954
 5256TIP3    H139963   0.836   1.154  19.022 -0.2035 -1.1045 -0.2001
 5256TIP3    H239964   0.916   1.125  18.896  0.0383  2.0621 -0.8648
 5257TIP3   OH239965   2.351   3.555  19.126 -0.2266  0.1642 -0.0199
 5257TIP3    H139966   2.445   3.571  19.130 -0.2109  0.8750 -2.1901
 5257TIP3    H239967   2.318   3.589  19.209  1.1743  1.8062 -0.0783
 5258TIP3   OH239968   5.714   4.429  18.330  0.2389  0.3940  0.0964
 5258TIP3    H139969   5.788   4.472  18.373  0.7027  1.2133 -1.4354
 5258TIP3    H239970   5.642   4.436  18.392  0.7736  1.8574  0.5969
 5259TIP3   OH239971   6.137   6.171  18.424  0.4881  0.2479 -0.1373
 5259TIP3    H139972   6.146   6.238  18.356 -2.8299 -0.5624 -1.5908
 5259TIP3    H239973   6.201   6.104  18.399  1.3996  1.2847 -0.7015
 5260TIP3   OH239974   3.676   3.456  19.159  0.4706  0.2365 -0.3593
 5260TIP3    H139975   3.676   3.368  19.123  0.1547  0.8044 -1.8141
 5260TIP3    H239976   3.596   3.460  19.212  0.5785 -0.3902 -0.1401
 5261TIP3   OH239977   2.034   2.322  17.856 -0.3723 -0.4475  0.4457
 5261TIP3    H139978   1.962   2.384  17.866 -0.2320 -0.3784  1.1267
 5261TIP3    H239979   2.090   2.338  17.933  0.5804 -0.2191 -0.2754
 5262TIP3   OH239980   2.102   4.757  18.808 -0.1714 -0.1062  0.1086
 5262TIP3    H139981   2.177   4.753  18.749 -0.3573 -1.1028 -0.0738
 5262TIP3    H239982   2.116   4.837  18.858  0.8171 -0.0806 -0.1773
 5263TIP3   OH239983   6.528   5.310  16.889 -0.4331 -0.2557  0.1513
 5263TIP3    H139984   6.487   5.285  16.972 -0.8121 -1.3916 -0.3466
 5263TIP3    H239985   6.537   5.227  16.841  0.5424  0.2625 -0.6030
 5264TIP3   OH239986   1.927   1.870  19.981 -0.2324 -0.1596 -0.2553
 5264TIP3    H139987   2.013   1.869  20.022  0.5060  1.2711 -1.6563
 5264TIP3    H239988   1.872   1.917  20.043  0.0023 -0.9373  0.5752
 5265TIP3   OH239989   4.267   0.819  17.690  0.0765  0.1892 -0.4518
 5265TIP3    H139990   4.292   0.754  17.624  0.5722 -0.3108  0.2139
 5265TIP3    H239991   4.237   0.894  17.639 -2.7831 -1.3782 -1.2614
 5266TIP3   OH239992   6.388   2.810  19.914  0.5454  0.3573  0.3376
 5266TIP3    H139993   6.452   2.863  19.961  1.2032  0.5099 -0.6982
 5266TIP3    H239994   6.436   2.732  19.888  0.5337  0.7799 -1.0450
 5267TIP3   OH239995   3.481   5.730  17.825  0.2084  0.0329  0.2749
 5267TIP3    H139996   3.423   5.788  17.777 -0.8741 -0.4972  0.9138
 5267TIP3    H239997   3.466   5.643  17.786  2.0678  0.1850 -0.9194
 5268TIP3   OH239998   4.968   5.791  19.745  1.0986 -0.0529 -0.1340
 5268TIP3    H139999   5.000   5.872  19.706 -0.2616 -0.0614 -1.3464
 5268TIP3    H240000   4.997   5.722  19.686 -0.2524 -0.1472 -0.7261
 5269TIP3   OH240001   6.114   5.613  20.096 -1.0777  0.3819 -0.1406
 5269TIP3    H140002   6.041   5.558  20.067 -1.6003  0.6690  0.6057
 5269TIP3    H240003   6.123   5.678  20.027 -1.1315 -0.0149 -0.5275
 5270TIP3   OH240004   2.687   0.997  20.409  1.0251  0.4494  0.0623
 5270TIP3    H140005   2.592   1.005  20.419  0.6073 -1.8201 -1.2989
 5270TIP3    H240006   2.714   0.940  20.481  1.1553  0.1549 -0.2167
 5271TIP3   OH240007   0.812   4.925  17.169 -0.2990 -0.6772 -0.1272
 5271TIP3    H140008   0.793   4.903  17.078 -0.6779 -0.0993 -0.1951
 5271TIP3    H240009   0.875   4.859  17.198 -1.6724 -2.0831 -0.2032
 5272TIP3   OH240010   1.070   0.570  19.452  0.1141  0.1907  0.1633
 5272TIP3    H140011   0.982   0.594  19.425  0.0133 -0.4130 -0.0557
 5272TIP3    H240012   1.072   0.474  19.446  0.2291  0.0607  1.8514
 5273TIP3   OH240013   3.441   6.232  18.040 -0.0857  0.4549  0.3100
 5273TIP3    H140014   3.479   6.150  18.071 -0.1359 -0.2846 -1.4246
 5273TIP3    H240015   3.347   6.221  18.050 -0.0691  0.4786  0.4898
 5274TIP3   OH240016   6.424   4.646  17.820 -0.3682  0.4057  0.2113
 5274TIP3    H140017   6.516   4.634  17.798 -0.3339  1.4763 -0.3203
 5274TIP3    H240018   6.379   4.574  17.775 -0.0131  1.0941 -1.3370
 5275TIP3   OH240019   3.814   2.832  17.909  0.5406  1.0971 -0.4896
 5275TIP3    H140020   3.848   2.745  17.926  1.7947  1.6614  0.0280
 5275TIP3    H240021   3.890   2.882  17.877  0.8502  2.9713  2.7203
 5276TIP3   OH240022   3.005   5.015  17.291 -0.0601  0.2021 -0.4312
 5276TIP3    H140023   3.030   4.987  17.379 -0.2252 -0.9639 -0.7303
 5276TIP3    H240024   3.076   5.072  17.262 -0.7959  1.9620  1.0617
 5277TIP3   OH240025   2.906   4.771  19.405 -0.1214 -0.3442  0.5079
 5277TIP3    H140026   2.891   4.732  19.319  0.0447  0.6471  0.0105
 5277TIP3    H240027   2.952   4.704  19.454  1.1936 -0.3896 -0.7075
 5278TIP3   OH240028   5.525   2.068  17.247  0.5424 -0.5046 -0.2411
 5278TIP3    H140029   5.431   2.079  17.238  0.7021  0.6240 -0.8207
 5278TIP3    H240030   5.557   2.156  17.269  1.5696 -0.5782 -1.3115
 5279TIP3   OH240031   4.432   0.656  17.263  0.0775 -0.0143  0.6054
 5279TIP3    H140032   4.351   0.621  17.227  1.0199 -0.2073 -1.4553
 5279TIP3    H240033   4.419   0.654  17.358 -1.8171 -1.2162  0.3706
 5280TIP3   OH240034   3.730   0.847  19.866  0.5242 -0.3211 -0.0435
 5280TIP3    H140035   3.696   0.851  19.955  0.8374 -1.5558  0.1495
 5280TIP3    H240036   3.731   0.938  19.837  0.9096  0.1625  1.4011
 5281TIP3   OH240037   3.186   2.032  18.868 -0.2858 -0.2336  0.5131
 5281TIP3    H140038   3.118   2.094  18.844 -1.7190 -1.2699  1.6920
 5281TIP3    H240039   3.139   1.960  18.912  1.4918 -1.2895  0.8091
 5282TIP3   OH240040   4.363   5.291  20.066 -0.0091 -0.3727  0.0900
 5282TIP3    H140041   4.352   5.301  20.160 -1.8490 -1.4850  0.0313
 5282TIP3    H240042   4.314   5.212  20.044  1.5647 -0.9549 -1.6055
 5283TIP3   OH240043   6.109   4.916  20.685  0.1796 -0.4216  0.3936
 5283TIP3    H140044   6.143   4.831  20.712  2.0603  0.2189  0.1817
 5283TIP3    H240045   6.087   4.905  20.593 -1.1410 -1.1149  0.7762
 5284TIP3   OH240046   4.189   4.980  20.206  0.1212  0.1361  0.6996
 5284TIP3    H140047   4.246   4.903  20.194 -1.7162 -1.4931  1.8117
 5284TIP3    H240048   4.213   5.039  20.135  0.5222 -2.1645 -1.2092
 5285TIP3   OH240049   1.216   4.061  18.952 -0.6006  0.4859 -0.3144
 5285TIP3    H140050   1.153   4.013  18.899  0.4995 -0.4245 -0.8479
 5285TIP3    H240051   1.168   4.084  19.032 -1.2290 -1.4094 -0.0971
 5286TIP3   OH240052   5.344   0.892  19.887 -0.5200  0.3571 -0.1920
 5286TIP3    H140053   5.371   0.948  19.959 -2.4658  1.4496 -0.2383
 5286TIP3    H240054   5.348   0.948  19.810  1.8719 -0.8920 -1.0773
 5287TIP3   OH240055   3.609   3.334  18.582  0.0720 -0.1269 -0.5620
 5287TIP3    H140056   3.593   3.241  18.569  0.2991 -0.1429 -0.7256
 5287TIP3    H240057   3.523   3.375  18.570 -0.1188 -0.3611 -0.0370
 5288TIP3   OH240058   6.270   4.804  18.921  0.8652 -0.2533 -0.6440
 5288TIP3    H140059   6.269   4.765  19.009  3.0811 -2.6143 -1.5469
 5288TIP3    H240060   6.251   4.731  18.862  1.9522  0.7193 -2.2748
 5289TIP3   OH240061   6.575   3.716  20.435  0.0563  0.3454 -0.4135
 5289TIP3    H140062   6.580   3.716  20.530 -0.2001 -0.9540 -0.3900
 5289TIP3    H240063   6.664   3.736  20.406 -0.0067  1.4276  0.0805
 5290TIP3   OH240064   2.928   0.111  17.689 -0.5983  0.0059 -0.3688
 5290TIP3    H140065   2.923   0.141  17.598  0.6286  0.5824 -0.2704
 5290TIP3    H240066   2.945   0.017  17.683  1.4865  0.3695 -0.7929
 5291TIP3   OH240067   5.256   1.509  19.867 -0.1213 -0.1747  0.1104
 5291TIP3    H140068   5.322   1.508  19.937 -0.8221 -1.1092  0.7828
 5291TIP3    H240069   5.307   1.494  19.787  0.5359 -0.5413  0.5821
 5292TIP3   OH240070   5.859   1.600  19.266 -0.1893 -0.0817 -0.3928
 5292TIP3    H140071   5.946   1.559  19.270  0.3777  1.1446  1.0032
 5292TIP3    H240072   5.808   1.543  19.210  1.0057 -1.8418  0.2270
 5293TIP3   OH240073   6.398   5.531  17.187 -0.2680  0.0247 -0.0957
 5293TIP3    H140074   6.408   5.463  17.255  2.6078 -0.3375 -0.7348
 5293TIP3    H240075   6.391   5.613  17.236  0.9510 -0.3131  0.7017
 5294TIP3   OH240076   2.788   1.381  20.156 -0.2900  0.4981 -0.1408
 5294TIP3    H140077   2.727   1.420  20.218  0.0224  1.8962 -0.6668
 5294TIP3    H240078   2.787   1.287  20.176 -0.8801  0.7987  1.3475
 5295TIP3   OH240079   2.249   2.645  17.891  0.1109 -0.0559  0.1218
 5295TIP3    H140080   2.240   2.615  17.800  1.5843 -0.3220  0.0430
 5295TIP3    H240081   2.209   2.576  17.943 -1.4233  0.4415 -0.3337
 5296TIP3   OH240082   0.425   5.126  18.873 -0.0481 -0.0202 -0.0350
 5296TIP3    H140083   0.401   5.093  18.959 -0.4551  1.2787  0.3642
 5296TIP3    H240084   0.521   5.131  18.875 -0.0746  0.3168  0.4600
 5297TIP3   OH240085   1.662   5.416  17.941  0.3212  0.1003  0.2043
 5297TIP3    H140086   1.752   5.384  17.948  0.5989 -0.5479 -3.8818
 5297TIP3    H240087   1.672   5.511  17.938  0.7436  0.0815  0.7378
 5298TIP3   OH240088   3.535   6.092  17.403  0.6865  0.2627 -0.2192
 5298TIP3    H140089   3.583   6.009  17.401  0.6597  0.2487 -0.3026
 5298TIP3    H240090   3.491   6.093  17.488  0.5353  0.1068 -0.2948
 5299TIP3   OH240091   4.521   0.172  18.429 -0.2460  0.2183 -0.0350
 5299TIP3    H140092   4.579   0.184  18.504 -0.3279 -0.1022  0.0830
 5299TIP3    H240093   4.507   0.260  18.395 -0.1331  0.3564  0.2710
 5300TIP3   OH240094   2.151   0.760  20.365 -0.9138 -0.6638 -0.6498
 5300TIP3    H140095   2.094   0.830  20.333 -0.9187 -0.2016  0.3277
 5300TIP3    H240096   2.102   0.720  20.436 -0.2116 -0.5462 -0.0853
 5301TIP3   OH240097   0.905   0.819  16.822 -0.2439 -0.4035 -0.1309
 5301TIP3    H140098   0.838   0.751  16.828 -0.9882  0.3791  0.7540
 5301TIP3    H240099   0.858   0.901  16.835  1.1137  0.0740  2.7756
 5302TIP3   OH240100   6.386   6.062  16.881 -0.2986  0.0880 -0.1629
 5302TIP3    H140101   6.458   6.042  16.821 -0.7848 -0.0542 -0.6974
 5302TIP3    H240102   6.326   6.117  16.830 -0.0156  1.1823  0.6292
 5303TIP3   OH240103   2.604   2.762  18.486 -0.8112  0.3059  0.0829
 5303TIP3    H140104   2.666   2.691  18.471 -0.9330  0.1578  0.2891
 5303TIP3    H240105   2.633   2.831  18.426  1.4308  1.4463  2.3222
 5304TIP3   OH240106   6.140   3.259  19.476 -0.3251 -0.1035 -0.9503
 5304TIP3    H140107   6.171   3.294  19.560 -1.2860  0.8926 -0.9796
 5304TIP3    H240108   6.209   3.282  19.414 -0.9456  1.9181 -0.9801
 5305TIP3   OH240109   3.694   0.026  17.118 -0.4160 -0.5906 -0.5944
 5305TIP3    H140110   3.643   0.081  17.059 -1.0524  0.7255  1.1281
 5305TIP3    H240111   3.629  -0.027  17.164 -0.2372  0.5664  1.0777
 5306TIP3   OH240112   1.549   2.084  19.903  0.4097 -0.1796  0.0271
 5306TIP3    H140113   1.457   2.060  19.905  0.9223 -2.3330  0.0886
 5306TIP3    H240114   1.590   2.019  19.846  1.6618  1.7039 -1.3650
 5307TIP3   OH240115   0.873   2.173  18.023  0.5857 -0.2483 -0.5757
 5307TIP3    H140116   0.798   2.161  17.965  0.6015  0.7836 -0.8414
 5307TIP3    H240117   0.944   2.124  17.981  0.1242 -1.0309 -0.4490
 5308TIP3   OH240118   5.093   2.230  19.962  0.1883 -0.2450 -0.1420
 5308TIP3    H140119   5.107   2.230  20.057 -0.9628 -0.1217  0.0420
 5308TIP3    H240120   5.175   2.263  19.926  0.8974 -0.9506  0.7642
 5309TIP3   OH240121   1.516   3.161  17.507  0.1583 -0.5817 -0.2383
 5309TIP3    H140122   1.460   3.118  17.443 -0.1603 -0.8246  0.1975
 5309TIP3    H240123   1.545   3.242  17.463  0.1423 -0.8615 -0.7722
 5310TIP3   OH240124   2.858   4.708  17.105 -0.3253 -0.0577 -0.2982
 5310TIP3    H140125   2.852   4.794  17.063 -0.9884 -0.7342 -1.6265
 5310TIP3    H240126   2.901   4.652  17.040  0.6322 -0.6152  0.7778
 5311TIP3   OH240127   2.047   1.307  17.974 -0.3890  0.2617  0.0737
 5311TIP3    H140128   2.063   1.214  17.995  0.8264  0.3508 -0.3639
 5311TIP3    H240129   1.976   1.332  18.032  0.5850 -0.4282  1.6506
 5312TIP3   OH240130   1.104   5.456  18.571  0.2237  0.1017  0.0739
 5312TIP3    H140131   1.075   5.485  18.485  0.9008 -0.5595 -0.3836
 5312TIP3    H240132   1.128   5.364  18.559  2.5971  0.6111  0.3850
 5313TIP3   OH240133   4.366   1.203  19.136 -0.0218 -0.0634  0.3265
 5313TIP3    H140134   4.417   1.238  19.208  1.7274 -0.9774 -0.4038
 5313TIP3    H240135   4.286   1.169  19.177  1.6770 -2.1678  2.1565
 5314TIP3   OH240136   5.106   3.844  18.932 -0.0581  0.4158  0.2016
 5314TIP3    H140137   5.202   3.846  18.936  0.0099  0.9258 -1.0117
 5314TIP3    H240138   5.086   3.760  18.891 -0.0711  0.6652 -0.3193
 5315TIP3   OH240139   2.512   1.996  16.892 -0.8027  0.2407  0.3592
 5315TIP3    H140140   2.518   2.091  16.906 -1.5543 -0.0652  3.9260
 5315TIP3    H240141   2.602   1.965  16.901 -0.6031  0.5559 -0.4689
 5316TIP3   OH240142   5.660   2.496  19.494 -0.7342 -0.0794  0.2030
 5316TIP3    H140143   5.694   2.411  19.467 -2.5242 -0.3586 -1.4943
 5316TIP3    H240144   5.565   2.485  19.491 -1.0062  1.9385  0.0978
 5317TIP3   OH240145   4.959   2.198  18.115 -0.2892  0.1928 -0.6252
 5317TIP3    H140146   5.010   2.238  18.185 -1.1495 -1.2271  0.8875
 5317TIP3    H240147   5.002   2.113  18.099 -0.4620  0.2374 -1.3976
 5318TIP3   OH240148   4.220   3.681  18.292  0.5117 -0.2663  0.1703
 5318TIP3    H140149   4.197   3.764  18.250 -0.0885 -1.0724 -1.1713
 5318TIP3    H240150   4.150   3.666  18.355 -0.1373 -0.4361 -0.5869
 5319TIP3   OH240151   2.783   5.186  17.583 -0.0350 -0.1539 -0.1481
 5319TIP3    H140152   2.841   5.178  17.659  0.9228 -2.3737 -1.0137
 5319TIP3    H240153   2.831   5.244  17.523 -0.1573  0.4810  0.3503
 5320TIP3   OH240154   1.213   4.436  19.625  0.3660 -0.1408 -0.1249
 5320TIP3    H140155   1.182   4.525  19.642  1.9834  0.3573  0.3802
 5320TIP3    H240156   1.266   4.414  19.701  2.1696 -0.4889 -1.4124
 5321TIP3   OH240157   1.956   2.950  19.448  0.4748 -0.2000  0.4144
 5321TIP3    H140158   2.015   2.891  19.400  0.9202 -1.3556  2.2772
 5321TIP3    H240159   2.014   3.018  19.483  0.1650  0.5853 -0.5585
 5322TIP3   OH240160   0.065   3.131  18.286 -0.0448 -0.0577  0.2570
 5322TIP3    H140161   0.077   3.225  18.292  1.5039 -0.1515 -0.8602
 5322TIP3    H240162   0.119   3.094  18.356  1.3137 -0.1951 -0.8245
 5323TIP3   OH240163   1.719   5.604  17.524  0.7077  0.4396 -0.4938
 5323TIP3    H140164   1.642   5.560  17.489 -1.0046  2.6990  0.1419
 5323TIP3    H240165   1.683   5.679  17.572  3.3391  1.7746 -0.4523
 5324TIP3   OH240166   3.246   3.858  16.882  0.0268 -0.1548  0.1713
 5324TIP3    H140167   3.271   3.918  16.812  0.2629 -0.6609 -0.1928
 5324TIP3    H240168   3.270   3.771  16.848  0.8274 -0.3513  1.1696
 5325TIP3   OH240169   0.091   4.932  19.889 -0.1334 -0.1145  0.0088
 5325TIP3    H140170   0.151   4.914  19.961 -0.9986  0.9912  1.0293
 5325TIP3    H240171   0.141   4.990  19.831  1.5085 -2.9740 -1.6848
 5326TIP3   OH240172   4.528   6.248  19.719  0.5074  0.6568 -0.1710
 5326TIP3    H140173   4.476   6.258  19.799  1.3696 -0.4929  0.5751
 5326TIP3    H240174   4.470   6.275  19.648 -1.3729 -1.1682  0.5569
 5327TIP3   OH240175   1.008   4.460  17.699  0.5383 -0.4517 -0.2794
 5327TIP3    H140176   1.058   4.475  17.779  0.2602 -0.8503 -0.0272
 5327TIP3    H240177   1.075   4.448  17.631  0.7758 -0.1966 -0.0912
 5328TIP3   OH240178   5.625   2.184  18.503 -0.3530  0.4377  0.1236
 5328TIP3    H140179   5.625   2.120  18.432 -2.1368  1.0185 -0.4480
 5328TIP3    H240180   5.596   2.266  18.463  0.0936  1.1527  1.2099
 5329TIP3   OH240181   2.840   4.868  17.989  0.0671  0.1367  0.4366
 5329TIP3    H140182   2.848   4.902  18.078  0.0682  0.6440  0.2433
 5329TIP3    H240183   2.846   4.945  17.933  2.6506 -0.4256 -0.1501
 5330TIP3   OH240184   3.293   2.504  19.373 -0.4297 -0.1491 -0.0062
 5330TIP3    H140185   3.362   2.509  19.306 -0.4470 -1.0411 -0.1012
 5330TIP3    H240186   3.287   2.593  19.407  1.2680 -0.1854  0.4869
 5331TIP3   OH240187   0.695   4.826  18.641  0.0893 -0.3986  0.4394
 5331TIP3    H140188   0.680   4.919  18.658  0.8361 -0.1410 -0.2298
 5331TIP3    H240189   0.776   4.806  18.688  0.8178 -0.2904 -0.7273
 5332TIP3   OH240190   4.927   3.761  19.131  0.2026 -0.4168 -0.4359
 5332TIP3    H140191   4.973   3.826  19.078  2.2652 -1.2002  0.2665
 5332TIP3    H240192   4.842   3.751  19.089 -0.5664  3.2902 -0.0939
 5333TIP3   OH240193   2.775   5.973  17.473  0.4862 -0.3733  0.1809
 5333TIP3    H140194   2.721   6.008  17.544 -0.9273  0.8837 -1.4173
 5333TIP3    H240195   2.795   6.049  17.418 -0.6159 -1.6156 -2.1000
 5334TIP3   OH240196   0.806   4.309  19.308  0.1283  0.4617 -0.1138
 5334TIP3    H140197   0.802   4.233  19.249  2.1768 -0.2982  0.6667
 5334TIP3    H240198   0.848   4.276  19.387  0.1770  2.1979  0.6213
 5335TIP3   OH240199   5.904   5.692  18.878 -0.0617 -0.3042 -0.1435
 5335TIP3    H140200   5.958   5.663  18.804  0.3073  0.6004 -0.2358
 5335TIP3    H240201   5.816   5.700  18.841  0.0497 -0.2162 -0.3980
 5336TIP3   OH240202   2.964   3.856  17.677 -0.1180  0.4512  0.1221
 5336TIP3    H140203   3.027   3.924  17.654  0.2400 -0.5339 -1.9303
 5336TIP3    H240204   3.006   3.774  17.654 -2.7586 -0.1855 -3.1764
 5337TIP3   OH240205   4.285   0.743  19.602 -0.3981 -0.1926  0.1014
 5337TIP3    H140206   4.266   0.815  19.541  0.3626 -0.3072 -0.2833
 5337TIP3    H240207   4.350   0.690  19.557 -1.9826 -1.9642 -0.2411
 5338TIP3   OH240208   4.968   1.511  19.782 -0.5247  0.3184 -0.4202
 5338TIP3    H140209   5.052   1.501  19.827 -0.1045  2.3404 -0.6520
 5338TIP3    H240210   4.923   1.579  19.831 -1.0972  0.8039 -1.5901
 5339TIP3   OH240211   3.208   1.154  18.997 -0.3060  0.0299 -0.2965
 5339TIP3    H140212   3.269   1.216  19.037  0.8159 -1.4030  0.3301
 5339TIP3    H240213   3.166   1.110  19.071 -0.7125 -0.2985 -0.7119
 5340TIP3   OH240214   0.489   6.193  18.183 -0.2010 -0.2077  0.2693
 5340TIP3    H140215   0.557   6.175  18.119  0.0072  0.3604  0.3235
 5340TIP3    H240216   0.490   6.118  18.242 -0.2798 -0.6544 -0.2906
 5341TIP3   OH240217   4.316   3.245  16.965 -0.0936 -0.2539 -0.1109
 5341TIP3    H140218   4.278   3.241  17.052 -2.5281 -1.1829 -1.1233
 5341TIP3    H240219   4.304   3.337  16.938  2.5756  0.5909  1.2180
 5342TIP3   OH240220   4.196   1.869  18.508 -0.7035  0.0301 -0.0205
 5342TIP3    H140221   4.241   1.943  18.468 -0.2390  1.0948  2.2848
 5342TIP3    H240222   4.259   1.797  18.505 -0.9368 -0.1250 -1.7373
 5343TIP3   OH240223   2.591   1.362  19.443 -0.1769  0.1901  0.6153
 5343TIP3    H140224   2.532   1.375  19.369 -0.1760 -0.5861  0.4725
 5343TIP3    H240225   2.560   1.282  19.485  1.5264 -0.9858 -0.2201
 5344TIP3   OH240226   4.749   0.733  20.291 -0.2494  0.4495  0.4761
 5344TIP3    H140227   4.751   0.793  20.366  0.3039  1.2368 -0.1511
 5344TIP3    H240228   4.799   0.778  20.223 -2.7757  0.8792 -1.2181
 5345TIP3   OH240229   5.273   3.307  17.625 -0.1473 -0.1653  0.2716
 5345TIP3    H140230   5.229   3.301  17.710  0.7990 -0.0467  0.7951
 5345TIP3    H240231   5.293   3.217  17.601  1.3543 -0.1036  1.1661
 5346TIP3   OH240232   1.187   5.341  16.595  0.1555  0.1569 -0.6746
 5346TIP3    H140233   1.162   5.427  16.630  0.3966  0.5834 -1.5308
 5346TIP3    H240234   1.131   5.279  16.642  0.8927  0.6374  0.9216
 5347TIP3   OH240235   3.182   0.249  19.768 -0.2836  1.0223 -0.1020
 5347TIP3    H140236   3.220   0.335  19.752 -2.6951  2.5110  1.5233
 5347TIP3    H240237   3.146   0.223  19.683  0.0669  1.8496 -0.5102
 5348TIP3   OH240238   6.551   0.990  17.265  0.0850  0.3625 -0.2480
 5348TIP3    H140239   6.642   0.988  17.292  0.0278  0.0128 -0.0657
 5348TIP3    H240240   6.542   1.070  17.214  0.2971  0.8239  0.4212
 5349TIP3   OH240241   2.054   3.956  19.514  0.0454 -0.1381  0.0111
 5349TIP3    H140242   2.016   3.947  19.601 -0.6390 -2.7189 -0.4536
 5349TIP3    H240243   1.979   3.969  19.456  0.4156  0.6416 -0.3043
 5350TIP3   OH240244   3.805   1.556  20.041 -0.4266  0.5810 -0.2190
 5350TIP3    H140245   3.821   1.650  20.028 -0.5186  0.5670 -0.4430
 5350TIP3    H240246   3.892   1.518  20.048 -0.3225  0.4425 -1.8716
 5351TIP3   OH240247   4.996   6.389  18.704 -0.1464 -0.3410 -0.6657
 5351TIP3    H140248   5.035   6.475  18.717 -1.1409 -0.1386  1.3051
 5351TIP3    H240249   5.064   6.339  18.657  1.1586  0.9782 -0.2560
 5352TIP3   OH240250   6.046   0.241  18.093 -0.1983  0.1445  0.1342
 5352TIP3    H140251   6.093   0.191  18.026  0.4003 -0.3131  0.8842
 5352TIP3    H240252   6.099   0.319  18.107 -0.6281  0.5280 -0.3347
 5353TIP3   OH240253   6.577   2.323  19.356 -0.5254 -0.2120  0.0617
 5353TIP3    H140254   6.511   2.354  19.418 -0.9187  2.2880 -1.4805
 5353TIP3    H240255   6.633   2.399  19.340  1.6102 -1.7223 -0.1769
 5354TIP3   OH240256   4.076   5.469  18.017  0.1050 -0.6727  0.0149
 5354TIP3    H140257   4.126   5.424  17.949  0.7185 -0.9112  0.6128
 5354TIP3    H240258   4.142   5.511  18.072 -0.3149 -1.3114  1.0474
 5355TIP3   OH240259   6.268   6.098  19.777 -0.4943  0.0387  0.1420
 5355TIP3    H140260   6.353   6.124  19.813 -0.6823  1.4873 -0.3651
 5355TIP3    H240261   6.217   6.070  19.853 -0.5008  1.9336  0.8884
 5356TIP3   OH240262   5.069   1.675  18.404  0.6315  0.1257 -0.3802
 5356TIP3    H140263   5.114   1.628  18.475  1.1667 -0.7247 -1.2575
 5356TIP3    H240264   5.139   1.721  18.358  0.4890 -0.4579 -1.1950
 5357TIP3   OH240265   2.399   0.004  18.043  0.0012  0.0344 -0.0078
 5357TIP3    H140266   2.333  -0.028  18.104  0.0468 -0.8037 -0.3825
 5357TIP3    H240267   2.363   0.087  18.010 -0.5337 -0.0640  0.3235
 5358TIP3   OH240268   6.277   6.641  18.129  0.2273  0.4811 -0.0812
 5358TIP3    H140269   6.245   6.716  18.079  0.7663 -0.5063 -1.9918
 5358TIP3    H240270   6.361   6.670  18.165  1.7262  0.0470 -2.9708
 5359TIP3   OH240271   4.034   3.922  18.579  0.6144 -0.1132  0.1003
 5359TIP3    H140272   4.128   3.934  18.564  0.5584  0.5803  0.2538
 5359TIP3    H240273   4.019   3.829  18.563  0.8151  0.2509 -2.6591
 5360TIP3   OH240274   4.702   2.724  20.221 -0.6282  0.2011 -0.0295
 5360TIP3    H140275   4.716   2.681  20.137  0.8831 -0.1668  0.3820
 5360TIP3    H240276   4.710   2.654  20.286  1.9755  1.0053  0.6586
 5361TIP3   OH240277   4.421   6.606  18.574  0.3800 -0.1083 -0.7726
 5361TIP3    H140278   4.442   6.695  18.603  0.7774 -0.1082 -1.0497
 5361TIP3    H240279   4.333   6.613  18.536  0.4922  0.2107 -0.9805
 5362TIP3   OH240280   1.420   5.249  19.931  0.1456 -0.5210  0.2196
 5362TIP3    H140281   1.490   5.238  19.867 -2.1201 -0.8158 -2.4032
 5362TIP3    H240282   1.407   5.162  19.967  0.5968 -0.6310  0.1212
 5363TIP3   OH240283   4.558   4.954  18.588  0.1663  0.0262  0.5928
 5363TIP3    H140284   4.635   4.958  18.531  0.7473 -2.9656  0.9944
 5363TIP3    H240285   4.488   4.994  18.537  1.6343  1.5966 -0.3209
 5364TIP3   OH240286   1.110   4.105  20.359  0.0253 -0.0002 -0.1209
 5364TIP3    H140287   1.189   4.057  20.336 -1.1147 -2.0636  0.0122
 5364TIP3    H240288   1.111   4.109  20.455  0.3679  0.7516 -0.1444
 5365TIP3   OH240289   0.880   0.199  18.014 -0.2862  0.4236  0.1991
 5365TIP3    H140290   0.847   0.111  17.996  0.2603  0.0975  0.7593
 5365TIP3    H240291   0.826   0.256  17.960 -0.1485 -0.3268 -0.7548
 5366TIP3   OH240292   4.052   6.672  20.162  0.2929  0.4571 -0.3398
 5366TIP3    H140293   4.072   6.739  20.228 -2.6515  1.2811 -0.1381
 5366TIP3    H240294   4.068   6.716  20.078  0.3835  0.7096 -0.1913
 5367TIP3   OH240295   2.262   1.273  17.734  0.2590 -0.0156  0.0254
 5367TIP3    H140296   2.167   1.262  17.743  0.2696 -1.3109 -1.2187
 5367TIP3    H240297   2.272   1.350  17.678  0.0256  1.3459  1.7458
 5368TIP3   OH240298   3.985   1.534  19.648  0.4273 -0.2689 -0.0148
 5368TIP3    H140299   3.974   1.583  19.566  0.0618 -0.9902 -0.4077
 5368TIP3    H240300   3.978   1.600  19.717  0.6198  0.3301 -0.5577
 5369TIP3   OH240301   6.016   4.047  17.970  0.8440 -0.5778  0.1482
 5369TIP3    H140302   6.098   4.001  17.952  1.5536  0.0042  1.7284
 5369TIP3    H240303   6.042   4.121  18.024 -0.7683 -0.5625  0.9428
 5370TIP3   OH240304   1.007   5.967  20.126 -0.0075 -0.1275  0.1448
 5370TIP3    H140305   0.930   5.941  20.176  0.2981 -1.5524 -0.0773
 5370TIP3    H240306   1.039   5.886  20.087  1.7386  0.3747  0.4148
 5371TIP3   OH240307   3.334   4.262  17.687 -0.1081 -0.0679  0.4829
 5371TIP3    H140308   3.354   4.300  17.773 -0.2548 -2.1819  1.5125
 5371TIP3    H240309   3.388   4.183  17.682 -2.1191 -1.4907 -0.1335
 5372TIP3   OH240310   2.861   3.198  18.283 -0.9819 -0.6599 -0.1007
 5372TIP3    H140311   2.934   3.136  18.271 -1.1958 -0.8163 -0.6275
 5372TIP3    H240312   2.896   3.265  18.342 -0.2712 -0.5106 -0.6776
 5373TIP3   OH240313   2.052   0.063  17.972 -0.2926  0.0838  0.9448
 5373TIP3    H140314   1.986   0.044  17.905 -0.2617 -0.6453  1.1076
 5373TIP3    H240315   2.125   0.101  17.923  0.6531 -2.4996  0.1594
 5374TIP3   OH240316   0.746   3.272  19.256 -0.3663  0.9111  0.0489
 5374TIP3    H140317   0.770   3.289  19.347  0.4808  1.4623 -0.2651
 5374TIP3    H240318   0.797   3.195  19.232 -0.5392  0.8051  0.0221
 5375TIP3   OH240319   4.552   3.364  19.560  0.2765  0.2335  0.2176
 5375TIP3    H140320   4.531   3.448  19.600 -0.9696  0.7524 -1.4090
 5375TIP3    H240321   4.632   3.381  19.510 -0.2369  0.6123 -0.4975
 5376TIP3   OH240322   2.023   4.496  17.971  0.0733  0.0271 -0.2301
 5376TIP3    H140323   1.936   4.466  17.996  0.3290 -1.5033 -1.0903
 5376TIP3    H240324   2.033   4.580  18.017 -1.8779  0.2910 -0.2111
 5377TIP3   OH240325   0.032   0.039  18.530 -0.7091  0.1211 -0.5847
 5377TIP3    H140326   0.057   0.109  18.469  2.6541 -0.8770 -0.5385
 5377TIP3    H240327   0.009  -0.035  18.473 -1.0204  0.2357 -0.6121
 5378TIP3   OH240328   2.276   4.902  18.594 -0.8378 -0.6471  0.0625
 5378TIP3    H140329   2.251   4.831  18.535 -0.6600 -0.1276 -0.6390
 5378TIP3    H240330   2.192   4.941  18.621 -0.8864 -0.4183 -0.4200
 5379TIP3   OH240331   2.549   0.091  18.896  0.2616 -0.1963  0.3972
 5379TIP3    H140332   2.551   0.185  18.883  2.7015 -0.2085  0.3466
 5379TIP3    H240333   2.491   0.078  18.972 -1.8825  1.0862 -0.9086
 5380TIP3   OH240334   2.225   2.566  18.590 -0.6465 -0.2180  0.2841
 5380TIP3    H140335   2.276   2.547  18.669 -1.0105  1.6510  1.0300
 5380TIP3    H240336   2.261   2.508  18.523  0.9916 -0.4568  1.3186
 5381TIP3   OH240337   0.036   6.378  17.604 -0.2721  0.0686  0.5256
 5381TIP3    H140338   0.049   6.294  17.559 -2.8665  1.0490 -2.4044
 5381TIP3    H240339   0.004   6.353  17.691  0.7464 -1.9430  0.4008
 5382TIP3   OH240340   5.371   0.499  20.092 -0.3897 -0.0983  0.5633
 5382TIP3    H140341   5.384   0.540  20.006 -3.1757  1.2192  0.6573
 5382TIP3    H240342   5.433   0.426  20.093  1.4456  1.2897 -1.5528
 5383TIP3   OH240343   2.093   4.949  17.340  0.6759 -0.5578 -0.4442
 5383TIP3    H140344   2.091   5.026  17.284 -0.1109 -0.4075 -0.2359
 5383TIP3    H240345   2.111   4.876  17.281  1.2912 -0.2331 -0.6645
 5384TIP3   OH240346   0.581   3.764  18.986  0.5590  0.4304 -0.3372
 5384TIP3    H140347   0.557   3.841  19.037  0.6656  0.7248 -0.7289
 5384TIP3    H240348   0.574   3.792  18.895  1.0371  0.1067 -0.4743
 5385TIP3   OH240349   5.555   1.609  19.802  0.0722  0.2783 -0.0539
 5385TIP3    H140350   5.495   1.541  19.771 -1.1768  1.1675  0.3744
 5385TIP3    H240351   5.505   1.660  19.865  1.3084  1.0012  0.3919
 5386TIP3   OH240352   1.929   1.612  18.029  0.0920  0.4860  0.5553
 5386TIP3    H140353   1.888   1.528  18.054 -1.2167  0.8393 -0.2919
 5386TIP3    H240354   2.005   1.587  17.977 -2.0938 -0.2818 -2.5827
 5387TIP3   OH240355   4.523   2.366  19.539 -0.2843  0.2313 -0.4042
 5387TIP3    H140356   4.537   2.292  19.598  0.0320  0.3573 -0.3189
 5387TIP3    H240357   4.510   2.441  19.598 -0.1442  0.3245 -0.4908
 5388TIP3   OH240358   4.074   2.765  19.094  0.3963 -0.2513  0.0739
 5388TIP3    H140359   4.094   2.852  19.129  1.3188 -0.6889  0.6501
 5388TIP3    H240360   4.041   2.716  19.169  0.7987 -0.6990 -0.0420
 5389TIP3   OH240361   1.137   3.442  18.343 -0.3164  0.6282 -0.2937
 5389TIP3    H140362   1.100   3.368  18.391  0.4910  0.3939 -0.0131
 5389TIP3    H240363   1.231   3.435  18.358 -0.2630  1.9386  0.0461
 5390TIP3   OH240364   0.203   1.906  19.649  0.3462  0.4502 -0.3296
 5390TIP3    H140365   0.295   1.886  19.631  0.5746  0.1815  0.9850
 5390TIP3    H240366   0.154   1.843  19.598  0.8607  0.9371 -1.4677
 5391TIP3   OH240367   2.825   6.535  11.850  0.5580 -0.6617 -0.1851
 5391TIP3    H140368   2.814   6.530  11.755  0.4629  1.1641 -0.2977
 5391TIP3    H240369   2.910   6.578  11.862  0.8955 -1.5011  0.5826
 5392TIP3   OH240370   0.279   2.351  11.295 -0.5338 -0.7016  0.4837
 5392TIP3    H140371   0.198   2.339  11.245  0.1661  0.5920 -1.0544
 5392TIP3    H240372   0.338   2.396  11.234  0.3000  1.1841  2.5535
 5393TIP3   OH240373   1.771   4.105  12.778  0.3744  0.0818 -0.1028
 5393TIP3    H140374   1.843   4.051  12.812  1.8861  1.0153 -1.6710
 5393TIP3    H240375   1.705   4.042  12.750  1.9530 -0.9909 -1.5732
 5394TIP3   OH240376   1.185   2.807   8.841 -0.5171 -0.2597  0.9789
 5394TIP3    H140377   1.098   2.827   8.807 -0.9300 -3.0237  0.1735
 5394TIP3    H240378   1.238   2.788   8.764  0.7696  1.0959  1.4770
 5395TIP3   OH240379   3.458   6.661   9.180  0.3351 -0.1896 -0.1535
 5395TIP3    H140380   3.438   6.713   9.257 -0.9325  0.5462 -0.9374
 5395TIP3    H240381   3.454   6.570   9.211  4.6325  0.0456  1.7134
 5396TIP3   OH240382   6.649   5.017  11.192 -0.1381 -0.1596  0.0461
 5396TIP3    H140383   6.612   5.004  11.105 -0.8672  1.3549  0.0952
 5396TIP3    H240384   6.742   4.997  11.182 -0.4832 -1.4699 -0.6993
 5397TIP3   OH240385   4.454   5.704  11.288 -0.7305  0.3055  0.0360
 5397TIP3    H140386   4.424   5.663  11.206 -0.2954 -1.5057  0.7293
 5397TIP3    H240387   4.547   5.722  11.273 -0.6103 -0.1795  0.1681
 5398TIP3   OH240388   2.825   3.263   9.275  0.8129 -0.3329 -0.0505
 5398TIP3    H140389   2.801   3.327   9.208  0.2782 -0.4397  0.0304
 5398TIP3    H240390   2.912   3.232   9.250  1.8851  1.7026  0.8625
 5399TIP3   OH240391   0.465   2.603   9.143 -0.7791 -0.4018  0.0261
 5399TIP3    H140392   0.442   2.520   9.186  2.0890 -0.5932  1.4095
 5399TIP3    H240393   0.520   2.648   9.206 -0.1692  1.4355 -1.7169
 5400TIP3   OH240394   3.915   3.249   9.654  0.5108 -0.0215 -0.5196
 5400TIP3    H140395   3.983   3.302   9.613  0.3302  0.1474 -0.6012
 5400TIP3    H240396   3.953   3.162   9.660  1.3757  0.4254  0.9557
 5401TIP3   OH240397   6.589   1.012  10.885  0.0660  0.1568 -0.1640
 5401TIP3    H140398   6.618   0.982  10.799 -0.0440 -0.9541  0.1742
 5401TIP3    H240399   6.494   1.001  10.883  0.1808 -1.1754  0.5580
 5402TIP3   OH240400   4.494   2.004   9.234 -0.6499 -0.0052  0.2506
 5402TIP3    H140401   4.573   1.998   9.286 -0.6112 -2.7127  0.0344
 5402TIP3    H240402   4.496   2.092   9.196  1.7733  0.2915  0.9376
 5403TIP3   OH240403   3.255   1.598   9.553  0.3889 -0.0504 -0.3394
 5403TIP3    H140404   3.338   1.596   9.504  0.8944  0.0264  0.4816
 5403TIP3    H240405   3.262   1.676   9.607 -2.1588  2.6307 -3.4598
 5404TIP3   OH240406   2.683   5.187   8.681  0.1777 -0.2099 -0.1873
 5404TIP3    H140407   2.609   5.230   8.637  0.5536 -0.2805 -0.9127
 5404TIP3    H240408   2.645   5.107   8.717 -0.6086  0.8647  1.4857
 5405TIP3   OH240409   3.183   3.424   9.301  0.2204 -0.8865 -0.0823
 5405TIP3    H140410   3.152   3.344   9.257  0.3310 -1.5725  1.0399
 5405TIP3    H240411   3.276   3.429   9.278  0.1572 -0.9403 -0.3589
 5406TIP3   OH240412   2.152   4.133  10.992  0.4923 -0.2062 -0.4701
 5406TIP3    H140413   2.155   4.039  11.008 -0.5437 -0.6735 -2.5722
 5406TIP3    H240414   2.225   4.169  11.043  1.0612 -2.1682  0.1889
 5407TIP3   OH240415   0.670   4.938   9.297 -0.0618  0.1580 -0.0261
 5407TIP3    H140416   0.718   4.953   9.215 -0.0059  0.8487  0.1246
 5407TIP3    H240417   0.587   4.898   9.270  0.5679 -1.0055 -0.2921
 5408TIP3   OH240418   1.116   3.609  11.178  0.9372  0.0681  0.0775
 5408TIP3    H140419   1.200   3.582  11.213  0.6773  0.0678  0.7042
 5408TIP3    H240420   1.103   3.552  11.102  0.1300 -2.0562  1.6883
 5409TIP3   OH240421   6.143   5.578  10.961 -0.5826 -0.4672  0.1153
 5409TIP3    H140422   6.205   5.638  10.920 -0.5350  0.7809  1.8756
 5409TIP3    H240423   6.168   5.491  10.928  1.5238  0.1095  0.0443
 5410TIP3   OH240424   2.758   3.812  11.510 -0.7633 -0.0977  0.0969
 5410TIP3    H140425   2.790   3.897  11.480  0.4486 -0.2381  0.9367
 5410TIP3    H240426   2.766   3.815  11.605 -3.9237  0.0936  0.4572
 5411TIP3   OH240427   4.836   3.586   9.241  0.1172  0.1348  0.1996
 5411TIP3    H140428   4.885   3.534   9.178  1.4327 -1.1641  2.1871
 5411TIP3    H240429   4.745   3.573   9.217  0.5595 -0.3267 -1.3839
 5412TIP3   OH240430   2.813   4.047   9.323  0.6320 -0.0182 -0.0215
 5412TIP3    H140431   2.789   4.114   9.386 -1.8034 -0.0297 -0.8468
 5412TIP3    H240432   2.803   4.090   9.238  1.9395 -0.5884 -0.4956
 5413TIP3   OH240433   2.021   0.613   9.585 -0.4535  0.0718  0.1342
 5413TIP3    H140434   1.996   0.556   9.657  0.0905 -0.3308  0.0078
 5413TIP3    H240435   2.113   0.594   9.570 -0.8264 -0.6783 -1.4120
 5414TIP3   OH240436   6.038   3.087  12.177  0.2007 -0.3953  0.3328
 5414TIP3    H140437   5.954   3.069  12.220  1.0510 -0.1380  2.1827
 5414TIP3    H240438   6.087   3.138  12.240  2.1108 -1.3134 -0.3394
 5415TIP3   OH240439   3.542   4.868  10.796  0.2855  0.2206  0.4346
 5415TIP3    H140440   3.515   4.834  10.711  0.4008  0.5779  0.2528
 5415TIP3    H240441   3.627   4.826  10.813  0.3232  0.2481  0.3136
 5416TIP3   OH240442   3.375   5.290   9.490 -0.5271 -0.8832  0.1741
 5416TIP3    H140443   3.365   5.315   9.398 -0.3262  0.1976  0.4394
 5416TIP3    H240444   3.460   5.245   9.493  1.1644  2.0776  0.4002
 5417TIP3   OH240445   1.530   2.141   9.245 -0.4256  0.3722 -1.1127
 5417TIP3    H140446   1.508   2.232   9.262  0.2698  0.4027 -0.2629
 5417TIP3    H240447   1.466   2.090   9.295  1.0678  0.4545  1.0209
 5418TIP3   OH240448   2.100   2.920   9.660 -0.1002 -0.2889 -0.1555
 5418TIP3    H140449   2.183   2.920   9.612 -0.5291  2.5141 -1.0870
 5418TIP3    H240450   2.119   2.967   9.741 -0.4607 -0.9538  0.3268
 5419TIP3   OH240451   1.111   6.285  12.067 -0.3239 -0.6825  0.1146
 5419TIP3    H140452   1.195   6.250  12.098  0.2364  0.5859  0.0606
 5419TIP3    H240453   1.127   6.378  12.055 -2.2916 -0.0344  1.9666
 5420TIP3   OH240454   5.156   2.504   8.884 -0.5429  0.2386  0.4565
 5420TIP3    H140455   5.241   2.546   8.876 -1.0842  1.7032  1.9785
 5420TIP3    H240456   5.177   2.414   8.911  0.5084  0.4265  0.3283
 5421TIP3   OH240457   2.462   4.250  10.490  0.0832 -0.3855 -0.3637
 5421TIP3    H140458   2.397   4.320  10.502  0.5214 -0.2002  1.2323
 5421TIP3    H240459   2.409   4.170  10.486 -0.2809 -0.3731  2.1667
 5422TIP3   OH240460   5.006   5.993  11.229 -0.0012  0.1456  0.0056
 5422TIP3    H140461   4.970   6.075  11.264 -2.0428 -1.3663  1.6254
 5422TIP3    H240462   5.089   5.983  11.275  0.7791  1.7455 -0.9401
 5423TIP3   OH240463   2.000   0.790   9.383 -0.1485 -0.0191 -0.0279
 5423TIP3    H140464   2.044   0.729   9.324 -1.8817 -1.0839 -0.3036
 5423TIP3    H240465   1.999   0.745   9.467 -1.8623 -0.6510 -0.3440
 5424TIP3   OH240466   1.801   6.603  11.241 -0.2613  0.1489  0.4785
 5424TIP3    H140467   1.732   6.603  11.175  0.0440 -1.1814  0.1395
 5424TIP3    H240468   1.771   6.667  11.307 -0.7135  1.2531 -0.7599
 5425TIP3   OH240469   6.670   3.375  10.880 -0.0003  0.3201 -0.0248
 5425TIP3    H140470   6.638   3.295  10.922  0.8880 -0.1507 -0.2155
 5425TIP3    H240471   6.765   3.370  10.888  0.1069  0.9701 -0.7398
 5426TIP3   OH240472   0.958   5.209  12.409  0.4303 -0.5124  0.0476
 5426TIP3    H140473   0.959   5.165  12.494 -1.3991 -1.1146 -0.1872
 5426TIP3    H240474   0.905   5.151  12.353  2.1519 -0.4747 -1.7199
 5427TIP3   OH240475   5.692   1.608   9.288  0.0496  0.2257 -0.0616
 5427TIP3    H140476   5.606   1.591   9.251 -0.2641  1.7153 -0.0794
 5427TIP3    H240477   5.753   1.587   9.217 -0.3992  0.5826 -0.5667
 5428TIP3   OH240478   2.176   4.959   9.497 -0.0012 -0.3057  0.5020
 5428TIP3    H140479   2.208   4.924   9.581 -0.7182 -1.4754  0.3180
 5428TIP3    H240480   2.112   5.026   9.522  0.9824  0.5219  0.8706
 5429TIP3   OH240481   4.905   0.891  12.200  0.3828  0.1693 -0.3340
 5429TIP3    H140482   4.849   0.814  12.200  0.8568 -0.1840 -0.7288
 5429TIP3    H240483   4.988   0.861  12.237  1.6584 -0.3657 -3.3345
 5430TIP3   OH240484   3.478   5.391  11.792 -0.1282  0.2650 -0.4036
 5430TIP3    H140485   3.480   5.485  11.774 -0.5280  0.1138 -1.2796
 5430TIP3    H240486   3.393   5.363  11.759 -0.0838 -0.3733  0.0225
 5431TIP3   OH240487   6.100   0.800  11.137  0.6874 -0.1116  0.5008
 5431TIP3    H140488   6.041   0.813  11.211  0.1373 -1.3429  0.3104
 5431TIP3    H240489   6.045   0.758  11.070  2.0313 -2.5157  0.7750
 5432TIP3   OH240490   0.661   1.664  10.760  0.4901 -0.0827 -0.0604
 5432TIP3    H140491   0.606   1.681  10.837  0.6719  0.0439  0.0431
 5432TIP3    H240492   0.748   1.648  10.796  0.7594  0.8009 -0.2783
 5433TIP3   OH240493   1.790   0.905  12.242 -0.3114  0.1364 -0.3424
 5433TIP3    H140494   1.720   0.914  12.307  0.6987 -2.0094  1.1562
 5433TIP3    H240495   1.856   0.969  12.268  0.4680 -1.2862  1.3618
 5434TIP3   OH240496   1.753   5.560   9.475 -0.6117  0.1812 -0.5744
 5434TIP3    H140497   1.810   5.486   9.454 -1.8084 -0.3349 -2.2748
 5434TIP3    H240498   1.665   5.527   9.460 -1.6500  0.3651  3.7393
 5435TIP3   OH240499   1.468   5.723   8.816  0.2274  0.2813  0.4273
 5435TIP3    H140500   1.388   5.700   8.769  0.3994  0.8998 -0.1760
 5435TIP3    H240501   1.535   5.665   8.780  0.0641 -0.2581  0.9546
 5436TIP3   OH240502   0.758   1.370   9.347  0.5838  0.5537 -0.3418
 5436TIP3    H140503   0.675   1.326   9.366  0.9238 -0.0070 -0.1181
 5436TIP3    H240504   0.804   1.310   9.288  2.1708 -0.7177  2.0295
 5437TIP3   OH240505   3.751   2.190   9.405 -0.0356  0.1571 -0.3694
 5437TIP3    H140506   3.721   2.271   9.365  0.4137  1.1925  1.2876
 5437TIP3    H240507   3.776   2.215   9.494  1.8085 -1.4428 -0.3702
 5438TIP3   OH240508   5.099   4.696  11.189 -0.0428  0.0730  0.2089
 5438TIP3    H140509   5.136   4.630  11.248  0.8783  1.2135  0.9354
 5438TIP3    H240510   5.008   4.707  11.219  0.5327  0.9487  1.7293
 5439TIP3   OH240511   0.195   6.539  10.994  0.8922 -0.3966 -0.5307
 5439TIP3    H140512   0.125   6.604  10.995 -1.3487 -2.6816  0.6495
 5439TIP3    H240513   0.179   6.486  10.916  1.9133 -0.3748 -0.7764
 5440TIP3   OH240514   4.751   3.347   9.851 -0.0311 -0.0523 -0.6290
 5440TIP3    H140515   4.764   3.334   9.757 -1.3140 -0.2116 -0.7942
 5440TIP3    H240516   4.669   3.395   9.857  0.9218  1.5226  0.3427
 5441TIP3   OH240517   0.844   4.517  10.270  0.3765 -0.6191  0.4413
 5441TIP3    H140518   0.857   4.578  10.197  0.2445 -0.8495  0.2204
 5441TIP3    H240519   0.770   4.553  10.318  1.7808  0.7063  1.7156
 5442TIP3   OH240520   2.466   6.529  10.334  0.6153  0.1064  0.1081
 5442TIP3    H140521   2.384   6.481  10.345  1.1180 -0.7779  0.0355
 5442TIP3    H240522   2.457   6.604  10.392 -0.0672 -0.2116  0.4314
 5443TIP3   OH240523   0.417   5.084  11.389 -0.3529  0.6952  0.1353
 5443TIP3    H140524   0.406   5.173  11.423  1.9256  1.6633 -1.4423
 5443TIP3    H240525   0.464   5.038  11.459 -0.1300  1.1762  0.3040
 5444TIP3   OH240526   6.317   5.212  10.995  0.0730  0.3160  0.0181
 5444TIP3    H140527   6.252   5.201  11.065  1.3045  0.2603  1.2022
 5444TIP3    H240528   6.370   5.286  11.023  0.4780  0.4066 -0.9563
 5445TIP3   OH240529   4.424   2.919  10.533  0.4094 -0.3599 -0.5611
 5445TIP3    H140530   4.456   2.832  10.560 -0.6533 -0.6320 -0.1577
 5445TIP3    H240531   4.329   2.915  10.544  0.1955  0.3874 -1.9134
 5446TIP3   OH240532   4.243   3.821  10.954  0.8356  0.5685  0.0011
 5446TIP3    H140533   4.295   3.744  10.930  2.0644  0.6283  2.1835
 5446TIP3    H240534   4.305   3.894  10.952 -0.2576  1.5193 -1.7835
 5447TIP3   OH240535   3.917   0.666   9.217 -0.2023 -0.1265  0.4407
 5447TIP3    H140536   3.930   0.712   9.133 -1.1403  0.7083  0.7307
 5447TIP3    H240537   3.992   0.693   9.270  0.8608 -1.3316 -0.3907
 5448TIP3   OH240538   2.589   4.944  11.158 -0.1811 -0.5960 -0.6614
 5448TIP3    H140539   2.663   4.952  11.099  0.7510 -0.5219  0.4693
 5448TIP3    H240540   2.624   4.970  11.244 -1.3806 -1.0475 -0.0037
 5449TIP3   OH240541   5.230   6.091   8.773  0.0997  0.0279  0.0949
 5449TIP3    H140542   5.148   6.079   8.725 -0.2980 -0.2106  0.8203
 5449TIP3    H240543   5.235   6.185   8.789 -0.5813 -0.0739  0.9822
 5450TIP3   OH240544   1.562   4.621   9.765 -0.3177 -0.7785  0.2111
 5450TIP3    H140545   1.590   4.625   9.856 -1.4009 -1.4887  0.5872
 5450TIP3    H240546   1.471   4.649   9.765 -0.0469  0.2317 -0.8203
 5451TIP3   OH240547   5.540   5.029   9.507 -0.3736  0.6005  0.0298
 5451TIP3    H140548   5.620   5.028   9.454  0.4822  0.8797  1.2643
 5451TIP3    H240549   5.496   4.948   9.484  0.8233 -0.1077  0.1221
 5452TIP3   OH240550   3.170   3.472   9.002  0.5496  0.2438 -0.3227
 5452TIP3    H140551   3.078   3.449   8.999  0.6173 -0.3858  1.1955
 5452TIP3    H240552   3.171   3.562   9.034  0.4634 -0.4563  1.8443
 5453TIP3   OH240553   6.196   5.955  11.668  0.3268 -0.2586  0.4472
 5453TIP3    H140554   6.211   5.926  11.758 -0.3724  0.0328  0.6708
 5453TIP3    H240555   6.272   5.925  11.620  0.6552 -0.5240  1.1165
 5454TIP3   OH240556   1.578   5.172  10.125 -0.3104 -0.1098  0.5569
 5454TIP3    H140557   1.530   5.089  10.131 -2.0383  0.6071 -1.9072
 5454TIP3    H240558   1.644   5.156  10.058 -2.3524  1.1506 -1.9056
 5455TIP3   OH240559   2.985   0.656   9.754 -0.4737  0.1903 -0.2119
 5455TIP3    H140560   3.058   0.661   9.816  1.5095  0.0734 -2.3745
 5455TIP3    H240561   2.961   0.564   9.753  0.1409  0.0221 -0.2778
 5456TIP3   OH240562   2.028   2.566  10.912  0.2024 -0.3673  0.3031
 5456TIP3    H140563   2.002   2.539  11.000  0.6242 -0.5260  0.3795
 5456TIP3    H240564   2.065   2.487  10.873  0.7194 -0.1001  0.2491
 5457TIP3   OH240565   6.478   5.355   9.218  0.3337 -0.2347 -0.4785
 5457TIP3    H140566   6.520   5.358   9.132  1.0633 -0.4458 -0.1380
 5457TIP3    H240567   6.473   5.447   9.246  0.0454 -0.1621 -0.7645
 5458TIP3   OH240568   2.055   6.710   9.736  0.1979  0.0222  0.2413
 5458TIP3    H140569   1.973   6.757   9.751 -0.1576 -0.7948  0.9391
 5458TIP3    H240570   2.121   6.764   9.781 -0.1563  0.0363  0.7586
 5459TIP3   OH240571   0.117   0.604   9.077  0.6278 -0.1919  0.4999
 5459TIP3    H140572   0.045   0.592   9.138  0.6120  0.4044  0.6034
 5459TIP3    H240573   0.174   0.528   9.092 -1.5452 -2.4580 -1.8394
 5460TIP3   OH240574   5.811   1.247  11.677 -0.0127  0.7334 -0.8359
 5460TIP3    H140575   5.755   1.258  11.600  1.3241  1.0671 -1.7929
 5460TIP3    H240576   5.896   1.281  11.650  0.4816  0.8852  0.8128
 5461TIP3   OH240577   2.266   0.513  10.303 -0.2632 -0.1124  0.3581
 5461TIP3    H140578   2.360   0.532  10.298 -0.6311  1.6842 -1.2984
 5461TIP3    H240579   2.233   0.574  10.370 -0.4695  0.4769 -0.2648
 5462TIP3   OH240580   5.187   3.663   9.565 -0.1265 -0.0404  0.2570
 5462TIP3    H140581   5.137   3.586   9.590 -0.7287  0.7775  1.6862
 5462TIP3    H240582   5.123   3.723   9.526  0.1383  0.1642  0.1311
 5463TIP3   OH240583   5.398   0.772   8.593 -0.1079  0.4083  0.7078
 5463TIP3    H140584   5.370   0.840   8.654  0.8032 -1.3146  3.2287
 5463TIP3    H240585   5.320   0.718   8.579 -0.1044  0.3129  1.0556
 5464TIP3   OH240586   3.660   3.335  11.405 -0.0810 -0.1447  0.6924
 5464TIP3    H140587   3.632   3.354  11.316  1.0020 -0.2058  0.3157
 5464TIP3    H240588   3.738   3.390  11.418  0.4607 -0.9913  1.1745
 5465TIP3   OH240589   2.079   0.847  12.429  0.1383  0.3496 -0.6039
 5465TIP3    H140590   2.069   0.932  12.385  0.5452  0.1244 -1.1492
 5465TIP3    H240591   2.173   0.830  12.426 -0.0633 -0.6745 -1.5800
 5466TIP3   OH240592   0.773   3.977  11.313 -0.4369  0.0085  0.5723
 5466TIP3    H140593   0.756   4.012  11.401 -0.6584 -0.7745  0.8476
 5466TIP3    H240594   0.709   3.907  11.303 -0.7184  0.3896 -0.4012
 5467TIP3   OH240595   5.079   3.552  11.187  0.2579 -0.2991  0.1708
 5467TIP3    H140596   5.164   3.575  11.150 -0.4770 -0.4202 -1.6883
 5467TIP3    H240597   5.030   3.634  11.189 -0.0437 -0.4672 -0.0868
 5468TIP3   OH240598   5.712   1.201  11.420 -0.3324 -0.1382 -0.5336
 5468TIP3    H140599   5.656   1.265  11.377 -0.0385 -0.0532 -0.7969
 5468TIP3    H240600   5.721   1.130  11.356 -2.3915 -1.4608  0.5494
 5469TIP3   OH240601   3.954   6.441   9.273  0.4603 -0.1144  0.0131
 5469TIP3    H140602   3.923   6.529   9.298  0.0606 -0.1298 -0.3875
 5469TIP3    H240603   3.875   6.398   9.239  0.3354 -1.1388  1.5100
 5470TIP3   OH240604   1.478   2.115   8.838  0.1364 -0.2432 -0.0444
 5470TIP3    H140605   1.545   2.180   8.818 -0.0759  0.4474  1.3488
 5470TIP3    H240606   1.527   2.042   8.877  0.1452  0.0083  0.4182
 5471TIP3   OH240607   3.014   1.285   9.386  0.5638 -0.5274 -0.3612
 5471TIP3    H140608   3.038   1.193   9.396  1.2642 -0.4567 -1.2866
 5471TIP3    H240609   2.919   1.287   9.398  0.2849 -1.6508 -2.1023
 5472TIP3   OH240610   6.229   2.175  11.266 -0.3992  0.2522  0.1096
 5472TIP3    H140611   6.206   2.241  11.199  0.1183  0.3443  0.0243
 5472TIP3    H240612   6.260   2.100  11.215 -3.5477 -1.1575  0.0220
 5473TIP3   OH240613   3.476   4.097   9.129  0.2345 -0.8570 -0.1773
 5473TIP3    H140614   3.427   4.015   9.124 -0.6541 -0.4391  1.0351
 5473TIP3    H240615   3.421   4.154   9.184  0.4638  0.8081 -1.5943
 5474TIP3   OH240616   5.868   0.568   9.405 -0.3548  0.0802  0.2092
 5474TIP3    H140617   5.907   0.651   9.433  0.6083 -0.8454  1.7459
 5474TIP3    H240618   5.866   0.573   9.310  0.8955  1.3375  0.2225
 5475TIP3   OH240619   0.955   2.729  10.000 -0.6017 -0.0063  0.1302
 5475TIP3    H140620   1.044   2.760   9.982 -0.5338  0.2500  0.8675
 5475TIP3    H240621   0.943   2.655   9.941 -0.3846  0.7645 -0.9028
 5476TIP3   OH240622   1.874   2.203   9.047 -0.5586  0.0451  0.0274
 5476TIP3    H140623   1.830   2.140   9.104  0.5243 -0.4184  0.3607
 5476TIP3    H240624   1.837   2.288   9.072 -0.9357 -0.2811  0.6031
 5477TIP3   OH240625   2.253   1.034  11.592 -0.0250  1.0184  0.2964
 5477TIP3    H140626   2.337   1.079  11.603  0.1848  0.9152 -0.7693
 5477TIP3    H240627   2.278   0.943  11.574 -0.3380  1.1210 -0.6761
 5478TIP3   OH240628   5.017   3.282   9.813  0.0221 -0.0446 -0.1073
 5478TIP3    H140629   5.067   3.261   9.892  0.0043  1.7691  0.4272
 5478TIP3    H240630   4.926   3.282   9.842  0.0439  1.0232 -0.0186
 5479TIP3   OH240631   4.209   1.995   8.866  0.2183  0.3729  0.2640
 5479TIP3    H140632   4.285   2.019   8.919 -0.2237  1.2392  0.5154
 5479TIP3    H240633   4.239   2.006   8.775  0.6736 -0.1824  0.3373
 5480TIP3   OH240634   1.572   1.642  10.178 -0.2515 -0.0606  0.4042
 5480TIP3    H140635   1.633   1.714  10.162 -0.1588 -0.4944 -1.4386
 5480TIP3    H240636   1.506   1.650  10.110 -0.4746 -1.4541  0.4148
 5481TIP3   OH240637   1.040   5.004   9.640 -0.4325  0.1037 -0.4928
 5481TIP3    H140638   1.083   5.087   9.617 -3.5441  1.2924 -2.7362
 5481TIP3    H240639   1.056   4.994   9.734  0.8776  2.7161 -0.3374
 5482TIP3   OH240640   4.203   1.120  10.395 -0.5667 -0.2271  0.7077
 5482TIP3    H140641   4.293   1.150  10.410 -0.9356  0.7976  0.9274
 5482TIP3    H240642   4.148   1.181  10.444 -1.5628  0.8441 -1.5959
 5483TIP3   OH240643   6.186   0.820   9.298  0.6347 -0.2271  0.4406
 5483TIP3    H140644   6.097   0.854   9.311  1.0950  0.5138  1.9201
 5483TIP3    H240645   6.222   0.873   9.227 -0.6819 -1.7581 -1.4534
 5484TIP3   OH240646   3.750   5.942   9.067 -0.1158  0.2881 -0.2904
 5484TIP3    H140647   3.759   6.033   9.038  0.0564  0.4115  0.1497
 5484TIP3    H240648   3.799   5.938   9.149  0.5298 -0.3887 -0.7003
 5485TIP3   OH240649   3.503   2.822   9.123 -0.7553  0.3822 -0.1863
 5485TIP3    H140650   3.429   2.763   9.109  0.0714 -0.4679 -1.1922
 5485TIP3    H240651   3.472   2.885   9.189 -1.7909 -0.9294  0.6253
 5486TIP3   OH240652   4.209   4.798   9.325  0.7352  0.0348  0.1193
 5486TIP3    H140653   4.154   4.720   9.318  0.3273  0.2624  0.6653
 5486TIP3    H240654   4.298   4.767   9.305  0.5858 -0.5845  0.3982
 5487TIP3   OH240655   0.053   0.065  12.324  0.6318  0.1321 -0.8897
 5487TIP3    H140656   0.027  -0.026  12.309  2.1091 -0.3652 -0.5649
 5487TIP3    H240657   0.124   0.059  12.388  0.6062  1.5381 -0.7103
 5488TIP3   OH240658   4.319   4.039   8.943  0.3534 -0.0424  0.1941
 5488TIP3    H140659   4.231   4.025   8.980 -0.2429  0.7207 -0.8602
 5488TIP3    H240660   4.336   4.132   8.960  0.6281 -0.0073 -0.2768
 5489TIP3   OH240661   3.035   3.693  11.493  0.4498  0.6139 -0.0806
 5489TIP3    H140662   2.954   3.683  11.442  0.7460 -0.2557 -0.3779
 5489TIP3    H240663   3.021   3.774  11.542 -0.3124  0.8534 -0.6680
 5490TIP3   OH240664   1.866   6.049   8.988  0.1309  0.1053 -0.3530
 5490TIP3    H140665   1.960   6.065   8.998 -0.0936  1.4076 -0.2259
 5490TIP3    H240666   1.831   6.058   9.077 -0.1469 -0.2207 -0.4280
 5491TIP3   OH240667   1.315   0.925   9.855 -0.1879  0.1795  0.1879
 5491TIP3    H140668   1.317   0.830   9.842 -2.1238  0.3843 -2.3312
 5491TIP3    H240669   1.224   0.944   9.877  0.3507  1.4155  1.5327
 5492TIP3   OH240670   1.700   1.598  12.629  0.1335 -0.1614  0.1315
 5492TIP3    H140671   1.605   1.583  12.619 -0.2190  1.0319  1.4370
 5492TIP3    H240672   1.728   1.534  12.694 -0.3234  1.1611  1.6944
 5493TIP3   OH240673   4.804   0.516  10.409  0.1911  0.2189 -0.1957
 5493TIP3    H140674   4.800   0.455  10.335  1.4358 -2.3081  1.6807
 5493TIP3    H240675   4.728   0.495  10.463  1.2399 -0.4897  1.0396
 5494TIP3   OH240676   1.610   6.216   9.461 -0.1327 -0.1106  0.5708
 5494TIP3    H140677   1.564   6.284   9.511 -0.1962 -0.9350  1.6536
 5494TIP3    H240678   1.557   6.137   9.473  0.3078 -0.5249 -0.1229
 5495TIP3   OH240679   3.391   1.303  10.864  0.0689 -0.3746 -0.2726
 5495TIP3    H140680   3.476   1.339  10.839 -0.3796  1.1030  0.2077
 5495TIP3    H240681   3.364   1.252  10.788  1.2586 -0.6549 -0.5332
 5496TIP3   OH240682   5.645   1.090   8.753  0.1930 -0.7551 -0.1207
 5496TIP3    H140683   5.663   1.181   8.730  0.6672 -0.1180  2.4990
 5496TIP3    H240684   5.714   1.040   8.709 -0.6081 -0.0186 -2.3477
 5497TIP3   OH240685   6.082   3.446  11.419 -0.4860 -0.7511 -0.4121
 5497TIP3    H140686   6.002   3.431  11.470 -0.2849  0.5355  0.3154
 5497TIP3    H240687   6.117   3.529  11.452 -0.0762 -0.1108 -2.2991
 5498TIP3   OH240688   2.541   5.589  11.436 -0.3781  0.5480 -0.2810
 5498TIP3    H140689   2.467   5.616  11.490 -1.1117  1.2686 -1.5726
 5498TIP3    H240690   2.612   5.649  11.459 -0.4778  0.4273  0.3359
 5499TIP3   OH240691   1.672   2.720   9.243  0.0726 -0.2474 -0.3444
 5499TIP3    H140692   1.606   2.741   9.310  0.0420  1.2649 -0.8191
 5499TIP3    H240693   1.626   2.727   9.160  0.3104 -1.3318 -0.5774
 5500TIP3   OH240694   1.360   2.826  10.634 -0.3615  0.5653 -0.0756
 5500TIP3    H140695   1.328   2.900  10.686 -0.2638  0.3301  0.3249
 5500TIP3    H240696   1.322   2.749  10.676 -0.9844  0.4276 -0.8777
 5501TIP3   OH240697   1.366   1.912   9.319 -0.5841  0.5155  0.1569
 5501TIP3    H140698   1.334   1.834   9.364 -1.6786 -0.3692 -2.0101
 5501TIP3    H240699   1.287   1.963   9.299 -0.2265  0.5879 -1.2107
 5502TIP3   OH240700   4.164   3.231  11.305 -1.3678 -0.6120  0.5712
 5502TIP3    H140701   4.161   3.318  11.265 -0.5320 -1.5237 -1.6334
 5502TIP3    H240702   4.251   3.225  11.344 -0.7305 -1.0621 -0.8533
 5503TIP3   OH240703   6.489   6.606   9.657  0.6645  0.0272  0.2525
 5503TIP3    H140704   6.468   6.694   9.626  1.5909  0.6451  1.3083
 5503TIP3    H240705   6.563   6.578   9.603 -0.5330 -0.7087 -1.0553
 5504TIP3   OH240706   3.892   2.769  11.592 -0.4509 -0.4401  0.2875
 5504TIP3    H140707   3.797   2.752  11.590 -0.2707 -1.8062  1.5937
 5504TIP3    H240708   3.913   2.776  11.685  0.7350 -0.0527  0.0087
 5505TIP3   OH240709   6.654   0.173  10.731  0.0366  0.0986 -0.5606
 5505TIP3    H140710   6.639   0.174  10.636 -1.2602  1.0015 -0.3724
 5505TIP3    H240711   6.614   0.092  10.760  2.4420 -1.3732 -1.0201
 5506TIP3   OH240712   1.177   3.332   9.310  0.4615 -0.3627  0.3798
 5506TIP3    H140713   1.156   3.374   9.227 -0.7512  1.3295  1.4810
 5506TIP3    H240714   1.209   3.403   9.366 -0.7149 -1.0397  2.0076
 5507TIP3   OH240715   4.017   6.658  10.761 -0.0792 -0.0416 -0.5080
 5507TIP3    H140716   3.990   6.646  10.852 -1.2447 -1.8622 -1.0519
 5507TIP3    H240717   4.091   6.599  10.750 -0.8030 -0.8737 -1.0752
 5508TIP3   OH240718   3.116   6.517  11.599 -0.5199 -0.1298 -0.4006
 5508TIP3    H140719   3.131   6.446  11.661  1.0845  0.4405 -0.0899
 5508TIP3    H240720   3.122   6.476  11.513 -1.7435 -0.7346 -0.2201
 5509TIP3   OH240721   4.544   3.485  12.172 -0.4558  0.2846  0.2681
 5509TIP3    H140722   4.512   3.411  12.121 -1.8516  0.7173  0.4595
 5509TIP3    H240723   4.489   3.486  12.250  2.0617 -0.7597  2.1765
 5510TIP3   OH240724   5.050   0.388   9.594  0.6722 -0.7152 -0.4095
 5510TIP3    H140725   5.040   0.391   9.499  0.6558  0.7417 -0.3855
 5510TIP3    H240726   5.012   0.470   9.624  1.8534 -0.5610  0.7342
 5511TIP3   OH240727   5.158   5.507  10.338 -0.4904 -0.2539 -0.3311
 5511TIP3    H140728   5.232   5.487  10.395 -0.5997 -4.6222 -1.3505
 5511TIP3    H240729   5.081   5.481  10.389 -0.9046 -0.3812 -1.0122
 5512TIP3   OH240730   5.869   2.643   9.591  0.4593  0.1253 -0.3006
 5512TIP3    H140731   5.957   2.669   9.618 -0.0955  2.3011 -0.3734
 5512TIP3    H240732   5.859   2.681   9.504 -0.6164  0.1141 -0.1925
 5513TIP3   OH240733   4.864   1.330   9.820  0.4986  0.6104 -0.3139
 5513TIP3    H140734   4.955   1.321   9.845  0.3182 -0.2304  0.0805
 5513TIP3    H240735   4.837   1.415   9.857  0.7502  0.2494  0.7482
 5514TIP3   OH240736   6.245   3.350  10.786 -0.4790  0.0789 -0.0123
 5514TIP3    H140737   6.186   3.425  10.787 -0.6702 -0.0773  0.6150
 5514TIP3    H240738   6.198   3.281  10.833  0.4650  0.1487  1.0695
 5515TIP3   OH240739   1.829   5.207  10.882  0.0752 -0.3934 -0.6525
 5515TIP3    H140740   1.769   5.200  10.956  0.7452 -0.9623 -0.1472
 5515TIP3    H240741   1.782   5.167  10.809 -1.5241  2.2000 -1.1759
 5516TIP3   OH240742   6.066   4.358  11.926  0.6637  0.0752 -0.4359
 5516TIP3    H140743   6.070   4.447  11.891  1.2533  0.6102  0.8888
 5516TIP3    H240744   6.148   4.348  11.975  0.3711 -1.0028 -0.1344
 5517TIP3   OH240745   0.588   2.835  17.620  0.0877  0.2954 -0.3463
 5517TIP3    H140746   0.665   2.805  17.668  0.2151  2.2606  0.7873
 5517TIP3    H240747   0.618   2.914  17.573 -1.4212  1.7109  0.9387
 5518TIP3   OH240748   4.674   1.176  10.247  0.0111 -0.5229 -0.7319
 5518TIP3    H140749   4.623   1.110  10.294 -1.7746  1.6419  0.6025
 5518TIP3    H240750   4.726   1.126  10.184 -0.2851 -3.2629  1.0256
 5519TIP3   OH240751   2.387   0.259  11.507  0.0533  0.0911 -0.1430
 5519TIP3    H140752   2.305   0.287  11.549  0.0669  0.1921 -0.1838
 5519TIP3    H240753   2.381   0.294  11.418 -0.1975 -0.5495 -0.3794
 5520TIP3   OH240754   2.224   1.465   9.262  0.2805 -0.2830  0.1851
 5520TIP3    H140755   2.309   1.505   9.241 -0.1236  1.2041  1.2120
 5520TIP3    H240756   2.231   1.376   9.229  1.7759  0.1885 -0.9068
 5521TIP3   OH240757   5.026   4.842  12.141  0.0624  0.3649  0.8968
 5521TIP3    H140758   4.971   4.877  12.211 -2.1038 -0.8058 -0.1091
 5521TIP3    H240759   5.093   4.909  12.127 -0.6674  1.5293  2.6960
 5522TIP3   OH240760   0.896   4.880  11.318 -0.6546 -0.2410  0.1476
 5522TIP3    H140761   0.900   4.973  11.341 -0.8474 -0.0871 -0.4180
 5522TIP3    H240762   0.953   4.872  11.241  0.3909 -0.8375  0.9490
 5523TIP3   OH240763   5.926   3.283   8.778 -0.3449 -0.1096 -0.0923
 5523TIP3    H140764   5.934   3.336   8.700  1.3387  2.3529  1.6148
 5523TIP3    H240765   5.840   3.240   8.770 -0.4864  0.5392 -2.9061
 5524TIP3   OH240766   5.644   2.844  10.219 -0.6684 -0.5386 -0.0870
 5524TIP3    H140767   5.589   2.796  10.281 -2.3994  0.0517 -1.0957
 5524TIP3    H240768   5.665   2.780  10.150  0.2382 -0.8579  0.4654
 5525TIP3   OH240769   0.337   1.336  12.109  0.3934  0.3498  0.2752
 5525TIP3    H140770   0.389   1.256  12.123  0.3027 -0.1142 -1.7606
 5525TIP3    H240771   0.383   1.383  12.040  0.8301  2.4699  1.9165
 5526TIP3   OH240772   1.641   3.371   9.259  0.1742  0.2690  0.4286
 5526TIP3    H140773   1.658   3.325   9.342 -0.4928 -0.2484  0.2857
 5526TIP3    H240774   1.647   3.303   9.192 -4.1772 -0.4757  0.4889
 5527TIP3   OH240775   0.672   4.167  11.141 -0.3321 -0.0118  0.9054
 5527TIP3    H140776   0.663   4.115  11.061 -1.5922  0.3725  0.7863
 5527TIP3    H240777   0.703   4.104  11.206  2.4647  0.0222 -0.2586
 5528TIP3   OH240778   1.968   3.777  10.143  0.4983 -0.6203 -0.1133
 5528TIP3    H140779   2.023   3.847  10.109  0.4999 -0.1925  0.7347
 5528TIP3    H240780   1.890   3.822  10.178  0.5125 -1.0237  0.4581
 5529TIP3   OH240781   5.106   0.302  17.712  0.0271 -0.1037  0.1794
 5529TIP3    H140782   5.162   0.375  17.687 -0.1460  0.0821  0.3279
 5529TIP3    H240783   5.017   0.335  17.702 -0.1063 -0.8325 -1.3823
 5530TIP3   OH240784   1.442   2.282  10.333  0.3073 -0.5656 -0.1234
 5530TIP3    H140785   1.512   2.338  10.368  0.6561 -0.3124 -1.2077
 5530TIP3    H240786   1.468   2.263  10.243 -1.1658 -0.2144 -0.6535
 5531TIP3   OH240787   5.334   2.861  10.532 -0.3099 -0.3326 -0.0726
 5531TIP3    H140788   5.400   2.792  10.518 -1.3311 -1.5224  0.7077
 5531TIP3    H240789   5.264   2.840  10.470 -1.6297 -1.3762  1.6723
 5532TIP3   OH240790   1.758   0.172  10.570 -0.6963 -0.1187  0.0441
 5532TIP3    H140791   1.685   0.192  10.627  0.5797 -0.2160  1.7792
 5532TIP3    H240792   1.766   0.249  10.513 -1.5373  0.2968  0.4775
 5533TIP3   OH240793   3.960   1.160  11.438 -0.1918 -0.0151 -0.2112
 5533TIP3    H140794   3.989   1.072  11.413  0.1035  0.1450 -0.4287
 5533TIP3    H240795   4.032   1.218  11.413 -0.0336  0.1923  0.7067
 5534TIP3   OH240796   4.472   2.320  11.743  0.1853  0.0618 -0.3251
 5534TIP3    H140797   4.379   2.305  11.757  0.2170 -0.9925 -1.0921
 5534TIP3    H240798   4.491   2.278  11.659  1.1917  0.9383 -0.5726
 5535TIP3   OH240799   5.608   1.991  10.272 -0.3057 -1.1074  0.1819
 5535TIP3    H140800   5.682   1.930  10.275 -0.8148 -1.7130  0.5813
 5535TIP3    H240801   5.591   2.013  10.363 -0.9288 -1.3537  0.1291
 5536TIP3   OH240802   6.627   3.101  11.422  0.3097 -0.0256  0.4423
 5536TIP3    H140803   6.543   3.055  11.434  0.7339 -0.9950 -0.1400
 5536TIP3    H240804   6.605   3.178  11.370 -0.3560  0.2011  1.0503
 5537TIP3   OH240805   3.322   5.402   9.226 -0.5707 -0.0323 -0.7789
 5537TIP3    H140806   3.283   5.364   9.147  2.4117 -0.1498 -2.3252
 5537TIP3    H240807   3.411   5.426   9.200  0.4844  0.1282  2.5060
 5538TIP3   OH240808   0.288   0.651  10.275 -0.0420 -0.7943  0.1018
 5538TIP3    H140809   0.347   0.624  10.346 -0.7293 -0.4377  0.8184
 5538TIP3    H240810   0.305   0.744  10.263 -2.1755 -0.0651  2.0427
 5539TIP3   OH240811   0.973   2.303  11.369 -0.2779  1.0743 -0.5342
 5539TIP3    H140812   1.063   2.323  11.393 -0.0728 -0.2816 -0.0726
 5539TIP3    H240813   0.981   2.253  11.287 -0.3386 -1.5742  0.9604
 5540TIP3   OH240814   3.113   3.021  11.485 -0.1087 -0.3672  0.6784
 5540TIP3    H140815   3.133   3.113  11.471 -1.0199 -0.1132  0.9746
 5540TIP3    H240816   3.179   2.991  11.547 -0.3890  0.3393  1.3322
 5541TIP3   OH240817   2.180   1.172   9.800  0.3874  0.1145 -0.9963
 5541TIP3    H140818   2.178   1.183   9.705  2.2954 -0.4135 -1.1395
 5541TIP3    H240819   2.268   1.200   9.826  1.2965 -3.2284  0.0842
 5542TIP3   OH240820   3.259   1.935   9.243  0.2139 -0.2762  0.5908
 5542TIP3    H140821   3.336   1.987   9.221 -1.0076  0.6214 -1.9611
 5542TIP3    H240822   3.291   1.845   9.246  1.6695  0.2263  1.4424
 5543TIP3   OH240823   2.534   2.521  10.510 -0.1511 -0.0096  0.2924
 5543TIP3    H140824   2.585   2.447  10.542 -0.3088  0.0743  0.7429
 5543TIP3    H240825   2.542   2.587  10.579  3.3657  2.0376 -1.7554
 5544TIP3   OH240826   5.522   2.527  11.342 -0.1159  0.7759  0.2556
 5544TIP3    H140827   5.485   2.453  11.295 -0.5171  1.5498 -0.6593
 5544TIP3    H240828   5.605   2.494  11.377 -0.6846 -0.3487  0.5873
 5545TIP3   OH240829   1.682   1.499  11.402 -0.4498  0.0617  0.3138
 5545TIP3    H140830   1.760   1.517  11.349 -1.2889  1.5704 -0.4904
 5545TIP3    H240831   1.695   1.411  11.436  0.7441 -0.4354 -1.3329
 5546TIP3   OH240832   5.865   2.185  11.152 -0.2626  0.1742 -0.0918
 5546TIP3    H140833   5.862   2.110  11.211 -2.3685  0.9340  0.8850
 5546TIP3    H240834   5.920   2.156  11.080  0.3384 -1.7037  1.0313
 5547TIP3   OH240835   5.250   0.640  11.616 -0.7794  0.1233  0.2442
 5547TIP3    H140836   5.211   0.661  11.531 -1.1069 -0.6127  0.2083
 5547TIP3    H240837   5.298   0.719  11.640  0.4738 -0.1237 -1.2790
 5548TIP3   OH240838   4.652   6.389   9.089  0.3018  0.1128 -0.1112
 5548TIP3    H140839   4.700   6.332   9.029 -1.2285 -1.1049 -0.2384
 5548TIP3    H240840   4.684   6.365   9.176 -0.5116 -1.1565 -0.1461
 5549TIP3   OH240841   4.880   2.117  11.718 -0.3100 -0.8075  0.5479
 5549TIP3    H140842   4.850   2.027  11.706 -1.8467 -0.1473 -0.9274
 5549TIP3    H240843   4.879   2.155  11.630 -0.2275  0.8090  1.2044
 5550TIP3   OH240844   4.171   5.472   8.804  0.4806  0.3325  0.1164
 5550TIP3    H140845   4.222   5.523   8.741 -2.3188  1.8020 -1.1410
 5550TIP3    H240846   4.225   5.396   8.823  2.7397  1.3732 -1.7095
 5551TIP3   OH240847   0.511   1.299  10.218  0.2293 -0.3592 -0.0216
 5551TIP3    H140848   0.547   1.378  10.180  0.7224 -0.6343 -0.1337
 5551TIP3    H240849   0.498   1.239  10.144 -2.0530  0.3079 -0.2433
 5552TIP3   OH240850   4.664   0.759  11.380  0.1699  0.0604 -0.4822
 5552TIP3    H140851   4.746   0.785  11.337  0.6310 -0.3269  0.1477
 5552TIP3    H240852   4.607   0.732  11.307  0.4834  0.6347 -0.9501
 5553TIP3   OH240853   6.258   1.100   9.529  0.5159 -0.0469  0.4073
 5553TIP3    H140854   6.210   1.118   9.448  0.1953  1.1487  0.8406
 5553TIP3    H240855   6.307   1.180   9.547  2.5072 -1.1610  0.1229
 5554TIP3   OH240856   5.628   0.316  10.060  0.4489 -0.3289 -0.1942
 5554TIP3    H140857   5.641   0.297   9.967  1.6619 -0.4720 -0.0117
 5554TIP3    H240858   5.702   0.371  10.084 -0.5201  0.7564  0.4129
 5555TIP3   OH240859   4.638   4.762   9.418 -0.5167  0.0662 -0.2463
 5555TIP3    H140860   4.701   4.692   9.431  1.7442  2.0237 -0.1011
 5555TIP3    H240861   4.614   4.756   9.325 -0.2492 -0.7706 -0.2699
 5556TIP3   OH240862   0.994   6.472  11.372  0.3495 -0.1950 -0.0883
 5556TIP3    H140863   0.975   6.563  11.347  0.6888 -0.1662 -0.2513
 5556TIP3    H240864   0.909   6.428  11.369 -0.2376  0.6326  2.2558
 5557TIP3   OH240865   6.629   0.361   9.584  0.2632  0.2435  0.6877
 5557TIP3    H140866   6.594   0.448   9.567  0.1557 -0.1766 -1.5775
 5557TIP3    H240867   6.603   0.341   9.674 -1.8445  1.5555  0.4261
 5558TIP3   OH240868   1.564   1.168  10.458 -0.0850 -0.3683  0.1509
 5558TIP3    H140869   1.475   1.187  10.428 -0.0862 -1.9937 -1.0039
 5558TIP3    H240870   1.620   1.216  10.397 -0.1472  0.6777  0.8946
 5559TIP3   OH240871   0.023   2.501   9.319 -0.4824 -0.3172 -0.7374
 5559TIP3    H140872   0.024   2.413   9.356  0.0866  0.2000  0.5859
 5559TIP3    H240873  -0.052   2.544   9.361  0.1571  0.2746 -0.1600
 5560TIP3   OH240874   6.573   5.530  10.092  0.1719 -0.1494 -0.2478
 5560TIP3    H140875   6.628   5.494  10.161  0.7326  2.3494  0.7440
 5560TIP3    H240876   6.495   5.561  10.139  0.2596  0.9643 -0.8133
 5561TIP3   OH240877   5.784   4.776  11.211 -0.2640  0.0749  0.0622
 5561TIP3    H140878   5.740   4.710  11.264 -0.5135  2.6111  3.3664
 5561TIP3    H240879   5.834   4.726  11.147 -1.1908 -3.2367  1.7009
 5562TIP3   OH240880   3.892   0.311   9.966  0.7133 -0.1071 -0.4486
 5562TIP3    H140881   3.856   0.224   9.982  1.0585 -0.4723 -1.5284
 5562TIP3    H240882   3.864   0.363  10.041  3.8137 -2.1075  2.4062
 5563TIP3   OH240883   3.250   4.780   8.982 -0.4354 -0.0127 -0.0393
 5563TIP3    H140884   3.324   4.823   9.025 -0.7721  1.5467 -0.9401
 5563TIP3    H240885   3.285   4.750   8.899 -0.3470 -1.0268  0.3525
 5564TIP3   OH240886   4.849   4.063  10.654 -0.3625  0.1888 -0.2181
 5564TIP3    H140887   4.859   4.158  10.643  0.0354  0.3445  1.2492
 5564TIP3    H240888   4.754   4.050  10.663 -0.3188  0.7764  1.7737
 5565TIP3   OH240889   6.069   3.971  12.361  0.4224 -0.2113 -0.6805
 5565TIP3    H140890   6.065   3.924  12.444 -1.5422  0.6739 -0.2001
 5565TIP3    H240891   6.120   3.914  12.303  0.8065 -1.4081  0.7730
 5566TIP3   OH240892   0.332   2.488  10.507  0.0016 -0.0967  0.1589
 5566TIP3    H140893   0.341   2.447  10.421 -3.3203  0.1916 -0.4544
 5566TIP3    H240894   0.288   2.422  10.561  0.3444  0.4020  1.0627
 5567TIP3   OH240895   4.054   4.001   9.999 -0.3706  0.5072 -0.1488
 5567TIP3    H140896   4.106   4.041  10.069 -1.1785  2.1785 -0.4570
 5567TIP3    H240897   4.011   3.926  10.040 -1.5255  1.9610  1.4224
 5568TIP3   OH240898   1.019   2.134  11.119  0.2159 -0.4145 -0.6229
 5568TIP3    H140899   0.933   2.137  11.078  0.5526  0.7098 -1.2900
 5568TIP3    H240900   1.030   2.043  11.145 -1.0708 -0.6194 -0.7407
 5569TIP3   OH240901   2.746   4.162   9.605 -0.5006  0.2971  0.2447
 5569TIP3    H140902   2.770   4.078   9.643 -0.3444 -0.0379 -0.5663
 5569TIP3    H240903   2.798   4.226   9.652  0.8172 -0.2553 -0.4275
 5570TIP3   OH240904   3.511   3.633   9.972  0.2806  0.6097 -0.1224
 5570TIP3    H140905   3.517   3.642   9.877  0.9629  3.6473  0.1094
 5570TIP3    H240906   3.431   3.679   9.996  0.0582 -0.2112  0.7883
 5571TIP3   OH240907   0.260   6.201  10.111 -0.6548  0.6283 -0.4586
 5571TIP3    H140908   0.198   6.220  10.041  0.3655  3.1201 -0.8039
 5571TIP3    H240909   0.208   6.210  10.191 -1.6332 -1.4311 -0.7923
 5572TIP3   OH240910   3.995   1.814   9.299 -0.3441  0.0654 -0.3855
 5572TIP3    H140911   3.961   1.849   9.382  1.4126  0.3272  0.2699
 5572TIP3    H240912   3.961   1.874   9.233 -1.2079  0.2619  0.2093
 5573TIP3   OH240913   3.933   6.552   9.691  0.0241 -0.5079 -0.0616
 5573TIP3    H140914   3.938   6.458   9.711 -0.5389 -0.5525 -0.1120
 5573TIP3    H240915   3.844   6.564   9.655  0.2837 -0.0573 -0.5707
 5574TIP3   OH240916   1.039   0.845   8.931 -0.0191  0.4760  0.2874
 5574TIP3    H140917   1.135   0.844   8.933 -0.0076  1.7248  1.0897
 5574TIP3    H240918   1.017   0.829   8.839  0.8990 -1.4804  0.3523
 5575TIP3   OH240919   4.128   5.534  10.072 -0.3155 -0.2723  0.1005
 5575TIP3    H140920   4.047   5.491  10.044  0.4611 -0.9613 -1.1513
 5575TIP3    H240921   4.177   5.549   9.991  2.3181 -2.9102  1.0109
 5576TIP3   OH240922   2.214   3.514  11.200  0.3563  0.0485 -0.1660
 5576TIP3    H140923   2.127   3.541  11.231  1.0594  1.7688  0.3839
 5576TIP3    H240924   2.207   3.520  11.104 -0.0318  0.5160 -0.1143
 5577TIP3   OH240925   0.628   4.023  11.546  0.1752  0.5241 -0.2298
 5577TIP3    H140926   0.656   4.107  11.584 -1.6495  1.0028  0.1847
 5577TIP3    H240927   0.532   4.029  11.545  0.0385 -1.3125 -0.7921
 5578TIP3   OH240928   5.593   3.093   9.710 -0.3861  0.0421  0.3160
 5578TIP3    H140929   5.594   3.062   9.619 -0.0292  0.1946  0.2694
 5578TIP3    H240930   5.660   3.041   9.754 -0.2566  0.2715  0.3924
 5579TIP3   OH240931   6.572   3.570   8.723  0.3708 -0.2664  0.1259
 5579TIP3    H140932   6.540   3.529   8.643 -0.7202  1.3681 -0.3135
 5579TIP3    H240933   6.515   3.645   8.737  0.3933 -0.6159  2.5779
 5580TIP3   OH240934   6.380   3.736   9.539  0.1029 -0.3099  0.4256
 5580TIP3    H140935   6.386   3.654   9.589  3.4209 -1.6932 -1.8498
 5580TIP3    H240936   6.335   3.711   9.458 -0.4057  0.5815  0.4238
 5581TIP3   OH240937   0.426   1.546  10.658  0.1063  0.7794  0.2700
 5581TIP3    H140938   0.345   1.518  10.701 -0.7814  0.7808 -1.3448
 5581TIP3    H240939   0.445   1.632  10.696 -0.6744  0.8022  0.6264
 5582TIP3   OH240940   0.399   5.955  12.058  0.4613 -0.1439 -0.2600
 5582TIP3    H140941   0.479   6.004  12.076  0.3763 -0.2273  0.3725
 5582TIP3    H240942   0.420   5.901  11.982  0.9349 -0.0039 -0.2290
 5583TIP3   OH240943   5.593   0.615  11.073 -0.0933 -0.1322 -0.4910
 5583TIP3    H140944   5.543   0.560  11.013  1.1138 -0.5850 -1.1106
 5583TIP3    H240945   5.669   0.563  11.097 -0.5958  0.0020  1.5551
 5584TIP3   OH240946   5.998   6.419  11.529  0.2079 -0.2060  0.0294
 5584TIP3    H140947   5.988   6.324  11.537  0.0496 -0.1518  0.5752
 5584TIP3    H240948   6.001   6.450  11.620 -0.9067  0.4291 -0.1282
 5585TIP3   OH240949   2.289   5.714  10.969 -0.2975 -0.9223  0.6270
 5585TIP3    H140950   2.309   5.641  11.028 -0.7613 -2.1258 -0.6396
 5585TIP3    H240951   2.323   5.686  10.884 -0.0828  0.5532  0.2047
 5586TIP3   OH240952   0.596   1.749  11.621  0.1771 -0.2760  0.3574
 5586TIP3    H140953   0.587   1.662  11.582 -0.6248 -0.3980  0.8105
 5586TIP3    H240954   0.507   1.775  11.645  0.5650  0.0923  1.4691
 5587TIP3   OH240955   4.004   2.814  11.318 -0.4897  0.2411  0.0437
 5587TIP3    H140956   3.986   2.809  11.412 -0.5944 -0.7605 -0.0221
 5587TIP3    H240957   3.919   2.826  11.277 -0.5030  0.1190  0.0361
 5588TIP3   OH240958   0.033   6.298   9.353 -0.4850 -0.1480 -0.2015
 5588TIP3    H140959   0.090   6.224   9.376  0.4402  0.9931  1.3574
 5588TIP3    H240960   0.042   6.306   9.258  1.7236 -0.2464 -0.0591
 5589TIP3   OH240961   2.670   6.010   8.814 -0.2233 -0.0457  0.1109
 5589TIP3    H140962   2.605   6.057   8.865 -2.2866  0.1832 -2.5421
 5589TIP3    H240963   2.640   5.919   8.816  0.9743 -0.4572  1.0881
 5590TIP3   OH240964   3.636   4.330  10.053 -0.1237 -0.3908  0.1042
 5590TIP3    H140965   3.554   4.345  10.005 -0.1998 -0.5660  0.1770
 5590TIP3    H240966   3.618   4.362  10.141  0.3758  0.9588 -0.2615
 5591TIP3   OH240967   1.749   1.163  11.685  0.4198 -0.4267  0.0323
 5591TIP3    H140968   1.841   1.185  11.698  0.7730 -1.1434 -1.1218
 5591TIP3    H240969   1.726   1.109  11.761  0.8885 -0.0998  0.4166
 5592TIP3   OH240970   1.183   6.068  11.168 -0.4564 -0.1690 -0.2285
 5592TIP3    H140971   1.157   5.999  11.106  0.8169 -2.1561  1.3163
 5592TIP3    H240972   1.256   6.112  11.126 -0.2482 -0.8327 -0.5732
 5593TIP3   OH240973   1.146   4.960  10.617 -0.7066 -0.7770 -0.3605
 5593TIP3    H140974   1.153   5.042  10.567  0.9999  0.5681  1.8864
 5593TIP3    H240975   1.054   4.934  10.608 -1.3612  1.5192 -0.9923
 5594TIP3   OH240976   3.373   3.831  10.149  0.3826  0.7783 -0.4706
 5594TIP3    H140977   3.443   3.882  10.109 -0.2744  1.1468 -1.1631
 5594TIP3    H240978   3.313   3.896  10.185 -0.4899  0.5049 -1.4108
 5595TIP3   OH240979   1.488   0.612  11.043 -0.2131  0.6902 -0.1857
 5595TIP3    H140980   1.402   0.609  11.002  0.1335  2.2645 -1.1102
 5595TIP3    H240981   1.539   0.545  10.997 -0.6637  0.4160 -0.2914
 5596TIP3   OH240982   2.643   4.279  10.720  0.0325 -0.1491 -0.0163
 5596TIP3    H140983   2.585   4.253  10.648 -0.6575  2.1922 -0.4067
 5596TIP3    H240984   2.618   4.222  10.793 -1.8082 -0.1439 -0.5938
 5597TIP3   OH240985   4.909   1.533  12.135 -0.2880 -0.4831  0.2996
 5597TIP3    H140986   4.882   1.459  12.079  0.8988 -1.5136  1.0319
 5597TIP3    H240987   4.883   1.507  12.223 -1.0887  0.6100  0.4042
 5598TIP3   OH240988   6.065   4.510  10.819 -0.4431  0.3483  0.0041
 5598TIP3    H140989   6.156   4.524  10.796 -0.3649  1.4369  0.8729
 5598TIP3    H240990   6.027   4.466  10.743  0.9299 -0.6662 -0.1230
 5599TIP3   OH240991   0.627   0.159  11.743  0.1472 -0.7500 -0.8926
 5599TIP3    H140992   0.708   0.195  11.781 -1.1212 -0.4444  1.7324
 5599TIP3    H240993   0.614   0.076  11.789 -0.3080 -1.5185 -2.3438
 5600TIP3   OH240994   0.753   3.943   9.217  0.1581 -0.6167 -0.1531
 5600TIP3    H140995   0.760   3.931   9.312 -0.4876 -0.4002 -0.0708
 5600TIP3    H240996   0.663   3.919   9.197  0.5501 -1.5495 -0.8528
 5601TIP3   OH240997   1.670   2.445   9.453 -0.2342 -0.1690 -0.6413
 5601TIP3    H140998   1.710   2.523   9.415  1.8837 -1.0283 -0.2822
 5601TIP3    H240999   1.655   2.468   9.545 -0.8678  0.2553 -0.8458
 5602TIP3   OH241000   3.936   1.599   8.980 -0.0025  0.4524  0.3609
 5602TIP3    H141001   3.892   1.583   8.897  0.3017 -3.6411  0.7767
 5602TIP3    H241002   3.873   1.648   9.032 -1.3182  0.6439 -1.3443
 5603TIP3   OH241003   2.527   6.714  11.050  0.0758 -0.2225  0.1405
 5603TIP3    H141004   2.603   6.753  11.009 -1.3019  1.3082 -1.0841
 5603TIP3    H241005   2.457   6.724  10.986 -1.3428 -0.8953  1.5102
 5604TIP3   OH241006   3.670   1.263  10.759 -0.2703 -0.1336 -0.2811
 5604TIP3    H141007   3.659   1.358  10.763 -0.5521 -0.1920  1.5287
 5604TIP3    H241008   3.729   1.249  10.686  1.7761  1.6661  0.8712
 5605TIP3   OH241009   2.091   1.875   9.879  0.1183  0.4410  0.1883
 5605TIP3    H141010   2.054   1.962   9.861 -2.9836 -0.4402  1.6010
 5605TIP3    H241011   2.121   1.844   9.794  0.2862  2.4394 -0.5399
 5606TIP3   OH241012   2.067   6.430   9.704  0.2596 -0.3312  0.2788
 5606TIP3    H141013   1.972   6.436   9.713  0.2541  0.8873 -0.4549
 5606TIP3    H241014   2.100   6.511   9.741  1.0088 -0.6357  0.2938
 5607TIP3   OH241015   0.206   3.673   9.690 -0.6982 -0.2071  0.5168
 5607TIP3    H141016   0.234   3.764   9.676  1.2424 -0.8653 -0.2848
 5607TIP3    H241017   0.261   3.642   9.762  0.1228 -1.3058 -0.5315
 5608TIP3   OH241018   5.438   1.568  10.199  0.0558  0.0333 -0.4951
 5608TIP3    H141019   5.353   1.536  10.168 -0.1855  0.4006 -0.2276
 5608TIP3    H241020   5.500   1.541  10.132 -0.3605  0.2422 -0.9748
 5609TIP3   OH241021   0.495   4.055  12.277  0.4512 -0.2211 -0.2394
 5609TIP3    H141022   0.541   3.971  12.269  0.0614 -0.3727 -0.9458
 5609TIP3    H241023   0.532   4.109  12.207 -0.2102 -0.2374 -0.6041
 5610TIP3   OH241024   6.683   2.369  12.734 -0.1708 -0.4223  0.2561
 5610TIP3    H141025   6.593   2.354  12.706 -0.4150  0.1434  0.7056
 5610TIP3    H241026   6.691   2.318  12.815  0.6603 -2.3941 -0.9913
 5611TIP3   OH241027   1.077   1.695  10.210  0.1370  0.4262  0.2779
 5611TIP3    H141028   1.157   1.743  10.232  0.0060  0.3953  0.8389
 5611TIP3    H241029   1.019   1.710  10.284 -0.5127  0.7322 -0.2895
 5612TIP3   OH241030   2.258   3.134  11.987 -0.0667 -0.2093  0.0760
 5612TIP3    H141031   2.276   3.118  12.080 -1.3093  1.1306  0.5857
 5612TIP3    H241032   2.311   3.212  11.966 -0.1607 -0.2225 -0.2101
 5613TIP3   OH241033   3.173   2.077  10.141 -0.1579 -0.1305  0.5168
 5613TIP3    H141034   3.106   2.145  10.133  1.1962  1.3317  1.2522
 5613TIP3    H241035   3.219   2.097  10.223  2.2171 -0.0834 -0.7267
 5614TIP3   OH241036   6.421   3.062  11.648  0.0040 -0.1095 -0.0643
 5614TIP3    H141037   6.367   2.984  11.660  0.3795 -0.2678  0.6882
 5614TIP3    H241038   6.446   3.087  11.737  2.2013 -0.7868 -0.4307
 5615TIP3   OH241039   6.561   3.672  11.146  0.2460  0.4625  0.5803
 5615TIP3    H141040   6.575   3.743  11.208  0.6939 -0.4806  1.6020
 5615TIP3    H241041   6.644   3.666  11.098  0.0285  0.9559  0.1385
 5616TIP3   OH241042   0.947   2.923   9.289 -0.2066 -0.3569  0.2361
 5616TIP3    H141043   0.873   2.952   9.342  0.7913  1.0171  0.9546
 5616TIP3    H241044   0.908   2.887   9.210 -1.6228  1.1522  0.1992
 5617TIP3   OH241045   5.441   2.387   9.843 -0.0378  0.6226 -0.3630
 5617TIP3    H141046   5.515   2.410   9.900  1.2090  0.0045 -1.6971
 5617TIP3    H241047   5.422   2.468   9.796 -1.5744  1.3617  1.3935
 5618TIP3   OH241048   0.583   3.396  12.793 -0.2889  0.0234 -0.2030
 5618TIP3    H141049   0.627   3.385  12.709  2.7071  3.3746  0.7104
 5618TIP3    H241050   0.630   3.337  12.853 -1.2949 -1.0707 -0.4482
 5619TIP3   OH241051   4.345   3.089  10.756  0.2295  0.2522  0.1526
 5619TIP3    H141052   4.396   3.009  10.743 -1.6943 -0.9253 -0.6007
 5619TIP3    H241053   4.258   3.059  10.781 -0.1180  2.1837  1.5591
 5620TIP3   OH241054   0.152   5.613  10.193 -0.7175  0.1732  0.3939
 5620TIP3    H141055   0.123   5.606  10.284 -2.2192  0.8511  0.0003
 5620TIP3    H241056   0.187   5.701  10.185 -0.9341  0.2484  0.2376
 5621TIP3   OH241057   1.710   4.397   9.336  0.0899  0.5475 -0.1554
 5621TIP3    H141058   1.792   4.438   9.362 -0.6268  3.2170 -1.7478
 5621TIP3    H241059   1.658   4.394   9.417  0.5837  1.7969  0.2207
 5622TIP3   OH241060   1.854   5.884  10.031 -0.0384 -0.7703  0.2232
 5622TIP3    H141061   1.896   5.844  10.107 -1.3664  0.5175  1.6829
 5622TIP3    H241062   1.878   5.976  10.036 -0.3409 -0.6224 -0.8074
 5623TIP3   OH241063   5.559   4.573   8.514 -0.4687 -0.4625 -0.1237
 5623TIP3    H141064   5.629   4.608   8.459 -0.2816 -0.7066 -0.0451
 5623TIP3    H241065   5.603   4.508   8.570 -0.3863  0.7216  1.2667
 5624TIP3   OH241066   1.603   5.797  11.933 -0.7997 -0.1858 -0.1047
 5624TIP3    H141067   1.554   5.838  12.004 -1.8139 -0.2075 -0.7662
 5624TIP3    H241068   1.561   5.830  11.853  0.2470 -0.2448 -0.6929
 5625TIP3   OH241069   0.085   4.313  10.788  0.5151 -0.1348 -0.3418
 5625TIP3    H141070   0.023   4.373  10.830  1.0713  0.7725 -0.7631
 5625TIP3    H241071   0.060   4.314  10.696 -0.0084 -1.2467 -0.2249
 5626TIP3   OH241072   0.695   1.927   9.824 -0.0009 -0.3418 -0.1854
 5626TIP3    H141073   0.759   1.855   9.828  1.9085  0.8607 -4.0237
 5626TIP3    H241074   0.611   1.883   9.811  0.6704 -1.8927  0.4620
 5627TIP3   OH241075   4.008   5.239  10.454  0.3063 -0.2386 -0.0523
 5627TIP3    H141076   3.922   5.248  10.496  0.9257  1.8257  0.9236
 5627TIP3    H241077   4.071   5.250  10.526  1.3942 -0.4329 -0.9489
 5628TIP3   OH241078   5.907   5.812  10.848 -0.0788 -0.3814  0.3624
 5628TIP3    H141079   5.833   5.817  10.788 -0.5713 -0.5541  0.9449
 5628TIP3    H241080   5.975   5.867  10.809 -0.5131 -0.2310 -0.1759
 5629TIP3   OH241081   3.648   6.567  10.625 -0.6822  0.4704 -0.3553
 5629TIP3    H141082   3.626   6.475  10.639 -0.5937 -0.2276 -3.9372
 5629TIP3    H241083   3.564   6.613  10.632 -1.4866 -0.5335 -2.4644
 5630TIP3   OH241084   4.377   0.316   8.744 -0.8036  0.1311  0.0240
 5630TIP3    H141085   4.449   0.255   8.756 -0.5719  0.6681  1.6036
 5630TIP3    H241086   4.301   0.271   8.781 -0.5125  0.9814  1.7620
 5631TIP3   OH241087   3.912   0.666  10.483  0.1548 -0.1537  0.0277
 5631TIP3    H141088   3.854   0.682  10.408  0.8836 -0.6909 -0.6656
 5631TIP3    H241089   3.852   0.659  10.557 -0.8783 -2.3583 -0.9080
 5632TIP3   OH241090   5.738   4.209  10.450  0.3498  0.0714 -0.4634
 5632TIP3    H141091   5.691   4.237  10.372  0.0608 -0.2777 -0.4201
 5632TIP3    H241092   5.679   4.146  10.491 -1.8025  3.6054  2.5983
 5633TIP3   OH241093   3.789   0.073  10.720  0.1489 -0.1256 -0.4774
 5633TIP3    H141094   3.878   0.039  10.709  0.1093 -0.2752 -0.3277
 5633TIP3    H241095   3.733   0.010  10.674 -0.1485 -1.3931  1.5041
 5634TIP3   OH241096   2.906   3.651  10.048  0.1686 -0.2194  0.4532
 5634TIP3    H141097   2.905   3.561  10.015  1.4303  0.1352 -0.6679
 5634TIP3    H241098   2.815   3.679  10.043 -0.0107 -0.9303 -0.7011
 5635TIP3   OH241099   2.846   6.172   9.395  0.2250  0.1481 -0.1633
 5635TIP3    H141100   2.808   6.150   9.310  0.7369  1.5805 -0.7893
 5635TIP3    H241101   2.940   6.157   9.383  0.5176  1.9934 -0.4317
 5636TIP3   OH241102   1.223   2.118  11.890 -0.2350 -0.3683  0.3296
 5636TIP3    H141103   1.283   2.071  11.832 -0.5636  0.2741 -0.5648
 5636TIP3    H241104   1.136   2.096  11.857 -0.4075  0.4629  0.2132
 5637TIP3   OH241105   5.167   3.740  10.692  0.1718  0.2079 -0.1946
 5637TIP3    H141106   5.140   3.653  10.662  1.1467 -0.5400  0.9815
 5637TIP3    H241107   5.131   3.800  10.627 -2.0785 -0.9114 -0.1013
 5638TIP3   OH241108   0.445   3.960  10.445  0.3242  0.0755 -0.2028
 5638TIP3    H141109   0.437   4.043  10.399  1.7245 -0.1767 -0.9286
 5638TIP3    H241110   0.412   3.895  10.383 -0.8279  0.0716  0.3857
 5639TIP3   OH241111   5.561   2.217  10.109 -0.3726  0.2143  0.3766
 5639TIP3    H141112   5.591   2.132  10.140 -0.1095  0.2931  0.3435
 5639TIP3    H241113   5.639   2.272  10.113 -0.5572  0.4702  0.4578
 5640TIP3   OH241114   3.545   5.697  11.702  0.4589  0.2840  0.1729
 5640TIP3    H141115   3.480   5.705  11.772  0.0192 -0.1641 -0.1858
 5640TIP3    H241116   3.628   5.683  11.749 -0.0333 -1.4882  0.6137
 5641TIP3   OH241117   1.799   2.881  10.700 -0.6493  0.7502  0.4547
 5641TIP3    H141118   1.771   2.790  10.709 -0.0472  0.3357 -1.4297
 5641TIP3    H241119   1.739   2.919  10.636  1.3680  0.5630 -1.6924
 5642TIP3   OH241120   4.754   3.863   9.160 -0.6477 -0.3421 -0.0395
 5642TIP3    H141121   4.839   3.820   9.146 -0.1287  0.8390 -0.7640
 5642TIP3    H241122   4.689   3.795   9.143  0.1506 -1.5446  1.5422
 5643TIP3   OH241123   4.402   1.364   9.555  0.3283 -0.3682  0.1647
 5643TIP3    H141124   4.379   1.446   9.513 -2.0605 -0.4421  1.1632
 5643TIP3    H241125   4.432   1.389   9.642  0.5718 -0.4895  0.1164
 5644TIP3   OH241126   1.677   4.900   8.568 -0.2361 -0.2743  0.2771
 5644TIP3    H141127   1.739   4.839   8.607  2.6044  1.6228 -0.9648
 5644TIP3    H241128   1.626   4.846   8.507 -1.3992 -2.2850  2.8456
 5645TIP3   OH241129   0.798   2.833  12.120 -0.6515 -0.1536 -0.9010
 5645TIP3    H141130   0.757   2.878  12.193 -1.9111 -1.4503 -0.7681
 5645TIP3    H241131   0.826   2.903  12.061 -3.2526  0.8209 -1.0922
 5646TIP3   OH241132   4.974   3.674   9.834 -0.0354 -0.1060  0.1945
 5646TIP3    H141133   4.945   3.678   9.926 -1.0436 -0.9332 -0.0774
 5646TIP3    H241134   5.046   3.611   9.834  0.0917  0.0338  0.4325
 5647TIP3   OH241135   1.333   4.211  11.103 -0.0577  0.2404  0.1920
 5647TIP3    H141136   1.355   4.126  11.143  1.2004 -0.4003 -1.6926
 5647TIP3    H241137   1.246   4.198  11.065  0.2164 -0.2996 -0.2699
 5648TIP3   OH241138   3.344   5.971  10.078  1.0239 -0.3778 -0.2293
 5648TIP3    H141139   3.264   5.953  10.128  0.3138 -0.6195 -1.4112
 5648TIP3    H241140   3.348   5.902  10.013  0.5669  1.2481 -2.0988
 5649TIP3   OH241141   0.982   0.650  11.408  0.0599 -0.1847 -0.4315
 5649TIP3    H141142   1.003   0.599  11.330 -0.2015  0.8807 -1.2215
 5649TIP3    H241143   0.946   0.586  11.470 -1.4270 -0.7869 -1.8544
 5650TIP3   OH241144   5.398   1.165   9.676  0.2123  0.2478 -0.4280
 5650TIP3    H141145   5.385   1.070   9.676 -1.0978  0.4149  0.0342
 5650TIP3    H241146   5.418   1.186   9.585  1.1515 -0.5346 -0.4252
 5651TIP3   OH241147   3.409   1.300  12.035  0.6251  0.2942  0.1574
 5651TIP3    H141148   3.496   1.263  12.053  0.7093  0.9408  1.2026
 5651TIP3    H241149   3.423   1.394  12.036 -0.3958  0.4767  2.2579
 5652TIP3   OH241150   4.639   3.866  12.654 -0.6945  0.0872  0.3487
 5652TIP3    H141151   4.727   3.854  12.619 -0.6572 -0.1124  0.5154
 5652TIP3    H241152   4.600   3.779  12.652 -0.8646  0.1628  0.3435
 5653TIP3   OH241153   4.159   1.649  10.142 -0.5864  0.4070 -0.2963
 5653TIP3    H141154   4.079   1.689  10.176 -0.4079  0.8262 -0.3585
 5653TIP3    H241155   4.203   1.614  10.220 -1.4930 -1.0587 -0.4249
 5654TIP3   OH241156   4.744   5.007   8.964 -0.1476  0.2355 -0.4947
 5654TIP3    H141157   4.683   5.041   9.030 -2.4100 -0.3981 -2.1820
 5654TIP3    H241158   4.827   5.051   8.985 -2.1074  4.5247 -0.6756
 5655TIP3   OH241159   1.195   1.467  11.514  0.2305 -0.0300 -0.2117
 5655TIP3    H141160   1.272   1.425  11.554  0.3465 -0.9492 -1.3638
 5655TIP3    H241161   1.147   1.396  11.473  0.0455  0.8482 -1.6008
 5656TIP3   OH241162   0.690   6.692  10.733 -0.0991  0.1018 -0.5792
 5656TIP3    H141163   0.637   6.619  10.764 -0.1740 -0.0771 -1.1244
 5656TIP3    H241164   0.675   6.694  10.639 -0.1121  0.8280 -0.5681
 5657TIP3   OH241165   1.732   4.005  12.063  0.3217  0.0961  0.5353
 5657TIP3    H141166   1.783   4.075  12.022  0.5769 -0.5069 -0.1920
 5657TIP3    H241167   1.642   4.021  12.033  0.4803 -0.2473 -0.1574
 5658TIP3   OH241168   2.746   5.740   9.233 -0.1418 -0.0694 -0.5464
 5658TIP3    H141169   2.661   5.773   9.204  0.7030  1.4124 -1.4687
 5658TIP3    H241170   2.726   5.692   9.313 -1.8463  0.2202 -0.7410
 5659TIP3   OH241171   4.787   1.517   8.793  0.5844  0.2875  0.1838
 5659TIP3    H141172   4.728   1.569   8.848  1.6445  0.7294  0.9331
 5659TIP3    H241173   4.834   1.582   8.741  0.3146 -0.0724 -0.5263
 5660TIP3   OH241174   4.894   2.320  10.002  0.1223 -0.4299  0.3102
 5660TIP3    H141175   4.918   2.232  10.032 -1.2863 -0.9007  0.1466
 5660TIP3    H241176   4.829   2.304   9.933  1.2032  0.7051 -1.0170
 5661TIP3   OH241177   6.074   6.047   9.151 -0.0380  0.1020  0.1062
 5661TIP3    H141178   6.075   6.124   9.208 -0.5516  1.9863 -2.2536
 5661TIP3    H241179   6.167   6.025   9.140  0.2419  1.3924 -0.3833
 5662TIP3   OH241180   1.251   1.952  10.921  0.0239 -0.0646 -0.2101
 5662TIP3    H141181   1.205   1.887  10.974 -0.1569 -1.2328 -1.7109
 5662TIP3    H241182   1.344   1.937  10.940 -0.0832  0.7093  1.0460
 5663TIP3   OH241183   5.235   0.196  10.294 -0.1107  0.1351  0.4564
 5663TIP3    H141184   5.326   0.224  10.296  0.2230 -0.8488 -0.2735
 5663TIP3    H241185   5.192   0.257  10.233  0.3919 -0.3035 -0.3525
 5664TIP3   OH241186   2.458   1.092   9.967 -0.1845 -0.1921 -0.0602
 5664TIP3    H141187   2.404   1.029   9.918 -0.6128 -0.7578  1.1082
 5664TIP3    H241188   2.402   1.122  10.037  0.3843  0.7131  0.0137
 5665TIP3   OH241189   3.439   3.423   9.183 -0.4013 -0.5353  0.0718
 5665TIP3    H141190   3.511   3.453   9.128 -0.7707 -0.6182 -0.4672
 5665TIP3    H241191   3.439   3.328   9.175  0.1206 -0.6257  0.9625
 5666TIP3   OH241192   4.955   3.757   9.432 -0.1865  0.0976 -0.8109
 5666TIP3    H141193   4.884   3.712   9.386 -0.5714  0.0337 -0.1753
 5666TIP3    H241194   5.006   3.798   9.363 -1.1234  0.5419 -1.2650
 5667TIP3   OH241195   0.223   5.578   9.048 -0.1788 -0.0951 -0.4346
 5667TIP3    H141196   0.283   5.649   9.070  0.2043 -0.1825 -1.1750
 5667TIP3    H241197   0.197   5.595   8.957 -1.0125 -0.2479 -0.2347
 5668TIP3   OH241198   0.726   0.760   9.575  0.2885  0.0942  0.2272
 5668TIP3    H141199   0.701   0.703   9.648 -1.9239  1.6545  0.8114
 5668TIP3    H241200   0.811   0.796   9.601  0.7452 -1.3313  0.7974
 5669TIP3   OH241201   6.290   5.134   9.779 -0.4150 -0.2308 -0.5864
 5669TIP3    H141202   6.346   5.137   9.857 -0.4722 -1.4446 -0.4837
 5669TIP3    H241203   6.333   5.072   9.721 -1.2640 -0.6266 -0.8103
 5670TIP3   OH241204   4.060   0.385  10.257  0.7479  0.0186  0.0390
 5670TIP3    H141205   4.121   0.404  10.329  0.3638 -0.6555  0.5585
 5670TIP3    H241206   4.049   0.290  10.260 -0.2355  0.1234 -0.1245
 5671TIP3   OH241207   4.137   4.509   9.618  0.3280 -0.1184  0.4566
 5671TIP3    H141208   4.054   4.550   9.641  1.1660  1.4966  0.7625
 5671TIP3    H241209   4.195   4.582   9.597  1.8501 -1.1611  0.8596
 5672TIP3   OH241210   5.791   2.439  11.322  0.0896 -0.0457 -0.3688
 5672TIP3    H141211   5.879   2.422  11.356 -0.3941 -1.4846  0.2082
 5672TIP3    H241212   5.775   2.368  11.260 -1.2722 -0.7522  0.7291
 5673TIP3   OH241213   3.738   4.449  10.745  0.4273 -0.0783 -0.3128
 5673TIP3    H141214   3.651   4.454  10.704 -0.0059 -0.4817  0.5291
 5673TIP3    H241215   3.774   4.366  10.713  0.5194  0.1018 -0.6827
 5674TIP3   OH241216   2.327   1.016   9.190 -0.2278 -0.1098  0.7988
 5674TIP3    H141217   2.343   0.993   9.282 -1.6235 -0.5566  0.9547
 5674TIP3    H241218   2.286   0.938   9.153 -3.9214  1.5372  0.9967
 5675TIP3   OH241219   6.604   5.191  10.627  0.5705  0.2664  0.0386
 5675TIP3    H141220   6.673   5.130  10.601  0.7122  0.2548  0.4276
 5675TIP3    H241221   6.525   5.137  10.632  0.4040  0.3954 -0.9851
 5676TIP3   OH241222   1.578   2.927  12.772 -0.3090  0.3693  0.3973
 5676TIP3    H141223   1.560   3.020  12.782 -1.1261  0.2527  0.1107
 5676TIP3    H241224   1.493   2.888  12.750  0.0582 -0.4120  0.3092
 5677TIP3   OH241225   1.844   3.441  11.298  0.0228  0.0182 -0.8466
 5677TIP3    H141226   1.892   3.363  11.328 -1.3437  0.1765  2.0955
 5677TIP3    H241227   1.900   3.514  11.323  0.0309  0.0757 -1.0332
 5678TIP3   OH241228   3.787   4.710  11.103  0.0479  0.4186  0.2978
 5678TIP3    H141229   3.842   4.772  11.150  0.7306  0.4554 -0.5108
 5678TIP3    H241230   3.721   4.681  11.166  1.4764 -0.2228  1.5415
 5679TIP3   OH241231   3.942   1.445  10.948  0.1797 -0.1127 -0.0404
 5679TIP3    H141232   3.873   1.493  10.995  0.2838  0.3575 -0.3569
 5679TIP3    H241233   3.970   1.505  10.880 -0.6735 -1.1497 -1.3620
 5680TIP3   OH241234   3.356   1.826  12.070  0.0506 -0.5775  0.1196
 5680TIP3    H141235   3.376   1.788  12.155 -0.7530 -1.1609  0.0480
 5680TIP3    H241236   3.276   1.877  12.084  1.6167  1.9702  0.4645
 5681TIP3   OH241237   2.052   5.868  10.861 -0.2486  0.8557  0.5365
 5681TIP3    H141238   2.105   5.944  10.836  0.9387 -0.3748 -0.8694
 5681TIP3    H241239   2.113   5.809  10.905 -0.8748  0.1959  0.5362
 5682TIP3   OH241240   4.622   4.792  10.423 -0.2744 -0.1240  0.2352
 5682TIP3    H141241   4.683   4.857  10.457  1.7456 -1.3060 -0.9213
 5682TIP3    H241242   4.609   4.818  10.332 -1.1028 -0.1923  0.3304
 5683TIP3   OH241243   5.609   2.146   9.290 -0.0149  0.2993  0.2180
 5683TIP3    H141244   5.581   2.196   9.366  1.3187 -0.0633  0.9797
 5683TIP3    H241245   5.639   2.211   9.227  1.5636  0.5046  1.1398
 5684TIP3   OH241246   1.895   0.900  11.547  0.1436 -0.1928  0.2562
 5684TIP3    H141247   1.943   0.916  11.466  0.6634  0.8794  0.7606
 5684TIP3    H241248   1.918   0.973  11.604  0.2344 -1.2184  1.5919
 5685TIP3   OH241249   5.415   3.427  12.211  0.1242  0.3731  0.0018
 5685TIP3    H141250   5.372   3.481  12.144  0.4928 -0.5310 -0.9919
 5685TIP3    H241251   5.484   3.484  12.247  1.2585  0.2584 -1.8239
 5686TIP3   OH241252   0.569   5.102  11.856 -0.5666  0.6380 -0.1353
 5686TIP3    H141253   0.581   5.186  11.902 -1.0764  0.7690 -0.2291
 5686TIP3    H241254   0.477   5.104  11.828 -0.3009  0.4959 -1.0453
 5687TIP3   OH241255   3.718   0.282  11.034 -0.7072 -0.4273  0.1217
 5687TIP3    H141256   3.755   0.288  10.947 -0.6459 -1.3712  0.0778
 5687TIP3    H241257   3.692   0.372  11.055  0.9754  0.1308 -0.1018
 5688TIP3   OH241258   6.013   1.087  10.156  0.4754  0.2831 -0.3254
 5688TIP3    H141259   6.022   1.050  10.244 -1.4245  0.2750 -0.0923
 5688TIP3    H241260   5.963   1.022  10.108  1.0106  0.5498 -1.2525
 5689TIP3   OH241261   5.593   2.256   9.577  0.2111  0.5755 -0.4763
 5689TIP3    H141262   5.660   2.303   9.626 -0.6599  1.2233  0.1337
 5689TIP3    H241263   5.534   2.324   9.545 -1.8823 -0.1186  1.6318
 5690TIP3   OH241264   5.530   6.410   9.701  0.0365  0.1222 -0.0919
 5690TIP3    H141265   5.615   6.390   9.661 -0.2007 -2.0161  0.3294
 5690TIP3    H241266   5.470   6.347   9.663 -0.9687  0.4068  0.9610
 5691TIP3   OH241267   3.526   3.829  11.097 -0.2272  0.1620  0.1902
 5691TIP3    H141268   3.596   3.894  11.087  2.0317 -1.9592  1.1520
 5691TIP3    H241269   3.520   3.814  11.191 -0.9771 -0.7234  0.0214
 5692TIP3   OH241270   5.852   0.813   9.557  0.1426  0.2826 -0.0171
 5692TIP3    H141271   5.770   0.839   9.599  0.6870  0.2702  1.0984
 5692TIP3    H241272   5.912   0.799   9.630  0.9300 -0.4250 -0.7824
 5693TIP3   OH241273   2.471   3.819  11.381  0.2589  0.3873 -0.9977
 5693TIP3    H141274   2.487   3.913  11.382 -0.3728  0.5118  0.1962
 5693TIP3    H241275   2.543   3.782  11.432 -0.9012  0.5312  0.8429
 5694TIP3   OH241276   3.838   0.253  11.307 -0.0095  0.2697 -0.4128
 5694TIP3    H141277   3.780   0.219  11.376  0.6736 -0.3425 -0.1264
 5694TIP3    H241278   3.782   0.259  11.230 -0.4240 -0.4937 -0.1909
 5695TIP3   OH241279   5.323   4.838  10.024 -0.3142  0.3888 -0.5296
 5695TIP3    H141280   5.255   4.904  10.039  0.7005  1.4123 -0.3268
 5695TIP3    H241281   5.402   4.888  10.004  0.5471 -0.7552 -0.1419
 5696TIP3   OH241282   3.574   4.100  10.832 -0.0978 -0.0991 -0.0739
 5696TIP3    H141283   3.666   4.101  10.806 -0.0770 -4.2245 -0.9287
 5696TIP3    H241284   3.529   4.057  10.759 -2.3213 -0.2162  1.2762
 5697TIP3   OH241285   3.252   5.060  11.078  0.2060 -0.0001 -0.1614
 5697TIP3    H141286   3.193   5.022  11.012  1.0180  1.3539 -1.7483
 5697TIP3    H241287   3.323   4.996  11.084 -0.6504 -0.9166  0.6492
 5698TIP3   OH241288   3.063   1.497  11.166 -0.1500 -0.2348  0.1816
 5698TIP3    H141289   3.081   1.405  11.181 -0.9514 -0.2441  1.1848
 5698TIP3    H241290   3.118   1.521  11.092 -0.6145 -1.7401 -0.6806
 5699TIP3   OH241291   0.403   5.400   9.173  0.3563 -0.0101 -0.0278
 5699TIP3    H141292   0.319   5.426   9.135 -0.0027  0.4835  1.0640
 5699TIP3    H241293   0.396   5.305   9.182  1.1257 -0.4040 -2.7267
 5700TIP3   OH241294   1.797   5.101  12.167 -0.4225  0.3690 -0.4451
 5700TIP3    H141295   1.716   5.142  12.137 -0.3273  1.0617  0.2169
 5700TIP3    H241296   1.781   5.080  12.259  0.8910  2.5255  0.3439
 5701TIP3   OH241297   5.661   4.795   9.094 -0.4135 -0.1506 -0.1100
 5701TIP3    H141298   5.615   4.774   9.012 -0.1776  0.2979 -0.3596
 5701TIP3    H241299   5.636   4.724   9.153 -1.5809  0.1760 -0.1770
 5702TIP3   OH241300   0.881   1.699  11.971  0.0867  0.7573  0.2672
 5702TIP3    H141301   0.789   1.719  11.989 -0.0532  0.1767  0.2227
 5702TIP3    H241302   0.911   1.771  11.915 -0.6503  0.3981 -0.6222
 5703TIP3   OH241303   2.007   3.864   9.434 -0.5916 -0.0242 -0.1717
 5703TIP3    H141304   2.008   3.786   9.378 -0.6380 -0.8821  0.9829
 5703TIP3    H241305   1.917   3.898   9.426 -1.5612 -1.9017  1.6594
 5704TIP3   OH241306   0.630   6.067  10.004 -0.2059  0.3573 -0.7794
 5704TIP3    H141307   0.635   6.041  10.096  0.9802  1.2137 -0.5922
 5704TIP3    H241308   0.717   6.051   9.969 -0.7169 -0.2278 -1.8510
 5705TIP3   OH241309   1.743   5.528   9.753 -0.1360  0.4729  0.0028
 5705TIP3    H141310   1.836   5.509   9.767  0.1317  1.6309 -0.0993
 5705TIP3    H241311   1.738   5.556   9.661 -0.4845  0.9974  0.1781
 5706TIP3   OH241312   0.457   3.189   9.178 -0.1298 -0.1845 -0.1160
 5706TIP3    H141313   0.405   3.110   9.193 -0.4747  0.3351  1.7077
 5706TIP3    H241314   0.468   3.227   9.265  0.1278  1.7296 -0.9328
 5707TIP3   OH241315   5.373   3.700   9.776 -0.5020 -0.2782  0.0194
 5707TIP3    H141316   5.335   3.703   9.864 -1.3648  2.7470 -0.3350
 5707TIP3    H241317   5.299   3.716   9.718  0.6555  2.0549 -0.9379
 5708TIP3   OH241318   2.221   6.155  10.867 -0.6092  0.2726 -0.2194
 5708TIP3    H141319   2.244   6.235  10.819  2.0731  1.0076  2.0839
 5708TIP3    H241320   2.150   6.182  10.925 -2.1687 -0.0151 -1.8830
 5709TIP3   OH241321   1.176   1.767  11.097 -0.0593  0.6636 -0.6647
 5709TIP3    H141322   1.190   1.764  11.192  0.8982  1.4807 -0.7576
 5709TIP3    H241323   1.164   1.675  11.072 -0.3753  0.4448  0.2486
 5710TIP3   OH241324   2.738   1.020  10.079 -0.1987 -0.1539 -0.5282
 5710TIP3    H141325   2.753   1.115  10.072  0.5049 -0.3455 -2.3764
 5710TIP3    H241326   2.654   1.006  10.035 -1.3556 -0.1908  1.5785
 5711TIP3   OH241327   0.843   0.642  11.773 -0.3755  0.5370  0.2831
 5711TIP3    H141328   0.789   0.564  11.781 -1.1650  1.1816  1.6808
 5711TIP3    H241329   0.877   0.657  11.861 -0.9901  2.2605  0.2687
 5712TIP3   OH241330   0.793   1.073  10.486 -0.0491  0.4213 -0.2816
 5712TIP3    H141331   0.874   1.125  10.486 -0.5662  1.3115 -1.8025
 5712TIP3    H241332   0.798   1.021  10.565  1.2593  1.6435  0.4944
 5713TIP3   OH241333   4.763   6.652  10.121 -0.1321 -0.7845  0.1932
 5713TIP3    H141334   4.719   6.576  10.083  1.2015 -0.6215 -1.7788
 5713TIP3    H241335   4.785   6.707  10.047  0.4497  0.7389  1.4435
 5714TIP3   OH241336   6.080   2.402  10.797  0.5134  0.0706  0.4364
 5714TIP3    H141337   6.167   2.424  10.828  0.6284  0.7624 -0.3539
 5714TIP3    H241338   6.094   2.333  10.732  0.3283 -0.9141  1.4126
 5715TIP3   OH241339   3.121   4.263  10.870 -0.0891 -0.0624 -0.0690
 5715TIP3    H141340   3.205   4.258  10.824  0.5595  0.3782  1.0363
 5715TIP3    H241341   3.075   4.336  10.829  0.8161  0.8467  0.4808
 5716TIP3   OH241342   5.916   1.306   9.103  0.1195 -0.3770 -0.0672
 5716TIP3    H141343   5.939   1.297   9.010 -1.0789 -1.6625 -0.2784
 5716TIP3    H241344   5.892   1.398   9.113 -0.4462 -0.3876 -1.2065
 5717TIP3   OH241345   1.571   5.371   9.878 -0.4322  0.0027  0.3164
 5717TIP3    H141346   1.636   5.428   9.837 -0.4694 -0.1056  0.1043
 5717TIP3    H241347   1.530   5.325   9.805 -1.9386  1.3043  0.2972
 5718TIP3   OH241348   1.788   1.661   9.536  0.1244 -0.0167  0.3236
 5718TIP3    H141349   1.721   1.659   9.468 -0.3486  0.5305  0.7723
 5718TIP3    H241350   1.866   1.693   9.491 -0.3658  1.0131  0.1873
 5719TIP3   OH241351   4.508   6.143  11.370  0.0969  0.3504 -0.0651
 5719TIP3    H141352   4.450   6.083  11.418  0.4342 -0.8265 -1.0791
 5719TIP3    H241353   4.591   6.137  11.416  0.0261  0.3339  0.0618
 5720TIP3   OH241354   1.229   5.635   9.266 -0.0705  0.0071 -0.0034
 5720TIP3    H141355   1.255   5.550   9.300  0.8896  0.7961  1.3549
 5720TIP3    H241356   1.312   5.678   9.243 -0.5062  0.7837 -0.1567
 5721TIP3   OH241357   4.186   4.094   9.511  0.1870  0.4334 -0.0976
 5721TIP3    H141358   4.242   4.171   9.521 -0.0510  0.5627  0.2459
 5721TIP3    H241359   4.180   4.057   9.599 -0.4772  0.5671 -0.0803
 5722TIP3   OH241360   6.098   6.572   9.542  0.2198 -0.1975 -0.0037
 5722TIP3    H141361   6.058   6.646   9.496  1.1700  0.0906 -0.3820
 5722TIP3    H241362   6.192   6.587   9.534  0.4132 -1.1381  0.4305
 5723TIP3   OH241363   5.123   5.555   9.091 -0.2261 -0.5675  0.0370
 5723TIP3    H141364   5.111   5.574   8.998  0.4371 -0.6527 -0.0692
 5723TIP3    H241365   5.214   5.577   9.108 -0.7775  1.1252  1.0757
 5724TIP3   OH241366   0.298   0.291  11.000  0.1451  0.5644 -0.0752
 5724TIP3    H141367   0.393   0.293  11.006  0.1889 -0.8199  0.0110
 5724TIP3    H241368   0.280   0.230  10.929 -0.6887  0.2225  0.4225
 5725TIP3   OH241369   4.588   0.848   9.742  0.0641  0.3178 -0.1487
 5725TIP3    H141370   4.616   0.938   9.756 -0.4735  0.4208  0.3055
 5725TIP3    H241371   4.578   0.812   9.830 -2.9863  0.8324 -0.1893
 5726TIP3   OH241372   1.418   3.960  11.171  0.3911 -0.3252 -0.5878
 5726TIP3    H141373   1.506   3.989  11.195  0.0964 -0.1381  0.3094
 5726TIP3    H241374   1.413   3.870  11.205 -1.2207  1.0633  3.3714
 5727TIP3   OH241375   1.927   4.555  12.237 -0.1829  0.2832 -0.7631
 5727TIP3    H141376   1.870   4.608  12.292  0.4568 -0.0850  0.2908
 5727TIP3    H241377   2.006   4.608  12.227  0.2204 -0.1993 -0.2093
 5728TIP3   OH241378   2.508   4.595  10.137 -0.1586 -0.3161  0.5682
 5728TIP3    H141379   2.464   4.517  10.172 -0.4684 -1.2237 -1.6863
 5728TIP3    H241380   2.442   4.663  10.141 -1.5247 -1.3997 -1.7856
 5729TIP3   OH241381   3.575   2.571  10.041  0.0212 -0.2218 -0.5855
 5729TIP3    H141382   3.597   2.496   9.985  1.0199  0.9685 -1.8404
 5729TIP3    H241383   3.501   2.613   9.996  0.9248  0.8268 -1.1335
 5730TIP3   OH241384   1.337   1.145  11.708  0.4086 -0.0802 -0.8659
 5730TIP3    H141385   1.381   1.191  11.636 -0.2147 -0.8341 -1.7574
 5730TIP3    H241386   1.277   1.085  11.664  0.1740 -0.7183  0.2965
 5731TIP3   OH241387   1.457   1.610   9.700 -0.3132 -0.0832  0.2348
 5731TIP3    H141388   1.428   1.679   9.760  1.1080  2.5794 -1.8789
 5731TIP3    H241389   1.550   1.599   9.721  0.1966  0.8757 -1.3739
 5732TIP3   OH241390   6.095   1.618  11.973  0.2596 -0.1038 -0.5537
 5732TIP3    H141391   6.035   1.645  12.043  1.2857 -0.5700  0.5459
 5732TIP3    H241392   6.120   1.700  11.931 -0.9438  0.1189 -0.8893
 5733TIP3   OH241393   1.435   1.235  11.414 -0.0554 -0.4134 -0.1229
 5733TIP3    H141394   1.412   1.150  11.376  1.7219 -0.9642 -0.0836
 5733TIP3    H241395   1.417   1.298  11.345  0.2585 -1.0485 -0.8046
 5734TIP3   OH241396   5.041   3.042   9.647 -0.2035  0.8093  0.5999
 5734TIP3    H141397   5.095   3.086   9.581 -3.3550  3.7225 -0.2798
 5734TIP3    H241398   5.061   3.089   9.728 -0.3002  0.8724  0.5868
 5735TIP3   OH241399   2.841   3.487  10.421  0.3458 -0.1360  0.3620
 5735TIP3    H141400   2.867   3.434  10.496  0.8946 -0.6867 -0.2058
 5735TIP3    H241401   2.900   3.460  10.351  0.4423  1.0158 -0.0239
 5736TIP3   OH241402   1.773   5.848   9.415  0.9646  0.3488  0.1121
 5736TIP3    H141403   1.770   5.752   9.419  3.4931  0.1541 -0.6092
 5736TIP3    H241404   1.790   5.875   9.505 -1.3215  0.3051  0.6263
 5737TIP3   OH241405   2.707   0.153  10.827  0.4840  0.1736 -0.0982
 5737TIP3    H141406   2.799   0.177  10.835  0.5419 -0.1907  0.4033
 5737TIP3    H241407   2.659   0.227  10.863  0.5593  0.5692 -0.8043
 5738TIP3   OH241408   2.863   5.592  10.628 -0.0034  0.4434 -0.0132
 5738TIP3    H141409   2.857   5.682  10.660 -1.3182  0.6821 -0.8528
 5738TIP3    H241410   2.786   5.581  10.572  0.4804 -0.9984 -0.4468
 5739TIP3   OH241411   3.917   3.473  11.678 -0.5097 -0.0848 -0.1043
 5739TIP3    H141412   3.920   3.518  11.763 -0.3990  1.2010 -0.7769
 5739TIP3    H241413   3.893   3.383  11.701  0.6483 -0.0651  1.3990
 5740TIP3   OH241414   5.392   5.184  11.224 -0.0486 -0.1788  0.1200
 5740TIP3    H141415   5.340   5.128  11.282 -1.6187  1.7518  0.6790
 5740TIP3    H241416   5.329   5.221  11.163  1.2074 -0.2274 -1.2740
 5741TIP3   OH241417   0.654   0.270  12.074 -0.6115  0.2792  0.4009
 5741TIP3    H141418   0.583   0.206  12.076  2.0472 -2.9542  1.2342
 5741TIP3    H241419   0.675   0.285  12.166 -0.0582  0.9982  0.1662
 5742TIP3   OH241420   0.862   3.051  11.059  0.1266  0.4073 -0.1241
 5742TIP3    H141421   0.896   3.091  11.139  0.4239  0.6840 -0.3892
 5742TIP3    H241422   0.897   2.962  11.060  1.2024  0.8130 -0.6021
 5743TIP3   OH241423   3.351   1.355  19.135  0.3093  0.1605 -0.2207
 5743TIP3    H141424   3.297   1.390  19.206 -0.0307  0.6865 -0.7299
 5743TIP3    H241425   3.439   1.350  19.173  0.1412  0.4761  0.2256
 5744TIP3   OH241426   2.145   4.874   9.018  0.1044 -0.3448 -0.4106
 5744TIP3    H141427   2.127   4.919   8.935  1.2112  0.4845 -0.2196
 5744TIP3    H241428   2.240   4.873   9.025  0.0490 -1.1132  0.4857
 5745TIP3   OH241429   2.939   2.246  10.400 -0.2286 -0.2984  0.4110
 5745TIP3    H141430   2.955   2.152  10.393  0.4103 -0.1409 -0.5019
 5745TIP3    H241431   2.953   2.266  10.492  0.1944 -1.0058  0.5117
 5746TIP3   OH241432   1.004   0.714  10.261  0.7583  0.0540 -0.0580
 5746TIP3    H141433   1.001   0.672  10.348 -2.5036  0.3937  0.1001
 5746TIP3    H241434   1.079   0.773  10.266  0.9856 -0.3203  2.3575
 5747TIP3   OH241435   3.088   1.827  10.091 -0.3742  0.0502  0.1555
 5747TIP3    H141436   3.088   1.921  10.111 -2.6708  0.1942 -0.2543
 5747TIP3    H241437   3.121   1.786  10.171  0.0391  1.1799  0.5839
 5748TIP3   OH241438   1.980   4.499   9.804  0.0390  0.6168  0.2353
 5748TIP3    H141439   2.037   4.443   9.750 -0.7576 -0.4450  0.4715
 5748TIP3    H241440   1.900   4.508   9.753  0.6373  2.7614 -0.4590
 5749TIP3   OH241441   3.909   2.871  11.862  0.3269  0.1655 -0.1308
 5749TIP3    H141442   3.927   2.778  11.873 -0.1498  0.1921  1.0312
 5749TIP3    H241443   3.964   2.915  11.927 -0.3018  0.6002  0.1226
 5750TIP3   OH241444   4.595   5.312  11.269 -0.0903  0.1995 -0.0746
 5750TIP3    H141445   4.676   5.270  11.295  0.1303  0.8323  0.2714
 5750TIP3    H241446   4.620   5.401  11.246 -0.8962  0.8652  1.4603
 5751TIP3   OH241447   5.397   1.837  10.167  0.2584 -0.5451  0.2185
 5751TIP3    H141448   5.434   1.754  10.194  0.6132  0.4498  3.1131
 5751TIP3    H241449   5.472   1.896  10.160 -0.2274  0.1809  0.8998
 5752TIP3   OH241450   4.775   3.382   9.556 -0.7910  0.0716  0.1240
 5752TIP3    H141451   4.740   3.353   9.472 -1.3957  0.0404  0.3805
 5752TIP3    H241452   4.749   3.474   9.562 -2.0246 -0.3057  0.9164
 5753TIP3   OH241453   1.084   0.410   9.421 -0.5025  0.5688 -0.4106
 5753TIP3    H141454   1.099   0.320   9.394  1.4219  0.4066  1.0377
 5753TIP3    H241455   0.992   0.426   9.400 -0.8297 -1.6492 -0.8752
 5754TIP3   OH241456   2.038   0.511  12.350  0.0344  0.0491 -0.3241
 5754TIP3    H141457   2.030   0.469  12.435 -3.9259  0.2224 -0.3988
 5754TIP3    H241458   1.984   0.590  12.357 -0.4331  0.0573 -2.9722
 5755TIP3   OH241459   5.415   1.317   9.423 -0.1512  0.1193  0.5827
 5755TIP3    H141460   5.417   1.387   9.488 -1.4774 -0.3669  1.1775
 5755TIP3    H241461   5.459   1.355   9.346 -1.1543  1.7497  0.7536
 5756TIP3   OH241462   4.703   6.422  11.625 -0.4003 -0.0589 -0.0800
 5756TIP3    H141463   4.776   6.413  11.687  0.8173  0.1449 -1.4241
 5756TIP3    H241464   4.719   6.354  11.559 -0.6306  0.8964 -1.1535
 5757TIP3   OH241465   2.468   6.030  10.948  0.5779  0.3118 -0.0801
 5757TIP3    H141466   2.482   5.986  10.863 -2.6577 -1.0270 -0.0483
 5757TIP3    H241467   2.398   6.093  10.931 -0.6959 -0.5550  1.7304
 5758TIP3   OH241468   1.418   0.936   9.584 -0.3606 -0.0215  0.1791
 5758TIP3    H141469   1.336   0.902   9.548 -0.8851  0.8309  0.5661
 5758TIP3    H241470   1.406   0.934   9.679  0.8059 -1.7186  0.3581
 5759TIP3   OH241471   5.358   1.926  10.920 -0.0013 -0.3114 -0.2077
 5759TIP3    H141472   5.368   1.860  10.851 -1.6713 -0.4190 -0.3866
 5759TIP3    H241473   5.290   1.890  10.978  0.2793  0.4858  0.6343
 5760TIP3   OH241474   3.361   5.932   8.532  0.2607  0.0820  0.1051
 5760TIP3    H141475   3.350   5.980   8.450 -1.5480  0.0379  0.2709
 5760TIP3    H241476   3.281   5.951   8.582  1.0120 -0.4427  1.5767
 5761TIP3   OH241477   5.707   3.790  11.282  0.1711 -0.4762 -0.0609
 5761TIP3    H141478   5.751   3.860  11.235  0.6876 -1.1942 -0.6709
 5761TIP3    H241479   5.673   3.732  11.214 -0.0615 -0.9276  0.4288
 5762TIP3   OH241480   2.027   6.175  11.035 -0.4641  0.4336  0.1831
 5762TIP3    H141481   2.070   6.121  11.101 -0.1012  0.6417  0.1170
 5762TIP3    H241482   2.017   6.261  11.076 -0.4950  0.4838  0.0709
 5763TIP3   OH241483   0.317   0.547  12.145  0.6711  0.0721  0.2180
 5763TIP3    H141484   0.278   0.473  12.190 -0.4685  0.1161 -0.6329
 5763TIP3    H241485   0.328   0.614  12.212  1.0624 -0.6243  0.8506
 5764TIP3   OH241486   3.691   1.991  11.007 -0.1168  0.3461  0.4349
 5764TIP3    H141487   3.644   1.952  10.933 -0.6554  0.2997  0.7966
 5764TIP3    H241488   3.673   2.085  11.001  1.2434  0.5819 -0.4820
 5765TIP3   OH241489   5.808   0.103  11.941  0.3013 -0.2169 -0.1783
 5765TIP3    H141490   5.780   0.193  11.927  0.9697  0.4037  2.0802
 5765TIP3    H241491   5.771   0.079  12.026  3.2219 -0.7183  1.0807
 5766TIP3   OH241492   0.308   6.649   9.878  0.1118 -0.3539  0.0470
 5766TIP3    H141493   0.230   6.599   9.850 -0.9434  0.6148  1.1351
 5766TIP3    H241494   0.381   6.589   9.862 -0.6994 -0.9086 -2.0351
 5767TIP3   OH241495   0.711   3.533  12.319 -0.5328  0.5202 -0.0200
 5767TIP3    H141496   0.669   3.532  12.234  0.1587  2.5747 -0.4431
 5767TIP3    H241497   0.802   3.557  12.301  0.1898 -1.1496  1.1194
 5768TIP3   OH241498   0.214   2.694   9.931  0.3453 -0.4532  0.1075
 5768TIP3    H141499   0.253   2.750   9.864  0.1967 -1.4019 -0.8037
 5768TIP3    H241500   0.226   2.742  10.013  3.1319 -0.5329 -0.1433
 5769TIP3   OH241501   2.880   4.856   9.095  0.2648  0.3985 -0.6955
 5769TIP3    H141502   2.851   4.766   9.085  1.2944  0.0479 -0.6526
 5769TIP3    H241503   2.871   4.875   9.188  0.4316  0.2015 -0.6389
 5770TIP3   OH241504   1.609   1.307  11.086 -0.1247 -0.1540 -0.2975
 5770TIP3    H141505   1.650   1.254  11.155  0.5293  1.2938  0.4835
 5770TIP3    H241506   1.683   1.354  11.046 -0.5645 -0.5932 -1.6595
 5771TIP3   OH241507   4.417   5.190  11.069  0.2257 -0.0783 -0.1546
 5771TIP3    H141508   4.464   5.227  11.144  1.8385 -1.6582 -0.3093
 5771TIP3    H241509   4.367   5.118  11.105 -0.6328  0.4239 -0.3059
 5772TIP3   OH241510   6.585   3.876  11.330 -0.4724 -0.0173 -0.0561
 5772TIP3    H141511   6.509   3.908  11.379  0.2873  1.0477  0.4594
 5772TIP3    H241512   6.659   3.886  11.391 -0.1131 -2.4296  0.0027
 5773TIP3   OH241513   0.284   3.860  11.742 -0.4327  0.1934 -0.7128
 5773TIP3    H141514   0.271   3.776  11.786 -0.5514  0.5588 -0.0402
 5773TIP3    H241515   0.251   3.925  11.804 -1.4837  0.6608 -1.7232
 5774TIP3   OH241516   1.422   4.651  12.560  0.2739  0.0094 -0.0847
 5774TIP3    H141517   1.350   4.645  12.496  0.8128  0.0006 -0.7057
 5774TIP3    H241518   1.423   4.566  12.604 -0.0256 -0.0318 -0.1554
 5775TIP3   OH241519   1.293   1.929  11.710  0.3312  0.1451 -0.0461
 5775TIP3    H141520   1.214   1.877  11.698  0.1324  0.2311  0.8175
 5775TIP3    H241521   1.363   1.877  11.671  0.0135 -0.4108  0.1227
 5776TIP3   OH241522   0.726   0.439   9.734  0.5447  0.1138 -0.6567
 5776TIP3    H141523   0.743   0.374   9.665 -3.5545 -2.8189  0.6878
 5776TIP3    H241524   0.781   0.411   9.807  0.0613 -0.8734 -0.6559
 5777TIP3   OH241525   0.301   4.539  10.194  0.1919  0.3174  0.6734
 5777TIP3    H141526   0.355   4.461  10.180  0.6427  0.9457 -1.5393
 5777TIP3    H241527   0.364   4.611  10.197 -0.3185  0.7484  1.4428
 5778TIP3   OH241528   6.446   1.439  12.308 -0.2484  0.2810  0.5433
 5778TIP3    H141529   6.383   1.388  12.257 -0.1232 -0.7924  1.4075
 5778TIP3    H241530   6.402   1.452  12.393  0.5691 -0.2557  1.0615
 5779TIP3   OH241531   0.520   6.201  10.976 -0.1933 -0.1273  0.4403
 5779TIP3    H141532   0.595   6.148  11.004  0.7188  0.2439 -1.2002
 5779TIP3    H241533   0.445   6.162  11.021  0.7166 -1.6501  0.6981
 5780TIP3   OH241534   4.497   4.429  10.900 -0.2316  0.1944  0.2148
 5780TIP3    H141535   4.535   4.438  10.812 -0.3732  1.0892  0.2302
 5780TIP3    H241536   4.572   4.408  10.956  0.5429  3.0578  0.4359
 5781TIP3   OH241537   5.273   2.834  10.804  0.4220  0.4569  0.0327
 5781TIP3    H141538   5.352   2.880  10.830  1.8958 -2.0515  0.3223
 5781TIP3    H241539   5.265   2.849  10.710  0.5746  1.6342  0.1950
 5782TIP3   OH241540   2.538   5.933  10.262 -0.3611 -0.1584 -0.1244
 5782TIP3    H141541   2.619   5.923  10.313  0.4916  1.1721 -1.1569
 5782TIP3    H241542   2.568   5.941  10.172 -1.6515  0.4771 -0.5191
 5783TIP3   OH241543   4.040   4.267  10.497  0.4662  0.3630  0.2504
 5783TIP3    H141544   4.044   4.257  10.402  1.4188  2.3628  0.0420
 5783TIP3    H241545   4.129   4.249  10.527  0.1107 -0.5085  0.8094
 5784TIP3   OH241546   5.035   6.678  10.223 -0.1001 -0.1530 -0.6139
 5784TIP3    H141547   4.943   6.682  10.195  0.1546 -0.3510 -1.5225
 5784TIP3    H241548   5.084   6.703  10.145  0.6123  0.1943 -0.0594
 5785TIP3   OH241549   1.888   0.389  11.560 -0.3915  0.6120 -0.2243
 5785TIP3    H141550   1.930   0.406  11.476  1.5483 -0.1589  0.5050
 5785TIP3    H241551   1.834   0.466  11.577  1.4734  2.1365 -0.8449
 5786TIP3   OH241552   1.783   3.993  10.229 -0.0213 -0.4049  0.1948
 5786TIP3    H141553   1.836   4.072  10.227 -0.3593 -0.1802  0.0369
 5786TIP3    H241554   1.800   3.954  10.314 -0.3379  0.1695  0.5254
 5787TIP3   OH241555   0.414   1.286  11.381  0.1951 -0.3412 -0.0441
 5787TIP3    H141556   0.324   1.263  11.405 -1.2124  2.5761 -1.8623
 5787TIP3    H241557   0.430   1.240  11.299 -1.1592  1.8405 -1.6547
 5788TIP3   OH241558   6.286   6.325  12.352  0.0098 -0.1095 -0.0812
 5788TIP3    H141559   6.207   6.349  12.304  0.7385 -0.2482 -1.3879
 5788TIP3    H241560   6.353   6.385  12.320  1.1296 -1.8332 -1.1610
 5789TIP3   OH241561   5.085   2.111  10.494 -0.1710  0.0841 -0.4956
 5789TIP3    H141562   5.090   2.114  10.398  1.0618  1.2683 -0.4291
 5789TIP3    H241563   5.050   2.197  10.519  0.6817  0.2615  0.1438
 5790TIP3   OH241564   1.130   6.459   9.267  0.9156 -0.2630  0.6168
 5790TIP3    H141565   1.220   6.454   9.236  1.3005 -0.1956  1.6777
 5790TIP3    H241566   1.135   6.511   9.348 -0.2398  0.7356  0.0820
 5791TIP3   OH241567   1.207   0.469  10.569  0.2808 -0.3228  0.0797
 5791TIP3    H141568   1.243   0.414  10.638 -1.2169 -0.6240  0.6553
 5791TIP3    H241569   1.280   0.525  10.542  0.8575 -0.0752  2.0284
 5792TIP3   OH241570   6.075   4.593   9.203  0.7769  0.0696 -0.4068
 5792TIP3    H141571   6.012   4.645   9.152 -0.4700 -2.4915 -1.6660
 5792TIP3    H241572   6.074   4.507   9.161 -0.3550 -2.3142  3.9355
 5793TIP3   OH241573   0.462   3.217  10.424  0.0409 -0.0072  0.4480
 5793TIP3    H141574   0.530   3.285  10.422  0.7471 -0.6984  0.2224
 5793TIP3    H241575   0.430   3.213  10.334 -0.3652  0.3738  0.5713
 5794TIP3   OH241576   4.836   0.376  10.108 -0.0843 -0.4457 -0.6365
 5794TIP3    H141577   4.849   0.378  10.013  0.5204  0.5341 -0.5526
 5794TIP3    H241578   4.801   0.462  10.128  1.6643  0.1070  0.2599
 5795TIP3   OH241579   1.898   1.059   9.910  0.3504 -0.0438  0.1258
 5795TIP3    H141580   1.821   1.033   9.859 -0.6532  1.6377  0.6668
 5795TIP3    H241581   1.954   1.104   9.847  0.3678 -0.3021 -0.0441
 5796TIP3   OH241582   2.238   2.899   8.818  0.8020 -0.4013  0.3721
 5796TIP3    H141583   2.292   2.835   8.865  1.1436 -0.2313  0.2130
 5796TIP3    H241584   2.149   2.865   8.826  1.0713 -1.3662 -0.4536
 5797TIP3   OH241585   0.346   1.089   9.796  0.6072 -0.4669 -0.3896
 5797TIP3    H141586   0.389   1.070   9.713 -0.0533  0.7546 -1.0286
 5797TIP3    H241587   0.265   1.133   9.772 -0.5202 -1.7660  0.8387
 5798TIP3   OH241588   5.606   6.573   9.086 -0.2342 -0.0102  0.3116
 5798TIP3    H141589   5.548   6.562   9.011 -1.0166 -0.5012  0.9689
 5798TIP3    H241590   5.647   6.658   9.073 -2.1537  0.9957  0.5379
 5799TIP3   OH241591   1.608   1.567  10.638  0.1815  0.0208  0.2454
 5799TIP3    H141592   1.695   1.547  10.605  0.8426  1.4048  1.1094
 5799TIP3    H241593   1.568   1.622  10.570 -0.5776 -1.6966 -0.7870
 5800TIP3   OH241594   4.213   4.194  11.417 -0.6135  0.1705  0.1765
 5800TIP3    H141595   4.176   4.107  11.405 -1.1475  0.0798  2.0794
 5800TIP3    H241596   4.240   4.222  11.329  0.4137 -2.2557 -0.3529
 5801TIP3   OH241597   2.449   5.270   9.540 -0.0887 -0.0212 -0.1893
 5801TIP3    H141598   2.388   5.335   9.504  0.8680  0.8541 -0.2757
 5801TIP3    H241599   2.425   5.262   9.632 -0.0888  0.6130 -0.1307
 5802TIP3   OH241600   2.686   3.682   9.272  0.2949 -0.1154  0.0346
 5802TIP3    H141601   2.761   3.734   9.299  1.0300 -0.7608 -0.6825
 5802TIP3    H241602   2.714   3.640   9.191 -0.7633 -0.5559 -0.1273
 5803TIP3   OH241603   3.013   1.846  11.022  0.1318 -0.2835 -0.0436
 5803TIP3    H141604   3.010   1.798  10.939  3.0466 -1.2992  0.3349
 5803TIP3    H241605   3.094   1.898  11.017 -2.0026  3.4573  0.2819
 5804TIP3   OH241606   6.250   3.847   9.164 -0.2883  0.2127  0.2855
 5804TIP3    H141607   6.254   3.764   9.212 -0.4328 -0.5167 -0.9320
 5804TIP3    H241608   6.239   3.821   9.073  0.5849  1.5601 -0.2247
 5805TIP3   OH241609   5.377   1.841  11.409  0.2142  0.4470  0.3744
 5805TIP3    H141610   5.343   1.864  11.496 -0.6300  2.8964 -0.4979
 5805TIP3    H241611   5.309   1.784  11.372 -0.1929  0.6692  0.7573
 5806TIP3   OH241612   5.509   1.945  11.175  0.5077 -0.0429  0.1955
 5806TIP3    H141613   5.466   1.926  11.258  0.9092 -0.7918  0.2365
 5806TIP3    H241614   5.440   1.985  11.121  0.1652  0.1637  0.7782
 5807TIP3   OH241615   5.666   1.380  11.864 -0.0150  0.8791 -0.1607
 5807TIP3    H141616   5.731   1.341  11.807 -0.1428  0.5513 -0.0846
 5807TIP3    H241617   5.609   1.307  11.890  0.0287  1.0218  0.3643
 5808TIP3   OH241618   1.729   3.190  12.545 -0.4675  0.4095  0.1874
 5808TIP3    H141619   1.795   3.177  12.613 -0.3858  0.9748  0.2207
 5808TIP3    H241620   1.662   3.123  12.563  1.1571 -1.7460 -1.2177
 5809TIP3   OH241621   3.084   0.232  10.431 -0.0842  0.7382 -0.1273
 5809TIP3    H141622   3.080   0.176  10.353  1.4008  0.0052  0.2826
 5809TIP3    H241623   3.169   0.276  10.425 -0.3289  1.3345  0.6363
 5810TIP3   OH241624   5.378   0.879   9.729  0.3666 -0.6851  0.0393
 5810TIP3    H141625   5.392   0.801   9.676 -1.0543 -0.0752 -1.3053
 5810TIP3    H241626   5.305   0.857   9.786 -2.0151  0.4948 -2.3306
 5811TIP3   OH241627   6.637   0.156  11.204 -0.0064  0.5515 -0.6337
 5811TIP3    H141628   6.667   0.082  11.257 -1.0922 -1.3177 -2.4534
 5811TIP3    H241629   6.563   0.193  11.252 -0.5507 -0.6834 -0.4890
 5812TIP3   OH241630   4.144   0.853  10.403 -0.0180  0.6188 -0.5671
 5812TIP3    H141631   4.164   0.946  10.412 -1.0149  0.6622  1.8890
 5812TIP3    H241632   4.051   0.847  10.426  0.0893 -1.0216 -0.4902
 5813TIP3   OH241633   3.750   2.363  10.564  0.2483 -0.7924 -0.2888
 5813TIP3    H141634   3.841   2.394  10.562 -0.1710  0.4703 -0.8022
 5813TIP3    H241635   3.699   2.438  10.534 -1.0191 -1.3056  0.5128
 5814TIP3   OH241636   1.250   0.657   9.842  0.4819 -0.4069  0.0484
 5814TIP3    H141637   1.342   0.632   9.853  0.1441 -1.4603  0.5775
 5814TIP3    H241638   1.240   0.668   9.747  1.2782  0.2550  0.0284
 5815TIP3   OH241639   2.530   0.581  10.385 -0.4118 -0.1510  0.5778
 5815TIP3    H141640   2.555   0.493  10.413 -1.2430 -0.0295  1.7663
 5815TIP3    H241641   2.589   0.639  10.433 -0.0180 -0.0382 -0.0283
 5816TIP3   OH241642   5.860   4.884  12.002  1.4117  0.1206  0.0787
 5816TIP3    H141643   5.903   4.799  11.988  0.4978 -0.1841 -0.9633
 5816TIP3    H241644   5.809   4.871  12.082  0.4376 -0.6806 -0.6387
 5817TIP3   OH241645   4.876   4.166   9.883 -0.1422  0.6996 -0.2586
 5817TIP3    H141646   4.909   4.107   9.816 -4.0153 -0.0375 -1.7990
 5817TIP3    H241647   4.934   4.242   9.879  2.9004 -1.4626 -0.6496
 5818TIP3   OH241648   0.334   1.528  10.195  0.6431 -0.1723  0.0190
 5818TIP3    H141649   0.404   1.464  10.184 -0.6472 -2.0044  1.7149
 5818TIP3    H241650   0.372   1.596  10.250  1.1234 -1.1122  0.8829
 5819TIP3   OH241651   3.485   1.302  11.189  0.0416  0.3909  0.3111
 5819TIP3    H141652   3.560   1.273  11.136 -1.1740  0.6951 -1.6714
 5819TIP3    H241653   3.416   1.318  11.125 -1.8607 -0.2595  2.1236
 5820TIP3   OH241654   4.668   2.863   8.833  0.3973  0.0561  0.2646
 5820TIP3    H141655   4.708   2.786   8.794 -0.0869 -0.7871  1.3891
 5820TIP3    H241656   4.687   2.856   8.926  0.5311  1.4155  0.3548
 5821TIP3   OH241657   0.072   0.311  11.486  0.1660 -0.5558 -0.1095
 5821TIP3    H141658   0.098   0.325  11.395 -2.7605  1.5703 -0.7705
 5821TIP3    H241659  -0.017   0.278  11.481  0.1158 -0.8493  1.9866
 5822TIP3   OH241660   3.198   2.032  12.159 -0.2115  0.2686 -0.3227
 5822TIP3    H141661   3.154   2.115  12.178  1.1814  0.2603  4.2052
 5822TIP3    H241662   3.289   2.046  12.187  0.5623 -2.1978 -1.3295
 5823TIP3   OH241663   0.183   3.995   9.335 -0.1276  0.4231  0.0075
 5823TIP3    H141664   0.171   3.906   9.300 -2.4837  0.1028  1.4641
 5823TIP3    H241665   0.113   4.046   9.296  0.7671  1.5186 -0.2305
 5824TIP3   OH241666   1.583   0.160   9.072 -0.3352  0.6715  0.8759
 5824TIP3    H141667   1.609   0.251   9.053  0.3553  0.1344 -1.0520
 5824TIP3    H241668   1.665   0.111   9.069 -0.5163  0.1165  3.2261
 5825TIP3   OH241669   3.153   0.567  11.035 -0.0508  0.4819  0.2741
 5825TIP3    H141670   3.107   0.520  11.105 -0.5622  0.8940  0.2213
 5825TIP3    H241671   3.190   0.497  10.981  0.4228  0.1615  0.9992
 5826TIP3   OH241672   4.057   3.973  11.830  0.4367 -0.3278 -0.8581
 5826TIP3    H141673   4.114   3.947  11.903 -0.8091  0.4813  0.4588
 5826TIP3    H241674   4.002   3.897  11.814 -0.7130  0.1740  0.5118
 5827TIP3   OH241675   4.187   1.116   9.645 -0.1590 -0.8079 -0.3952
 5827TIP3    H141676   4.117   1.121   9.581  0.4863 -1.3345 -1.1613
 5827TIP3    H241677   4.267   1.117   9.593  0.3532 -2.0918  0.3337
 5828TIP3   OH241678   4.189   3.462   9.146 -0.7033  0.3939  0.2219
 5828TIP3    H141679   4.264   3.405   9.157  0.0080  1.0067 -1.2272
 5828TIP3    H241680   4.226   3.550   9.140 -1.2783  0.5468 -2.4396
 5829TIP3   OH241681   1.061   6.695  11.196 -0.0463 -0.4439 -0.0906
 5829TIP3    H141682   1.140   6.643  11.181  1.1474  1.2006  0.1843
 5829TIP3    H241683   1.080   6.743  11.277 -2.3947 -1.8904  1.4199
 5830TIP3   OH241684   2.514   4.440  10.960 -0.2812  0.5517  0.6211
 5830TIP3    H141685   2.547   4.461  11.047  1.0390  0.8514  0.0686
 5830TIP3    H241686   2.582   4.387  10.920 -0.0234  1.9068 -0.8746
 5831TIP3   OH241687   6.077   1.863  11.483 -0.3920 -0.6946  0.0204
 5831TIP3    H141688   6.018   1.937  11.496 -1.9400 -1.8123 -0.3285
 5831TIP3    H241689   6.163   1.895  11.512 -1.2197  0.8816  0.8519
 5832TIP3   OH241690   2.144   4.782   8.609  0.2800 -0.4730  0.2787
 5832TIP3    H141691   2.172   4.841   8.679  0.3753 -0.8669  0.5813
 5832TIP3    H241692   2.223   4.767   8.558  0.0435  0.3969 -0.3535
 5833TIP3   OH241693   2.489   3.736   9.861 -0.0692  0.2947 -0.1265
 5833TIP3    H141694   2.508   3.643   9.858 -2.1620 -0.1462 -1.7641
 5833TIP3    H241695   2.394   3.742   9.862 -0.0734  2.4049  2.8009
 5834TIP3   OH241696   5.816   3.516  10.247 -0.0025 -0.1349 -0.2474
 5834TIP3    H141697   5.754   3.444  10.257  0.6272 -0.6326  0.0996
 5834TIP3    H241698   5.882   3.483  10.187  0.9807 -0.3340  0.8919
 5835TIP3   OH241699   2.606   4.043  11.651  0.6392  0.1779 -0.0536
 5835TIP3    H141700   2.631   4.125  11.692  0.0094  0.5045 -0.3015
 5835TIP3    H241701   2.605   4.062  11.557 -1.3849  0.4638 -0.0199
 5836TIP3   OH241702   4.979   1.701  11.889 -0.0922  0.0706 -0.0266
 5836TIP3    H141703   4.971   1.664  11.976 -0.2653  1.9034  0.7748
 5836TIP3    H241704   5.047   1.768  11.897  2.1675 -1.8079 -2.0597
 5837TIP3   OH241705   0.221   2.345  11.679  0.2141  0.0735  0.4929
 5837TIP3    H141706   0.196   2.347  11.772  1.4258 -0.0035  0.8394
 5837TIP3    H241707   0.295   2.406  11.673  1.7999 -1.7830  0.1141
 5838TIP3   OH241708   3.223   2.095   8.765  0.3444  0.1079 -0.0124
 5838TIP3    H141709   3.247   2.008   8.798 -0.4283  0.0290  0.3626
 5838TIP3    H241710   3.168   2.132   8.834  0.8181  0.9713 -0.0913
 5839TIP3   OH241711   6.199   3.349   8.592  0.1281  0.2555 -0.0063
 5839TIP3    H141712   6.181   3.423   8.650 -0.5536 -0.8206  1.1968
 5839TIP3    H241713   6.123   3.346   8.534  0.1715  0.5038 -0.0784
 5840TIP3   OH241714   4.175   3.730  10.288  0.3443 -0.1284  0.0612
 5840TIP3    H141715   4.182   3.823  10.265 -0.7656  0.0974  0.5460
 5840TIP3    H241716   4.085   3.720  10.319  0.2165 -1.5332 -0.6804
 5841TIP3   OH241717   5.894   0.928   9.981 -0.2076 -0.3742 -0.0707
 5841TIP3    H141718   5.933   0.841   9.992  1.5210  0.3534 -0.0144
 5841TIP3    H241719   5.914   0.952   9.891 -1.1259 -0.2294 -0.2435
 5842TIP3   OH241720   1.658   0.077  11.442 -0.1861  0.2914  0.1925
 5842TIP3    H141721   1.719   0.151  11.446  0.6317 -0.3783  0.5087
 5842TIP3    H241722   1.581   0.112  11.398 -0.2756  1.6395  1.3501
 5843TIP3   OH241723   2.894   1.576   8.837  0.6479  0.0806 -0.3906
 5843TIP3    H141724   2.805   1.561   8.869  1.2082 -0.9540  0.7630
 5843TIP3    H241725   2.918   1.494   8.794  1.3636  0.0224  0.1046
 5844TIP3   OH241726   1.027   0.405   9.154 -0.2635  0.2122  0.1381
 5844TIP3    H141727   0.937   0.376   9.168 -0.7288  1.4488 -0.1157
 5844TIP3    H241728   1.079   0.352   9.214 -0.7627 -2.4857 -1.6540
 5845TIP3   OH241729   5.407   2.292  11.231  0.3749 -0.3797 -0.5886
 5845TIP3    H141730   5.331   2.238  11.210  0.8277 -1.2234 -0.0963
 5845TIP3    H241731   5.470   2.271  11.163  0.0181  0.6709 -1.2699
 5846TIP3   OH241732   2.988   2.594  10.181  0.1971  0.2144  0.1039
 5846TIP3    H141733   3.083   2.597  10.195  0.4105 -1.5033 -0.6756
 5846TIP3    H241734   2.976   2.631  10.093  0.0776  0.8785  0.3945
 5847TIP3   OH241735   2.075   4.424  11.273  0.3179 -0.2304  0.0647
 5847TIP3    H141736   2.163   4.462  11.273  0.0281  0.5383  1.7771
 5847TIP3    H241737   2.042   4.440  11.362 -1.5683 -0.4780 -0.5446
 5848TIP3   OH241738   0.512   0.376  11.521 -0.4080  0.5901 -0.0015
 5848TIP3    H141739   0.425   0.393  11.485 -1.0539 -1.0596  0.7262
 5848TIP3    H241740   0.568   0.441  11.477 -1.7881  0.9739 -1.2992
 5849TIP3   OH241741   0.430   3.572  10.273 -0.2664 -0.1598 -0.4142
 5849TIP3    H141742   0.488   3.580  10.197  0.1432  1.9658  0.0607
 5849TIP3    H241743   0.345   3.552  10.235  0.1764 -0.3691 -1.3406
 5850TIP3   OH241744   6.296   3.380  10.366 -0.4875  0.2764 -0.4272
 5850TIP3    H141745   6.336   3.380  10.279  0.1382 -0.5578 -0.1618
 5850TIP3    H241746   6.278   3.287  10.383  0.6758  0.2557  0.8765
 5851TIP3   OH241747   1.833   4.548  11.982  0.6428 -0.5411  0.2460
 5851TIP3    H141748   1.895   4.607  11.939 -0.3086 -0.5301 -1.1958
 5851TIP3    H241749   1.876   4.523  12.064  2.5182 -0.5007 -0.6703
 5852TIP3   OH241750   5.552   5.413   9.942 -0.0044 -0.0438 -0.7142
 5852TIP3    H141751   5.604   5.440   9.866  0.0925  1.0054 -0.2835
 5852TIP3    H241752   5.491   5.485   9.957  0.8052  0.3343  0.9526
 5853TIP3   OH241753   4.585   1.781  11.337 -0.8106 -0.3443 -0.0195
 5853TIP3    H141754   4.520   1.843  11.369  0.1920  0.4870  0.4689
 5853TIP3    H241755   4.668   1.829  11.340 -0.1761 -1.3520 -0.6843
 5854TIP3   OH241756   1.062   1.157  10.524 -0.0061 -0.5942 -0.0129
 5854TIP3    H141757   1.076   1.214  10.599  0.9668  0.2801 -0.8228
 5854TIP3    H241758   1.107   1.076  10.545 -0.3094 -0.6008  0.6198
 5855TIP3   OH241759   0.585   3.522  10.041 -0.2648 -0.3878 -0.5837
 5855TIP3    H141760   0.575   3.428  10.031  0.9548 -0.5330 -0.6801
 5855TIP3    H241761   0.680   3.537  10.034 -0.4892  0.9121 -1.1551
 5856TIP3   OH241762   6.498   1.884  10.895  0.5510  0.3895 -0.0895
 5856TIP3    H141763   6.426   1.830  10.864  1.4177 -2.5260  2.5066
 5856TIP3    H241764   6.491   1.965  10.844 -3.4760 -0.4009 -1.1275
 5857TIP3   OH241765   6.416   2.137  10.543 -0.5174 -0.2718 -0.1999
 5857TIP3    H141766   6.453   2.172  10.462  0.2798 -1.0231 -0.1857
 5857TIP3    H241767   6.415   2.042  10.529  1.7149 -0.6150  1.4747
 5858TIP3   OH241768   0.454   1.662  10.936 -0.2976 -0.8886  0.1231
 5858TIP3    H141769   0.390   1.606  10.980 -0.5393 -1.1997 -0.6224
 5858TIP3    H241770   0.483   1.724  11.004 -3.3463  1.0287 -0.1370
 5859TIP3   OH241771   6.100   0.879   8.917 -0.1896  0.2282  0.2017
 5859TIP3    H141772   6.127   0.969   8.896 -1.0405  0.5196  0.3197
 5859TIP3    H241773   6.183   0.833   8.934  0.2277  1.1541  0.8011
 5860TIP3   OH241774   3.530   3.373  11.189  0.1684  0.3779 -0.3187
 5860TIP3    H141775   3.550   3.360  11.096  0.8271  1.9888 -0.4328
 5860TIP3    H241776   3.481   3.455  11.192 -0.3989  0.0146  0.7053
 5861TIP3   OH241777   3.784   6.142  10.822  0.3590 -0.3999 -0.4507
 5861TIP3    H141778   3.773   6.049  10.842  1.4713 -0.4528 -0.0240
 5861TIP3    H241779   3.845   6.144  10.749  0.1515 -0.0068 -0.6197
 5862TIP3   OH241780   2.870   5.543   9.106 -0.0382 -0.0804 -0.1123
 5862TIP3    H141781   2.946   5.598   9.088  0.2253 -0.6006 -0.6561
 5862TIP3    H241782   2.806   5.602   9.146 -0.1151  0.8338 -1.5146
 5863TIP3   OH241783   2.895   1.886   9.295 -0.6658  0.0021 -0.1482
 5863TIP3    H141784   2.889   1.792   9.276  1.8725 -0.2081 -0.2739
 5863TIP3    H241785   2.883   1.928   9.210  1.2452 -0.4361 -0.6918
 5864TIP3   OH241786   3.353   3.881  12.068 -0.1941 -0.0233 -0.3045
 5864TIP3    H141787   3.437   3.844  12.094 -0.3404 -0.1569 -0.0201
 5864TIP3    H241788   3.314   3.912  12.149  0.2897  1.5221 -0.6367
 5865TIP3   OH241789   6.425   4.670   9.868 -0.2935  0.3036 -0.0616
 5865TIP3    H141790   6.414   4.617   9.789 -1.5750  2.0523 -1.1220
 5865TIP3    H241791   6.437   4.759   9.837  1.8683  0.7037  1.6821
 5866TIP3   OH241792   2.262   5.162  11.314 -0.1603 -0.5400 -0.0641
 5866TIP3    H141793   2.347   5.150  11.271 -0.1579  0.4086 -0.3361
 5866TIP3    H241794   2.207   5.093  11.278 -0.3120  0.5360 -2.0169
 5867TIP3   OH241795   5.590   1.684  10.445  0.1626  0.3230  0.0055
 5867TIP3    H141796   5.512   1.638  10.413  1.0085 -0.2720 -1.2603
 5867TIP3    H241797   5.656   1.616  10.457  0.7267  0.9143  0.3495
 5868TIP3   OH241798   1.557   2.855  11.921 -0.5148  0.2530 -0.0303
 5868TIP3    H141799   1.507   2.836  11.842 -1.4481  0.2772  0.5495
 5868TIP3    H241800   1.590   2.944  11.908  2.6351 -1.0272 -2.1029
 5869TIP3   OH241801   2.497   2.441   9.559 -0.2869  0.5853 -0.1967
 5869TIP3    H141802   2.547   2.472   9.635  0.9337  0.2875 -0.8482
 5869TIP3    H241803   2.488   2.518   9.503 -2.5865  1.2262  0.9068
 5870TIP3   OH241804   3.995   0.565   9.908  0.2180 -0.1812 -0.0264
 5870TIP3    H141805   3.966   0.475   9.924 -1.0193  0.4003  1.1708
 5870TIP3    H241806   4.085   0.568   9.940  0.1319 -0.8886  0.2911
 5871TIP3   OH241807   5.709   5.931  10.694  0.0190  0.1641  0.0871
 5871TIP3    H141808   5.665   5.996  10.748 -2.1508 -1.1019 -0.0308
 5871TIP3    H241809   5.744   5.980  10.620  1.3533  1.6268  1.5945
 5872TIP3   OH241810   5.132   4.596   9.905 -0.1164 -0.5458 -0.6150
 5872TIP3    H141811   5.201   4.650   9.944 -0.5477  0.1095 -0.7439
 5872TIP3    H241812   5.064   4.658   9.881 -1.4415 -1.3461  0.9219
 5873TIP3   OH241813   0.266   2.293  12.198  0.0872 -0.2944 -0.2132
 5873TIP3    H141814   0.209   2.366  12.174  0.4933 -0.1386 -0.7031
 5873TIP3    H241815   0.206   2.220  12.216 -0.4345  0.5284  1.6902
 5874TIP3   OH241816   4.469   0.364   9.810  0.0042  0.3387 -0.0484
 5874TIP3    H141817   4.389   0.378   9.860  1.1108 -0.8141  2.2515
 5874TIP3    H241818   4.444   0.376   9.719 -2.9844 -0.8181  0.5103
 5875TIP3   OH241819   5.717   2.533  11.632  0.2160  0.7687 -0.2620
 5875TIP3    H141820   5.777   2.592  11.679 -0.6703  0.9002  0.7525
 5875TIP3    H241821   5.697   2.579  11.550  1.6097  0.6504 -0.6937
 5876TIP3   OH241822   3.131   1.368   8.859  0.1511  0.1339  0.0051
 5876TIP3    H141823   3.223   1.395   8.854 -0.0326  1.1195  1.2112
 5876TIP3    H241824   3.134   1.275   8.879  0.8715 -0.0195 -0.7611
 5877TIP3   OH241825   6.662   2.552  10.170  0.3102  0.0154 -0.3207
 5877TIP3    H141826   6.612   2.629  10.198 -1.1600 -0.5782 -1.1618
 5877TIP3    H241827   6.724   2.585  10.106  1.0017  0.7750  0.7156
 5878TIP3   OH241828   2.500   2.238  10.364 -0.1673 -0.3430  0.6391
 5878TIP3    H141829   2.502   2.331  10.386 -2.9738  0.7316 -2.7954
 5878TIP3    H241830   2.535   2.234  10.275 -0.6977 -2.5231  0.4771
 5879TIP3   OH241831   0.391   0.059  11.550 -0.3417 -0.0543 -0.7338
 5879TIP3    H141832   0.400   0.061  11.455  0.4350 -0.3222 -0.6705
 5879TIP3    H241833   0.471   0.098  11.583 -0.6245  0.0752 -0.1878
 5880TIP3   OH241834   2.512   3.553  11.370  0.2075  0.9634 -0.1397
 5880TIP3    H141835   2.464   3.483  11.413  0.2435 -0.4146 -2.1740
 5880TIP3    H241836   2.446   3.620  11.352 -0.2166  0.6513  0.2441
 5881TIP3   OH241837   1.550   0.165   9.552 -0.4157 -0.2186  0.2170
 5881TIP3    H141838   1.587   0.242   9.509 -1.0044  0.1498  0.3643
 5881TIP3    H241839   1.497   0.200   9.623  0.4682 -0.8190  1.2093
 5882TIP3   OH241840   4.007   4.848   9.091 -0.0811  0.2362 -0.0909
 5882TIP3    H141841   4.042   4.931   9.060  0.4288 -0.5618 -1.7131
 5882TIP3    H241842   4.083   4.791   9.101 -0.5645 -0.5073 -0.5093
 5883TIP3   OH241843   4.156   5.275  10.869 -0.5971 -0.1424 -0.4711
 5883TIP3    H141844   4.085   5.245  10.926 -0.2711  0.9153  0.5399
 5883TIP3    H241845   4.176   5.363  10.900  1.3863 -0.5307 -0.5036
 5884TIP3   OH241846   5.123   2.714  11.016  0.2824  0.2753 -0.0309
 5884TIP3    H141847   5.165   2.769  10.949 -0.2432 -0.3785 -0.9285
 5884TIP3    H241848   5.062   2.773  11.060  0.9599  0.8278  0.1725
 5885TIP3   OH241849   2.361   5.025   9.944 -0.1184  0.6391 -0.6983
 5885TIP3    H141850   2.306   5.053  10.016  0.4804  0.6243 -0.2291
 5885TIP3    H241851   2.299   4.990   9.879 -0.5254 -1.9916  0.9487
 5886TIP3   OH241852   3.413   3.486  12.045 -0.6678  0.3461  0.0317
 5886TIP3    H141853   3.376   3.560  11.996 -1.1220  0.2528  0.2326
 5886TIP3    H241854   3.338   3.431  12.067 -0.2612 -0.5329 -0.7008
 5887TIP3   OH241855   0.756   3.348  11.124  0.0629  0.1324 -0.0498
 5887TIP3    H141856   0.795   3.350  11.037  0.1445  1.4039  0.0068
 5887TIP3    H241857   0.669   3.386  11.112  0.2740  0.8003  0.5228
 5888TIP3   OH241858   0.068   2.996  12.301 -0.3471 -0.0311  0.0387
 5888TIP3    H141859  -0.014   3.002  12.349 -0.8742 -1.8859 -0.5614
 5888TIP3    H241860   0.126   2.945  12.357  0.0026  0.2497 -0.0586
 5889TIP3   OH241861   4.135   2.643  12.419 -0.8186  0.4357  0.6557
 5889TIP3    H141862   4.162   2.670  12.331 -0.0585 -0.6350  0.5415
 5889TIP3    H241863   4.216   2.648  12.470 -1.2300  0.9289  1.2710
 5890TIP3   OH241864   5.808   1.780  10.297  0.6491 -0.3368  0.3876
 5890TIP3    H141865   5.878   1.715  10.302 -0.0451 -1.1190  0.1617
 5890TIP3    H241866   5.750   1.760  10.370 -0.0993 -0.6103 -0.2633
 5891TIP3   OH241867   4.979   3.554  10.633 -0.6210 -0.1710  0.0182
 5891TIP3    H141868   4.934   3.470  10.626 -0.2770 -0.2630 -1.3477
 5891TIP3    H241869   4.910   3.619  10.625 -0.6354 -0.3190 -1.1972
 5892TIP3   OH241870   3.349   2.656  10.648 -0.4962 -0.2223 -0.3606
 5892TIP3    H141871   3.315   2.613  10.727  0.4806 -1.0359 -0.3488
 5892TIP3    H241872   3.274   2.660  10.589 -1.5386  1.4102  0.9891
 5893TIP3   OH241873   2.590   5.627  10.525  0.3020  0.1208 -0.1264
 5893TIP3    H141874   2.552   5.582  10.600 -0.1886 -2.4454 -1.7821
 5893TIP3    H241875   2.523   5.621  10.457  1.0313  1.6758 -1.0316
 5894TIP3   OH241876   0.859   3.606   9.308 -0.0837 -0.1112  0.2984
 5894TIP3    H141877   0.836   3.587   9.217 -0.7067  0.3895  0.3402
 5894TIP3    H241878   0.807   3.544   9.359 -1.0309  0.7040  0.3715
 5895TIP3   OH241879   0.736   6.379  11.340 -0.0765  0.1469 -0.2011
 5895TIP3    H141880   0.711   6.310  11.401 -0.9856  2.0376  1.7098
 5895TIP3    H241881   0.768   6.333  11.263 -1.4078 -2.3795  0.6491
 5896TIP3   OH241882   5.709   6.641   9.381  0.0328  0.5337 -0.5668
 5896TIP3    H141883   5.789   6.674   9.340  0.1380 -0.4354 -1.1694
 5896TIP3    H241884   5.644   6.710   9.366  0.4734  0.8507 -1.0317
 5897TIP3   OH241885   1.449   2.001  10.406 -0.0188 -0.2042  0.3358
 5897TIP3    H141886   1.520   2.016  10.468  1.6373 -0.4631 -1.4042
 5897TIP3    H241887   1.427   2.088  10.373 -1.5004  0.0414  1.8284
 5898TIP3   OH241888   3.517   5.925  11.273 -0.7037  0.4149 -0.4699
 5898TIP3    H141889   3.530   5.833  11.295 -0.3302  0.2832 -1.1975
 5898TIP3    H241890   3.519   5.927  11.177  0.4972  1.3309 -0.4595
 5899TIP3   OH241891   2.715   2.962  11.201 -0.1165 -0.0777 -0.0184
 5899TIP3    H141892   2.752   3.047  11.224 -0.0553 -0.0864 -0.0867
 5899TIP3    H241893   2.650   2.981  11.133 -0.1315 -0.0811 -0.0050
 5900TIP3   OH241894   2.113   2.983  10.597  0.3177 -0.0449 -0.0529
 5900TIP3    H141895   2.134   2.890  10.604 -2.2362 -0.5995  1.7255
 5900TIP3    H241896   2.035   2.987  10.542  0.6461  1.1082 -0.4715
 5901TIP3   OH241897   0.081   4.214   9.564 -0.6351  0.4182 -0.2392
 5901TIP3    H141898   0.102   4.165   9.485 -0.1817 -2.3351  1.4747
 5901TIP3    H241899   0.148   4.282   9.570 -0.4536  0.4186 -1.9633
 5902TIP3   OH241900   3.046   4.120  11.112  0.2122  0.0378 -0.1216
 5902TIP3    H141901   3.060   4.195  11.054 -1.2505  1.3112  1.0665
 5902TIP3    H241902   3.043   4.045  11.054  1.1017  0.9638 -1.4257
 5903TIP3   OH241903   0.748   2.557   8.827 -0.8603  0.0625  0.4287
 5903TIP3    H141904   0.692   2.627   8.860 -0.5932  0.1794  0.6428
 5903TIP3    H241905   0.764   2.501   8.904 -1.8791 -0.7888  0.0450
 5904TIP3   OH241906   1.073   6.611   9.906 -0.2781 -0.9490  0.0433
 5904TIP3    H141907   1.058   6.521   9.877  0.2104 -0.7721 -0.8001
 5904TIP3    H241908   1.023   6.664   9.845  1.7052 -0.4956 -1.3020
 5905TIP3   OH241909   1.832   1.791   9.806 -0.2480 -0.0744  0.0551
 5905TIP3    H141910   1.913   1.819   9.847 -0.2879  0.5036 -0.2472
 5905TIP3    H241911   1.860   1.733   9.735 -0.0942  0.1250 -0.0496
 5906TIP3   OH241912   3.129   4.658   9.454  1.0111  0.2211  0.1875
 5906TIP3    H141913   3.216   4.618   9.450 -0.1248 -2.6377  0.8862
 5906TIP3    H241914   3.070   4.583   9.465 -1.3855  2.1572  1.4690
 5907TIP3   OH241915   0.144   3.585   8.771  0.3041 -0.4098  0.0684
 5907TIP3    H141916   0.137   3.630   8.856 -0.0365 -0.0271 -0.1608
 5907TIP3    H241917   0.055   3.555   8.752  0.6940 -2.1587  0.7362
 5908TIP3   OH241918   5.186   5.894   9.203  0.4697  0.6407 -0.1906
 5908TIP3    H141919   5.228   5.808   9.208 -0.8392 -0.0765 -1.0257
 5908TIP3    H241920   5.242   5.951   9.256 -0.9677 -1.6700  4.3452
 5909TIP3   OH241921   0.294   6.021  10.820 -0.5448 -0.0513  0.0979
 5909TIP3    H141922   0.254   5.937  10.797  1.0602 -1.0866  0.8841
 5909TIP3    H241923   0.272   6.034  10.912 -0.0034 -0.1054  0.2416
 5910TIP3   OH241924   5.136   5.086   9.781 -0.2068  0.3752  0.3483
 5910TIP3    H141925   5.090   5.057   9.702  2.6077 -0.5900 -1.0773
 5910TIP3    H241926   5.216   5.128   9.748  1.0831 -0.1023  2.6493
 5911TIP3   OH241927   3.654   2.428  12.087 -0.1696 -0.8150 -0.2016
 5911TIP3    H141928   3.632   2.511  12.128 -1.1067  0.0881 -2.4021
 5911TIP3    H241929   3.638   2.363  12.155 -1.3785  0.6083  0.9492
 5912TIP3   OH241930   3.173   0.553   9.423  0.0286 -0.0935 -0.0817
 5912TIP3    H141931   3.134   0.640   9.423  0.6332  0.2956 -3.2411
 5912TIP3    H241932   3.227   0.551   9.344 -0.1871 -3.4216 -0.2735
 5913TIP3   OH241933   4.962   5.707   9.798 -0.0198  0.4447  0.1177
 5913TIP3    H141934   5.056   5.709   9.776 -0.0772 -0.7059 -0.3388
 5913TIP3    H241935   4.926   5.786   9.758  0.2938 -0.4555 -2.0925
 5914TIP3   OH241936   2.404   4.346   9.214 -0.0103  0.1148 -0.3782
 5914TIP3    H141937   2.490   4.336   9.254 -0.6729  0.5957  1.2463
 5914TIP3    H241938   2.404   4.285   9.140  1.9568  0.6160 -0.8472
 5915TIP3   OH241939   0.462   4.758  10.174 -0.2788  0.2210  0.5191
 5915TIP3    H141940   0.457   4.854  10.174  1.2113  0.3224  0.6915
 5915TIP3    H241941   0.476   4.735  10.083  1.3663  0.3173  0.7317
 5916TIP3   OH241942   5.891   2.229   9.690 -0.4338  0.6638  0.2296
 5916TIP3    H141943   5.986   2.238   9.703 -0.2256 -0.3539 -0.4765
 5916TIP3    H241944   5.856   2.314   9.714  0.3721  0.3337  2.9631
 5917TIP3   OH241945   6.303   5.641  10.090 -0.0088  0.1208 -0.1340
 5917TIP3    H141946   6.218   5.669  10.125  0.0045  2.4050 -1.7489
 5917TIP3    H241947   6.283   5.605  10.004  0.4957 -1.0946  0.2307
 5918TIP3   OH241948   3.179   1.744  10.342  0.2022 -0.2788 -0.0710
 5918TIP3    H141949   3.181   1.700  10.427  2.2045 -0.5641 -0.2128
 5918TIP3    H241950   3.250   1.704  10.292 -1.5084 -0.7744 -2.2647
 5919TIP3   OH241951   4.559   5.462   9.610 -0.2846 -0.3929  0.5842
 5919TIP3    H141952   4.586   5.519   9.682  2.0230  0.7749 -1.0904
 5919TIP3    H241953   4.559   5.374   9.648  3.1730 -0.1219  1.5618
 5920TIP3   OH241954   0.902   2.536  12.305  0.6467  0.0317 -0.0919
 5920TIP3    H141955   0.982   2.516  12.354 -0.0523  3.0099  2.6562
 5920TIP3    H241956   0.853   2.454  12.303  1.5939 -0.7194  2.6747
 5921TIP3   OH241957   2.252   1.466   9.588 -0.2301 -0.9038 -0.9313
 5921TIP3    H141958   2.287   1.555   9.593  0.7972 -1.1823 -2.4791
 5921TIP3    H241959   2.262   1.431   9.677 -1.5394  0.8106 -0.0584
 5922TIP3   OH241960   1.813   6.644   9.288 -0.2842 -0.2346  0.3345
 5922TIP3    H141961   1.829   6.572   9.228  0.5395 -0.1785  0.4753
 5922TIP3    H241962   1.888   6.703   9.275 -0.9382  0.5917  0.2232
 5923TIP3   OH241963   6.307   6.263  11.009  0.1257  0.0295  0.0294
 5923TIP3    H141964   6.307   6.351  10.970  0.3843  0.0805  0.1469
 5923TIP3    H241965   6.239   6.267  11.076  0.6269  0.3541  0.5228
 5924TIP3   OH241966   5.359   1.131   8.988 -0.5397  0.0317  0.4743
 5924TIP3    H141967   5.367   1.083   8.906  1.6060  0.8730  0.1069
 5924TIP3    H241968   5.439   1.108   9.036  1.1113  3.8273 -0.1253
 5925TIP3   OH241969   4.344   5.059  11.695  0.2079 -0.5960  0.7100
 5925TIP3    H141970   4.259   5.026  11.724  1.6830 -4.1466  1.4761
 5925TIP3    H241971   4.392   5.078  11.776  0.3260  1.0261  0.2931
 5926TIP3   OH241972   4.489   4.905  11.512  0.3362 -0.4538 -0.2462
 5926TIP3    H141973   4.431   4.954  11.571 -0.7584 -1.0581 -0.7886
 5926TIP3    H241974   4.553   4.864  11.570  0.4646  0.5175  0.3333
 5927TIP3   OH241975   2.267   2.264  11.563 -0.5560  0.4366  0.2415
 5927TIP3    H141976   2.335   2.270  11.630 -0.0796 -0.1171 -0.1809
 5927TIP3    H241977   2.185   2.252  11.611 -0.2836  0.5341  0.7298
 5928TIP3   OH241978   1.570   6.636  11.070  0.3177  0.2484 -0.3483
 5928TIP3    H141979   1.618   6.569  11.022 -0.4468 -0.2608 -0.4249
 5928TIP3    H241980   1.582   6.716  11.019  0.4409 -0.0413 -0.7744
 5929TIP3   OH241981   0.816   4.101   8.830  0.2402 -0.6620  0.7056
 5929TIP3    H141982   0.878   4.030   8.813  0.4532 -0.4388  0.5303
 5929TIP3    H241983   0.868   4.167   8.877  0.6801  0.3763 -1.1247
 5930TIP3   OH241984   3.780   4.985   9.858  0.0357  0.1947  0.1174
 5930TIP3    H141985   3.836   5.021   9.927 -1.9036  0.5121  1.5984
 5930TIP3    H241986   3.694   4.974   9.899 -0.9010 -0.7341 -1.9294
 5931TIP3   OH241987   3.677   5.832   8.570  0.0115 -0.3275  0.1614
 5931TIP3    H141988   3.726   5.833   8.652 -0.2041 -1.0854  0.3104
 5931TIP3    H241989   3.605   5.772   8.586 -1.6469  1.6133  0.3157
 5932TIP3   OH241990   0.997   2.602  10.835 -0.2141 -0.4903  0.1778
 5932TIP3    H141991   0.927   2.624  10.773  0.4617 -2.0688 -1.1971
 5932TIP3    H241992   1.012   2.508  10.824  0.0384 -0.8152  2.6649
 5933TIP3   OH241993   0.217   2.449  10.055  0.8800  0.4344  0.1415
 5933TIP3    H141994   0.270   2.457  10.134 -0.4934  1.2139  1.0248
 5933TIP3    H241995   0.210   2.539  10.022  1.7320  0.0775 -1.1059
 5934TIP3   OH241996   2.091   1.187   9.258  0.2938  0.1207  0.8784
 5934TIP3    H141997   2.168   1.133   9.243  0.0126 -0.0045 -0.2561
 5934TIP3    H241998   2.019   1.125   9.268  0.2293  0.2516  1.2551
 5935TIP3   OH241999   6.120   1.981  10.673 -0.2763  0.2910 -0.1817
 5935TIP3    H142000   6.089   2.040  10.604  0.7313  0.4542 -0.5121
 5935TIP3    H242001   6.214   1.977  10.660 -0.1298 -0.0525  0.9102
 5936TIP3   OH242002   1.509   0.638  10.199 -0.0521  0.2466  0.0944
 5936TIP3    H142003   1.494   0.711  10.139  4.3493  1.6183  0.3735
 5936TIP3    H242004   1.492   0.674  10.286  2.1593  1.0610  0.2354
 5937TIP3   OH242005   4.692   4.369   9.932 -0.3021  0.0034  0.1717
 5937TIP3    H142006   4.658   4.346  10.018 -0.7057 -0.4720 -0.1098
 5937TIP3    H242007   4.775   4.322   9.925  0.3656  1.0420  0.7980
 5938TIP3   OH242008   1.204   5.508  11.199 -0.5218  0.5835  0.3613
 5938TIP3    H142009   1.180   5.537  11.286  1.4714 -0.5066  1.3491
 5938TIP3    H242010   1.298   5.487  11.205 -0.4775 -0.2064 -1.8387
 5939TIP3   OH242011   0.551   5.785  11.553 -0.0517  0.7039 -0.3317
 5939TIP3    H142012   0.519   5.756  11.467 -0.0071  1.6005 -0.6513
 5939TIP3    H242013   0.646   5.788  11.544  0.0154  0.0133  0.0097
 5940TIP3   OH242014   1.967   0.822   8.989 -0.2248  0.7020  0.0655
 5940TIP3    H142015   1.962   0.738   8.943 -1.2615  1.2137 -0.8092
 5940TIP3    H242016   1.876   0.852   8.993  0.0224  1.3363  1.2150
 5941TIP3   OH242017   5.566   4.022  10.590  0.2937  0.3651  0.1238
 5941TIP3    H142018   5.473   4.004  10.605  0.2194  0.1287 -0.5922
 5941TIP3    H242019   5.602   3.938  10.564  0.7529  0.4167  0.5806
 5942TIP3   OH242020   5.744   3.782  10.275  0.7040 -0.4785 -0.1505
 5942TIP3    H142021   5.702   3.789  10.360 -0.0497  0.4811 -0.5876
 5942TIP3    H242022   5.749   3.687  10.259 -1.2181 -0.6405 -0.0331
 5943TIP3   OH242023   1.706   6.602   8.981 -0.1089  0.5935 -0.0283
 5943TIP3    H142024   1.729   6.509   8.979 -0.6417  0.3710  2.0521
 5943TIP3    H242025   1.615   6.604   8.952 -0.7801  0.1607  1.8934
 5944TIP3   OH242026   0.354   0.383  10.138 -0.1491 -0.3823 -0.0615
 5944TIP3    H142027   0.330   0.456  10.081  0.0526  0.1957  0.5990
 5944TIP3    H242028   0.310   0.307  10.098 -1.2057  0.2709 -0.1615
 5945TIP3   OH242029   0.025   4.783   9.695 -0.3018  0.0941 -0.7952
 5945TIP3    H142030   0.047   4.726   9.769  1.0665  1.7130  0.1143
 5945TIP3    H242031  -0.034   4.849   9.732  1.3267  1.6158 -0.8009
 5946TIP3   OH242032   4.697   6.545   8.869 -0.3293 -0.1877 -0.8497
 5946TIP3    H142033   4.714   6.486   8.943 -0.2893  0.0124 -0.6975
 5946TIP3    H242034   4.608   6.523   8.841 -1.1080  1.0672  0.5139
 5947TIP3   OH242035   3.543   4.490   9.090 -0.0228  0.7659 -0.3132
 5947TIP3    H142036   3.574   4.577   9.065 -0.6038  1.0632 -0.0131
 5947TIP3    H242037   3.472   4.507   9.152  0.6074  0.0641  0.6261
 5948TIP3   OH242038   0.976   0.845   9.651 -0.3026 -0.0527 -0.2108
 5948TIP3    H142039   1.046   0.818   9.593 -0.4748 -2.1529  0.4922
 5948TIP3    H242040   1.021   0.888   9.724  0.1068  0.2309 -0.6277
 5949TIP3   OH242041   2.554   1.805   9.666  0.5080  0.2368 -0.5122
 5949TIP3    H142042   2.514   1.862   9.731 -0.8310 -0.7479 -0.4537
 5949TIP3    H242043   2.622   1.860   9.625  0.3513  1.3364  0.6481
 5950TIP3   OH242044   0.884   4.931  10.062 -0.2091  0.3636 -0.2809
 5950TIP3    H142045   0.832   4.998  10.017 -1.0650  1.0460  1.6272
 5950TIP3    H242046   0.974   4.961  10.055 -0.4220  0.9043 -0.7891
 5951TIP3   OH242047   5.604   0.395  11.504  0.1438 -0.1170  0.3738
 5951TIP3    H142048   5.591   0.429  11.592 -1.8871 -1.6430  0.7284
 5951TIP3    H242049   5.524   0.417  11.457  1.4783  1.3040 -1.3562
 5952TIP3   OH242050   3.870   5.160   8.848 -0.2070  0.0415  0.1891
 5952TIP3    H142051   3.942   5.211   8.811  0.6840 -2.4486 -1.8347
 5952TIP3    H242052   3.817   5.224   8.896  2.9798  2.0779  1.2985
 5953TIP3   OH242053   1.871   2.085   9.790  0.0538 -0.5657 -0.1654
 5953TIP3    H142054   1.855   2.177   9.771 -0.2675 -0.3126  1.2268
 5953TIP3    H242055   1.816   2.037   9.729 -0.3355  0.1831 -0.4050
 5954TIP3   OH242056   3.818   4.822  10.842  0.6202 -0.1795 -0.2220
 5954TIP3    H142057   3.912   4.827  10.827  0.4898  1.9554 -0.7091
 5954TIP3    H242058   3.809   4.788  10.931  1.9470  1.4638  0.5925
 5955TIP3   OH242059   0.784   5.133   9.477  0.5711 -0.3077  0.3921
 5955TIP3    H142060   0.877   5.114   9.487  0.6971  0.3258  0.4429
 5955TIP3    H242061   0.750   5.058   9.427  1.3694  0.0900 -0.7917
 5956TIP3   OH242062   5.897   6.332  16.992 -0.3511  0.1273 -0.1443
 5956TIP3    H142063   5.834   6.392  16.953 -0.1628 -0.4738 -1.4357
 5956TIP3    H242064   5.944   6.294  16.918  0.7114 -0.3353  0.7245
 5957TIP3   OH242065   6.104   4.447  10.371  0.2102 -0.6010  0.8737
 5957TIP3    H142066   6.133   4.413  10.286  0.8131 -2.0795  1.6403
 5957TIP3    H242067   6.062   4.530  10.350 -0.5118 -1.3778 -0.9910
 5958TIP3   OH242068   2.408   3.972   9.678 -0.5496  0.4560 -0.0007
 5958TIP3    H142069   2.321   3.933   9.689 -0.7393  0.2391 -1.8133
 5958TIP3    H242070   2.466   3.898   9.663 -0.0734  0.6138  1.0288
 5959TIP3   OH242071   1.765   3.791  11.885 -0.2096 -0.8493  1.3193
 5959TIP3    H142072   1.791   3.851  11.955 -0.3087  0.1046  0.5611
 5959TIP3    H242073   1.669   3.794  11.885 -0.2071  1.0137 -0.3722
 5960TIP3   OH242074   3.342   3.909  11.346  0.2059 -0.3084 -0.7493
 5960TIP3    H142075   3.364   3.994  11.308  0.2027 -0.5570 -1.3089
 5960TIP3    H242076   3.427   3.865  11.355 -0.0349 -1.5127 -3.4834
 5961TIP3   OH242077   1.610   1.763   9.344 -0.3823 -0.2000 -0.2992
 5961TIP3    H142078   1.589   1.678   9.305  0.6570 -0.0082 -1.3408
 5961TIP3    H242079   1.551   1.825   9.300  0.8679  0.0340 -1.7267
 5962TIP3   OH242080   0.649   3.193  11.713  0.3323  0.0942  0.3360
 5962TIP3    H142081   0.681   3.243  11.788  0.2347  0.8547 -0.1239
 5962TIP3    H242082   0.707   3.117  11.708 -0.2043 -0.4318  1.7209
 5963TIP3   OH242083   1.897   4.769  11.584  0.3865  0.0977 -0.1603
 5963TIP3    H142084   1.902   4.679  11.553  1.5483  0.1475 -0.1590
 5963TIP3    H242085   1.827   4.808  11.532 -0.2139 -0.8262 -0.0764
 5964TIP3   OH242086   5.012   0.250   9.250 -0.1725 -0.2049  0.5427
 5964TIP3    H142087   4.977   0.211   9.170  0.5343  1.7567 -0.7823
 5964TIP3    H242088   4.944   0.312   9.278  0.0440 -0.1138  0.8664
 5965TIP3   OH242089   2.306   2.064  10.274 -0.0794 -0.2833  0.1971
 5965TIP3    H142090   2.354   2.141  10.305 -2.9681  1.6099  0.3986
 5965TIP3    H242091   2.369   2.017  10.219  1.5948  2.7247 -0.7206
 5966TIP3   OH242092   1.161   1.066  12.072  0.0698 -0.4678 -0.0313
 5966TIP3    H142093   1.144   1.128  12.001 -2.7450 -0.3223  0.6516
 5966TIP3    H242094   1.083   1.010  12.075  1.2679 -2.1905  1.2575
 5967TIP3   OH242095   4.561   1.535   9.290  0.1389  0.9512  0.0873
 5967TIP3    H142096   4.579   1.588   9.213  0.1385  1.0973  0.1878
 5967TIP3    H242097   4.527   1.597   9.355 -1.2648  0.6084 -0.2797
 5968TIP3   OH242098   1.906   2.098  10.411 -0.2427 -0.1747 -0.1375
 5968TIP3    H142099   1.813   2.106  10.388 -0.3896  0.9908  0.7804
 5968TIP3    H242100   1.909   2.025  10.473 -0.6644  0.2444  0.3864
 5969TIP3   OH242101   5.181   4.213  10.427 -0.2019  0.4329  0.8069
 5969TIP3    H142102   5.221   4.128  10.412  1.3271  1.2832 -0.1150
 5969TIP3    H242103   5.142   4.237  10.343  0.8292  1.3544  0.5662
 5970TIP3   OH242104   3.603   5.524   9.401  0.4178  0.2352 -0.5950
 5970TIP3    H142105   3.510   5.526   9.424  0.1803 -1.7432 -1.2075
 5970TIP3    H242106   3.628   5.432   9.409  2.5219  0.8232  0.2146
 5971TIP3   OH242107   5.809   6.264  11.141 -0.4146 -0.4034  0.0898
 5971TIP3    H142108   5.880   6.328  11.135 -2.2189  1.6299 -2.0994
 5971TIP3    H242109   5.850   6.180  11.119  1.6984  0.2484  1.2544
 5972TIP3   OH242110   0.485   4.408  11.844 -0.1839  0.1051 -0.3305
 5972TIP3    H142111   0.580   4.414  11.842 -0.1403 -0.2865  0.5100
 5972TIP3    H242112   0.466   4.319  11.873 -0.8021  0.4777  0.4526
 5973TIP3   OH242113   3.447   4.741  10.138  0.6204 -0.2364  0.2036
 5973TIP3    H142114   3.426   4.658  10.181 -0.2699  0.3861  1.0175
 5973TIP3    H242115   3.427   4.808  10.204  2.9209  0.5709  0.1795
 5974TIP3   OH242116   3.841   4.602   9.535 -0.1202  0.7280 -0.3825
 5974TIP3    H142117   3.835   4.664   9.463 -0.7838  1.6517  0.4521
 5974TIP3    H242118   3.793   4.643   9.607  1.6325  0.4314  1.0188
 5975TIP3   OH242119   1.625   0.711   9.479  0.0789  0.3500 -0.4158
 5975TIP3    H142120   1.568   0.785   9.500  0.5852  0.7932 -0.5763
 5975TIP3    H242121   1.658   0.731   9.391 -0.1462 -0.2973 -0.6478
 5976TIP3   OH242122   0.575   3.622  12.069  0.0590 -1.0174  0.0200
 5976TIP3    H142123   0.601   3.649  11.981  1.0614 -0.5151  0.4570
 5976TIP3    H242124   0.510   3.553  12.054 -0.9440  0.1035 -1.1166
 5977TIP3   OH242125   2.375   0.412  10.064  0.0738 -0.0951 -0.5071
 5977TIP3    H142126   2.331   0.461  10.134 -1.5605 -1.4435 -0.5196
 5977TIP3    H242127   2.461   0.454  10.056 -0.2925  1.1126  1.1956
 5978TIP3   OH242128   5.549   4.185  10.803  0.4819  0.0445 -0.2727
 5978TIP3    H142129   5.466   4.224  10.774  0.0788 -1.0011 -0.5447
 5978TIP3    H242130   5.567   4.117  10.739  2.4264  1.3265 -1.1868
 5979TIP3   OH242131   6.711   1.703   9.864 -0.4167  0.5311 -0.1126
 5979TIP3    H142132   6.758   1.675   9.785 -1.8671  0.7092 -1.0643
 5979TIP3    H242133   6.740   1.642   9.932 -0.3453 -0.6209 -1.1559
 5980TIP3   OH242134   2.856   1.847   9.005  0.4353  0.3756  0.2310
 5980TIP3    H142135   2.763   1.846   9.029  0.6345  1.6789  1.1167
 5980TIP3    H242136   2.864   1.775   8.942 -0.2721 -2.8617  3.5019
 5981TIP3   OH242137   5.472   1.439  11.507  0.9279  0.0194 -0.5457
 5981TIP3    H142138   5.459   1.350  11.541 -0.8167  0.3916 -0.1836
 5981TIP3    H242139   5.512   1.487  11.580 -1.1727  0.3533  0.4580
 5982TIP3   OH242140   0.976   6.202   8.964  0.4572 -0.4762 -0.1907
 5982TIP3    H142141   0.905   6.141   8.945  0.1708  0.2719 -1.6052
 5982TIP3    H242142   1.035   6.153   9.021  0.4757 -2.2360 -1.6672
 5983TIP3   OH242143   6.399   4.976   9.597  0.4881 -0.2279  1.0376
 5983TIP3    H142144   6.474   4.980   9.538  0.0863 -0.3409  0.5064
 5983TIP3    H242145   6.324   4.959   9.539 -0.3010  2.1157  1.2742
 5984TIP3   OH242146   4.919   1.157  11.778 -0.1480 -0.3894  0.1092
 5984TIP3    H142147   4.991   1.190  11.725 -1.4363  2.5228 -0.0125
 5984TIP3    H242148   4.961   1.122  11.857  1.4788 -0.6967 -0.8626
 5985TIP3   OH242149   5.876   6.174  11.967  0.1500 -0.0690  0.8534
 5985TIP3    H142150   5.819   6.113  11.921 -1.6051  1.7985  0.4102
 5985TIP3    H242151   5.894   6.131  12.051 -0.3689 -1.5083  0.2655
 5986TIP3   OH242152   6.506   0.386  11.934 -0.2940  0.3905  0.1899
 5986TIP3    H142153   6.571   0.455  11.918  0.0928  0.0910  0.4409
 5986TIP3    H242154   6.552   0.323  11.990 -0.6282 -0.0930 -0.0764
 5987TIP3   OH242155   1.914   3.294   9.160 -0.2183  0.1930  0.0314
 5987TIP3    H142156   1.960   3.264   9.239 -1.9433  0.3897  1.1575
 5987TIP3    H242157   1.840   3.234   9.152 -0.1824  0.3082 -1.3508
 5988TIP3   OH242158   5.572   5.703  10.617 -0.5791 -0.3729  0.7632
 5988TIP3    H142159   5.601   5.793  10.604 -0.9899 -0.2225  0.8772
 5988TIP3    H242160   5.561   5.695  10.712  0.7383 -0.9459  0.8927
 5989TIP3   OH242161   3.051   3.958  11.356  0.1435 -0.7387  0.4185
 5989TIP3    H142162   3.130   3.911  11.382 -0.4215 -1.3743  1.0114
 5989TIP3    H242163   3.077   4.008  11.278  1.8130  1.0022  1.9824
 5990TIP3   OH242164   1.739   3.707  11.009  0.3784 -0.2309 -0.8495
 5990TIP3    H142165   1.769   3.785  11.056  0.4215 -0.1029 -1.0877
 5990TIP3    H242166   1.681   3.663  11.071  0.8400 -0.3367 -0.4833
 5991TIP3   OH242167   4.905   4.853  10.449  0.0806  0.3287  0.1470
 5991TIP3    H142168   4.941   4.898  10.525  0.3466  2.7333 -1.3172
 5991TIP3    H242169   4.894   4.921  10.383 -1.4651 -1.4112 -1.5266
 5992TIP3   OH242170   4.490   0.542  10.726  0.8112 -0.6678 -0.1326
 5992TIP3    H142171   4.571   0.512  10.765  1.6396  0.5739 -0.8156
 5992TIP3    H242172   4.503   0.532  10.632  1.0203  1.4541 -0.3762
 5993TIP3   OH242173   2.668   2.339  10.693  0.7713 -0.3258  0.4731
 5993TIP3    H142174   2.608   2.371  10.760  0.4885  0.0440  0.0499
 5993TIP3    H242175   2.755   2.349  10.731  0.5820 -0.6497  1.0004
 5994TIP3   OH242176   6.384   6.017   9.738 -0.5645 -0.1180 -0.8665
 5994TIP3    H142177   6.468   6.062   9.730 -0.1934 -0.6606 -0.0568
 5994TIP3    H242178   6.396   5.955   9.810 -1.0799 -1.4982 -1.9232
 5995TIP3   OH242179   6.121   0.062  10.654 -0.3270  0.6368  0.5156
 5995TIP3    H142180   6.068  -0.015  10.633 -0.8393  0.6626  1.6452
 5995TIP3    H242181   6.112   0.118  10.577 -3.0307  1.2132  1.1275
 5996TIP3   OH242182   2.089   4.692  11.887  0.2616  0.5059 -0.5325
 5996TIP3    H142183   2.165   4.739  11.853  1.2627 -0.3710  0.4481
 5996TIP3    H242184   2.098   4.603  11.853  0.9727 -0.2325  1.4702
 5997TIP3   OH242185   3.696   2.571  11.856  0.2928  0.3394  0.3184
 5997TIP3    H142186   3.776   2.615  11.884  1.2219 -1.3147  0.4072
 5997TIP3    H242187   3.664   2.527  11.935 -0.8719  1.1958  0.3468
 5998TIP3   OH242188   4.088   1.269  11.948 -0.0668  0.0240 -1.0988
 5998TIP3    H142189   4.114   1.183  11.915 -1.2200 -0.3102 -1.1548
 5998TIP3    H242190   4.171   1.312  11.971  0.4535 -2.1868  1.7569
 5999TIP3   OH242191   3.518   6.262   8.833 -0.2401 -0.3427  0.5410
 5999TIP3    H142192   3.613   6.246   8.832 -0.2321 -0.2937  0.0826
 5999TIP3    H242193   3.479   6.175   8.833 -0.1939 -0.3644  0.2832
 6000TIP3   OH242194   4.407   1.916  11.485  0.0135  0.0587  0.4471
 6000TIP3    H142195   4.316   1.921  11.515  0.2989  0.3891  1.2971
 6000TIP3    H242196   4.439   1.834  11.521 -0.2200 -0.5408 -0.6744
 6001TIP3   OH242197   1.941   0.452  10.400  0.3071 -0.3125 -0.3654
 6001TIP3    H142198   1.985   0.379  10.442 -0.2223 -0.6946 -0.4610
 6001TIP3    H242199   1.972   0.451  10.310  1.1406  0.2645 -0.0973
 6002TIP3   OH242200   6.631   3.559   9.695  0.8612  0.2320 -0.1721
 6002TIP3    H142201   6.572   3.608   9.639  0.4913 -0.9077 -0.8105
 6002TIP3    H242202   6.718   3.594   9.675  0.6702  0.2261 -1.0468
 6003TIP3   OH242203   5.427   5.405  11.366  0.0953 -0.0202  0.6353
 6003TIP3    H142204   5.401   5.322  11.326 -0.7248 -0.2172  1.5177
 6003TIP3    H242205   5.517   5.390  11.396  0.5920  0.0254 -0.7903
 6004TIP3   OH242206   5.188   6.448  10.256  0.2718  0.4208 -0.3088
 6004TIP3    H142207   5.160   6.539  10.244  0.0432  0.9857  3.4063
 6004TIP3    H242208   5.270   6.441  10.206  1.2286  3.2494  0.6746
 6005TIP3   OH242209   1.428   4.371  10.699  0.5381 -0.2073  0.2433
 6005TIP3    H142210   1.503   4.429  10.688 -0.6692  1.4273  0.2968
 6005TIP3    H242211   1.434   4.311  10.625 -0.0153  2.1351 -1.8314
 6006TIP3   OH242212   2.238   1.128  11.308  0.5934 -0.1885  0.4250
 6006TIP3    H142213   2.320   1.162  11.274  0.7839  0.0047  1.0645
 6006TIP3    H242214   2.250   1.126  11.403  0.2398 -1.1499  0.4562
 6007TIP3   OH242215   1.865   5.903   8.756 -0.2391 -0.0121 -0.0484
 6007TIP3    H142216   1.822   5.824   8.789 -0.9695  0.6378  0.5959
 6007TIP3    H242217   1.888   5.952   8.834  1.6054 -0.2836 -0.3841
 6008TIP3   OH242218   6.586   3.705   9.215 -0.4049  0.1054 -0.1871
 6008TIP3    H142219   6.567   3.792   9.248 -1.8703  0.2363 -1.2763
 6008TIP3    H242220   6.504   3.656   9.226  0.2888 -1.0345  0.0983
 6009TIP3   OH242221   5.351   5.525  11.048 -0.2817 -0.2566  0.0105
 6009TIP3    H142222   5.435   5.525  11.093  0.4631  1.5720 -1.2480
 6009TIP3    H242223   5.359   5.455  10.983  1.4647  1.6909 -2.0277
 6010TIP3   OH242224   1.915   1.865  10.542 -0.0648  0.5962 -0.6555
 6010TIP3    H142225   1.876   1.782  10.512  0.6787  0.1295 -0.3670
 6010TIP3    H242226   1.917   1.857  10.637 -1.8486  1.8154 -0.4675
 6011TIP3   OH242227   6.564   2.593   9.029 -0.3806 -0.1432 -0.3320
 6011TIP3    H142228   6.640   2.538   9.007 -1.2910 -1.4833 -0.2458
 6011TIP3    H242229   6.599   2.659   9.089  0.7408 -0.6426 -0.4121
 6012TIP3   OH242230   1.381   3.689  11.283  0.1627 -0.1797  0.2211
 6012TIP3    H142231   1.346   3.650  11.363  1.0622  2.3439  1.9815
 6012TIP3    H242232   1.468   3.651  11.274 -0.0104 -0.6075  0.2965
 6013TIP3   OH242233   3.429   2.457  11.316 -1.2650 -0.0371 -0.3980
 6013TIP3    H142234   3.414   2.538  11.268 -0.9746 -0.3603 -1.0390
 6013TIP3    H242235   3.490   2.408  11.262  1.6860  0.9468  1.7904
 6014TIP3   OH242236   6.709   0.776   8.837 -0.4539  0.1904  0.2238
 6014TIP3    H142237   6.679   0.690   8.866  1.5977 -0.8972 -0.6048
 6014TIP3    H242238   6.720   0.827   8.917 -0.7566 -0.6521  0.8106
 6015TIP3   OH242239   2.096   2.436   9.658 -0.5551 -0.5196  0.3935
 6015TIP3    H142240   2.170   2.392   9.699 -2.5895 -3.5200  1.2824
 6015TIP3    H242241   2.078   2.383   9.580 -2.3539 -0.5833  0.8014
 6016TIP3   OH242242   5.602   3.363   8.814  0.1319  0.5158 -0.1402
 6016TIP3    H142243   5.668   3.431   8.824  0.0478  0.4913  0.6566
 6016TIP3    H242244   5.540   3.398   8.751  0.7433  0.6600 -0.6776
 6017TIP3   OH242245   1.912   4.783   9.862 -0.2122  0.6685  0.2404
 6017TIP3    H142246   1.821   4.754   9.865 -0.3150  0.9720  0.0773
 6017TIP3    H242247   1.963   4.702   9.865 -0.4707  0.5283  1.0468
 6018TIP3   OH242248   1.948   2.463  11.158 -0.0677  0.4048 -0.2118
 6018TIP3    H142249   1.874   2.509  11.198  0.7811  1.5951  0.0313
 6018TIP3    H242250   2.009   2.449  11.230 -0.0260 -0.5378 -0.4221
 6019TIP3   OH242251   4.930   6.260   9.265  0.4949 -0.4210  0.0739
 6019TIP3    H142252   5.025   6.265   9.273  0.6511 -1.9777 -0.3770
 6019TIP3    H242253   4.915   6.195   9.196 -0.9033  0.8903 -0.9200
 6020TIP3   OH242254   0.263   6.101  11.088  0.0080 -0.4544 -0.1567
 6020TIP3    H142255   0.241   6.165  11.156 -2.0498 -1.7188  0.4551
 6020TIP3    H242256   0.226   6.019  11.119  0.5058 -1.4591 -2.0351
 6021TIP3   OH242257   6.622   5.138   9.402  0.0732 -0.6275  0.0322
 6021TIP3    H142258   6.592   5.219   9.442  1.6298  0.1086 -0.2183
 6021TIP3    H242259   6.599   5.148   9.309  2.7196  0.8293 -0.5575
 6022TIP3   OH242260   3.784   1.527   8.762 -0.3549  0.3586  0.0239
 6022TIP3    H142261   3.782   1.576   8.680 -1.0616  0.3084  0.0018
 6022TIP3    H242262   3.700   1.548   8.804 -0.1510  0.1021  0.5645
 6023TIP3   OH242263   4.471   2.414   9.743 -0.3322  0.6951  0.5894
 6023TIP3    H142264   4.516   2.498   9.747  2.3849 -0.1547 -4.3823
 6023TIP3    H242265   4.541   2.349   9.752 -1.3101 -0.8078 -1.7733
 6024TIP3   OH242266   2.327   0.874   9.824  0.3340 -0.2842 -0.3860
 6024TIP3    H142267   2.276   0.869   9.905 -0.5051 -1.5319 -0.9607
 6024TIP3    H242268   2.261   0.877   9.755  1.0420  0.5707 -1.0465
 6025TIP3   OH242269   0.454   0.266   9.737 -0.9936  0.1416 -0.0476
 6025TIP3    H142270   0.366   0.261   9.701  0.0070  0.8660 -2.8074
 6025TIP3    H242271   0.475   0.359   9.739  0.3559 -0.1055 -1.2109
 6026TIP3   OH242272   0.384   3.161  11.176  0.1531  0.7586  0.1768
 6026TIP3    H142273   0.402   3.193  11.088  1.6615 -0.0173  0.1631
 6026TIP3    H242274   0.466   3.175  11.224  0.4904 -1.8228  0.4983
 6027TIP3   OH242275   4.155   1.942  11.574 -0.1067 -0.3737 -0.2136
 6027TIP3    H142276   4.104   1.980  11.646  2.1271  3.8720 -0.5704
 6027TIP3    H242277   4.097   1.950  11.498 -1.2196 -1.7937  0.4160
 6028TIP3   OH242278   3.821   1.356  10.066 -0.3328  0.1321 -0.4719
 6028TIP3    H142279   3.868   1.284  10.023 -0.2412  0.6171 -1.1965
 6028TIP3    H242280   3.888   1.422  10.082 -0.6981  0.7026 -1.2336
 6029TIP3   OH242281   5.582   6.624  11.421 -0.1261 -0.6529  0.5050
 6029TIP3    H142282   5.492   6.624  11.388 -0.4434  0.8592  1.2774
 6029TIP3    H242283   5.592   6.710  11.462  2.5877  0.3946 -2.0198
 6030TIP3   OH242284   3.465   5.865   9.451  0.1431  0.2011 -0.1590
 6030TIP3    H142285   3.412   5.787   9.433 -0.7778  0.8861 -0.4849
 6030TIP3    H242286   3.446   5.925   9.379  1.1433  0.5929 -0.1223
 6031TIP3   OH242287   1.711   3.138  11.936  0.1185 -0.5013  0.5451
 6031TIP3    H142288   1.699   3.194  11.859  0.1152 -1.5807 -0.2599
 6031TIP3    H242289   1.783   3.079  11.912 -1.7552 -2.7809  0.1718
 6032TIP3   OH242290   4.475   3.061   8.698 -0.1073  0.5335  0.5582
 6032TIP3    H142291   4.483   2.965   8.697 -1.7630  0.2556  3.4368
 6032TIP3    H242292   4.565   3.092   8.711  0.3424 -0.6728  0.4541
 6033TIP3   OH242293   6.703   3.854   9.666 -0.0196  0.0366 -0.2524
 6033TIP3    H142294   6.740   3.910   9.734  1.4335  1.1834 -1.8971
 6033TIP3    H242295   6.777   3.802   9.635 -0.0808  1.1763 -2.4820
 6034TIP3   OH242296   5.795   1.949  10.539 -0.0809 -0.1889 -0.6260
 6034TIP3    H142297   5.859   1.983  10.476  0.1392  0.5128 -0.0284
 6034TIP3    H242298   5.848   1.920  10.613 -0.1278 -3.0487 -1.5952
 6035TIP3   OH242299   6.336   6.253  10.291  0.0015  0.0598 -0.0283
 6035TIP3    H142300   6.388   6.333  10.295  0.5645 -0.0473 -2.9927
 6035TIP3    H242301   6.267   6.272  10.227 -0.4894 -1.4874  0.0007
 6036TIP3   OH242302   5.455   0.419  10.927 -0.0549  0.4534 -0.3438
 6036TIP3    H142303   5.479   0.437  10.836  1.2833 -1.0171 -0.3124
 6036TIP3    H242304   5.495   0.334  10.946 -0.1313  0.8346  1.6848
 6037TIP3   OH242305   6.052   5.697   9.348 -0.2143 -0.1438 -0.7794
 6037TIP3    H142306   6.142   5.670   9.365 -0.1439  0.9985  0.8695
 6037TIP3    H242307   6.038   5.773   9.404 -1.8822  0.3552 -1.7859
 6038TIP3   OH242308   3.587   1.434  10.129  0.5035 -0.3155  0.4981
 6038TIP3    H142309   3.675   1.415  10.096  0.6524  1.5450 -0.2645
 6038TIP3    H242310   3.558   1.510  10.080 -1.9229 -1.3913  0.1151
 6039TIP3   OH242311   2.783   1.134  10.557  0.1791 -0.0847 -0.1818
 6039TIP3    H142312   2.865   1.136  10.508  0.8660 -1.1675  0.8614
 6039TIP3    H242313   2.717   1.110  10.492  1.0710 -1.5347 -0.6131
 6040TIP3   OH242314   0.383   2.868   9.776  0.3766  0.1629 -0.6682
 6040TIP3    H142315   0.442   2.940   9.799  1.2611  0.0281 -2.3069
 6040TIP3    H242316   0.439   2.807   9.727 -0.5895 -1.1576 -0.1614
 6041TIP3   OH242317   6.016   6.470  10.767  0.4685 -0.4263  0.3930
 6041TIP3    H142318   6.028   6.456  10.673 -0.9650  0.4381  0.0620
 6041TIP3    H242319   5.921   6.470  10.780  0.5955  1.0075  1.5849
 6042TIP3   OH242320   0.537   2.397  11.464 -0.2342  0.3495  0.0023
 6042TIP3    H142321   0.457   2.415  11.416 -0.1996  2.3221  0.6013
 6042TIP3    H242322   0.526   2.441  11.548  1.1939  0.0916  0.3626
 6043TIP3   OH242323   0.149   0.316  11.223 -0.1170  0.0936 -0.2077
 6043TIP3    H142324   0.213   0.290  11.157  1.2964  0.0679  1.1163
 6043TIP3    H242325   0.074   0.259  11.208  1.0873 -1.5397 -0.3326
 6044TIP3   OH242326   1.458   4.937  12.646  0.2693 -0.5744  0.2602
 6044TIP3    H142327   1.387   4.988  12.687  0.4570  0.3929 -0.5822
 6044TIP3    H242328   1.414   4.860  12.610 -0.3422 -0.0666 -0.1049
 6045TIP3   OH242329   3.938   3.412  11.422 -0.7958  0.1316  0.3162
 6045TIP3    H142330   3.941   3.438  11.514 -0.9739 -0.7896  0.5977
 6045TIP3    H242331   4.014   3.355  11.411 -1.1729 -0.3356  0.0812
 6046TIP3   OH242332   1.483   6.075  10.199 -0.1331 -0.4899 -0.0086
 6046TIP3    H142333   1.524   6.001  10.155  0.7714  0.1778 -0.3047
 6046TIP3    H242334   1.530   6.083  10.282 -1.1568 -1.1086  0.6523
 6047TIP3   OH242335   4.508   4.466   9.725  0.4045  0.4792  0.3488
 6047TIP3    H142336   4.421   4.476   9.764  0.5795  1.6412  0.4845
 6047TIP3    H242337   4.565   4.446   9.799  0.3941  0.6004  0.3905
 6048TIP3   OH242338   3.054   1.213  11.208 -0.1780 -0.2464  0.2451
 6048TIP3    H142339   2.977   1.187  11.259 -0.3511 -0.9912 -0.3648
 6048TIP3    H242340   3.124   1.156  11.240  0.2540  0.7756  1.1479
 6049TIP3   OH242341   5.486   1.383  10.690  0.2538  0.4898  0.0098
 6049TIP3    H142342   5.454   1.345  10.773  0.6547 -2.1787 -0.9541
 6049TIP3    H242343   5.578   1.401  10.707  0.4443 -0.4474  0.0674
 6050TIP3   OH242344   4.515   3.945  11.652  0.0604 -0.4375 -0.5565
 6050TIP3    H142345   4.554   3.948  11.565  1.5010 -0.6880  0.0484
 6050TIP3    H242346   4.469   4.029  11.661  3.0182  1.2955 -0.2100
 6051TIP3   OH242347   0.636   4.459  11.089  0.2539 -0.3126 -0.0565
 6051TIP3    H142348   0.673   4.374  11.065  0.2576 -0.1171 -0.7804
 6051TIP3    H242349   0.649   4.465  11.183  2.4047 -0.0777 -0.3248
 6052TIP3   OH242350   6.317   3.367   9.321  0.5541 -0.2040  0.2838
 6052TIP3    H142351   6.275   3.336   9.401  2.1314  0.2379  1.3402
 6052TIP3    H242352   6.360   3.289   9.284  1.5988 -0.0219  1.0539
 6053TIP3   OH242353   1.838   2.579  10.684 -0.1845  0.0690  0.2853
 6053TIP3    H142354   1.842   2.489  10.652  0.9650  0.3348 -0.3678
 6053TIP3    H242355   1.913   2.586  10.743 -0.3143  0.5782  0.3916
 6054TIP3   OH242356   5.127   0.697   9.647  0.3709  0.2993 -0.3775
 6054TIP3    H142357   5.096   0.785   9.665  1.8139  0.5814  1.0320
 6054TIP3    H242358   5.153   0.698   9.555 -0.7084  0.9719 -0.6895
 6055TIP3   OH242359   0.763   3.151  10.365 -0.2189 -0.4808 -0.1758
 6055TIP3    H142360   0.802   3.103  10.292 -2.8577 -2.7180 -0.2772
 6055TIP3    H242361   0.710   3.219  10.322 -1.1128 -1.2711 -0.3629
 6056TIP3   OH242362   0.328   4.887  10.450  0.8360  0.4547  0.2165
 6056TIP3    H142363   0.342   4.793  10.436 -1.9873  0.1324 -1.3257
 6056TIP3    H242364   0.355   4.928  10.368  0.1425  0.7128  0.1093
 6057TIP3   OH242365   5.578   2.749   9.074 -0.3006 -0.5249 -0.1052
 6057TIP3    H142366   5.590   2.761   9.168 -1.2896  0.4952 -0.0774
 6057TIP3    H242367   5.646   2.804   9.034 -0.4948 -0.1792  0.0292
 6058TIP3   OH242368   5.240   0.787  10.980  0.3460 -0.6447 -0.4837
 6058TIP3    H142369   5.240   0.865  10.925  1.1991 -0.9608 -0.9336
 6058TIP3    H242370   5.161   0.797  11.034  1.3382  1.4040  0.7131
 6059TIP3   OH242371   0.408   6.119   9.241  0.5795  0.2562 -0.3607
 6059TIP3    H142372   0.329   6.067   9.223  1.3510 -1.2853  0.4817
 6059TIP3    H242373   0.473   6.085   9.180  1.4103 -0.5998  0.9465
 6060TIP3   OH242374   1.313   3.043  10.368 -0.4139  0.0599  0.3708
 6060TIP3    H142375   1.241   2.987  10.398  0.0281 -1.9950 -2.0445
 6060TIP3    H242376   1.270   3.116  10.324 -0.9905  1.0605  2.4723
 6061TIP3   OH242377   1.812   0.719  10.518  0.0453  0.0031  0.0866
 6061TIP3    H142378   1.817   0.814  10.505 -0.3665 -0.3057 -2.9402
 6061TIP3    H242379   1.896   0.686  10.485 -0.1693 -0.7677  0.2923
 6062TIP3   OH242380   5.193   3.428   8.575 -0.3941  0.0759  0.5387
 6062TIP3    H142381   5.103   3.399   8.591 -1.2040  0.2112 -2.9163
 6062TIP3    H242382   5.247   3.354   8.602 -1.7455 -0.9885  0.4534
 6063TIP3   OH242383   2.524   6.009  11.237  0.2467 -0.0873 -0.4071
 6063TIP3    H142384   2.540   5.916  11.223 -2.8286 -0.7283 -0.5038
 6063TIP3    H242385   2.480   6.038  11.157 -0.4276  0.9818  0.3165
 6064TIP3   OH242386   2.015   0.483  11.309 -0.0460  0.3142 -0.4040
 6064TIP3    H142387   2.110   0.487  11.318 -0.2588  1.4030  1.8763
 6064TIP3    H242388   1.994   0.554  11.248  0.5152  0.7837 -0.0644
 6065TIP3   OH242389   0.467   1.684  10.370 -0.0298 -0.0040  0.2800
 6065TIP3    H142390   0.463   1.768  10.416 -3.4971  0.0790  0.1001
 6065TIP3    H242391   0.473   1.619  10.441  0.2550  0.2932  0.5345
 6066TIP3   OH242392   1.431   4.925  10.149  0.0801 -0.0594 -0.1691
 6066TIP3    H142393   1.443   4.879  10.232  1.3103  1.6990  0.6932
 6066TIP3    H242394   1.423   4.855  10.084 -2.3407 -1.5235  1.5420
 6067TIP3   OH242395   2.083   3.297  10.603 -0.2363  0.1267 -0.2123
 6067TIP3    H142396   1.988   3.298  10.592 -0.1369  1.4085 -1.3191
 6067TIP3    H242397   2.115   3.362  10.539  1.3800 -0.3022  0.1091
 6068TIP3   OH242398   4.698   6.225   9.406 -0.2890 -0.2845  0.2329
 6068TIP3    H142399   4.778   6.219   9.352  0.4492 -1.5265  1.4079
 6068TIP3    H242400   4.650   6.145   9.386 -0.9657  0.1828 -0.0227
 6069TIP3   OH242401   1.969   3.515   8.999  0.6847  0.2457  0.1295
 6069TIP3    H142402   1.929   3.434   9.032  1.2955 -0.5141 -0.9244
 6069TIP3    H242403   2.062   3.505   9.018  0.8871  0.2923 -0.8162
 6070TIP3   OH242404   0.246   0.826  12.260 -0.0797  0.3764 -0.5274
 6070TIP3    H142405   0.153   0.822  12.236 -0.1804  0.5660 -0.1789
 6070TIP3    H242406   0.264   0.920  12.270 -0.2019  0.2853  0.7303
 6071TIP3   OH242407   2.601   0.242   9.192 -0.2236  0.6889  0.0325
 6071TIP3    H142408   2.569   0.305   9.256  0.5668  1.2980 -0.1578
 6071TIP3    H242409   2.658   0.183   9.243  0.4479  1.2057 -0.1040
 6072TIP3   OH242410   3.689   2.881   9.589 -0.1044  0.1787  0.4428
 6072TIP3    H142411   3.713   2.806   9.645 -0.4504  0.1730  0.5841
 6072TIP3    H242412   3.710   2.853   9.500 -0.4088 -0.1587  0.4768
 6073TIP3   OH242413   4.989   0.590  10.599 -0.0746 -0.2538  0.3139
 6073TIP3    H142414   4.922   0.549  10.544  0.2082 -0.1187 -0.1385
 6073TIP3    H242415   5.070   0.546  10.574  0.0865 -0.0490  0.4776
 6074TIP3   OH242416   6.336   3.954  10.828 -0.3847  0.4323  0.1746
 6074TIP3    H142417   6.317   3.941  10.736 -1.4457 -0.0891  0.4457
 6074TIP3    H242418   6.280   3.891  10.873  0.6147  0.2092  1.1458
 6075TIP3   OH242419   3.419   4.263  11.532  0.7008 -0.1500 -0.1857
 6075TIP3    H142420   3.357   4.334  11.548  0.2597 -0.9088  1.7228
 6075TIP3    H242421   3.377   4.208  11.466 -1.2651 -1.2336  1.8187
 6076TIP3   OH242422   1.621   2.696   9.550 -0.2857  0.2683  0.2065
 6076TIP3    H142423   1.562   2.647   9.609 -0.5058  1.4082  0.9685
 6076TIP3    H242424   1.701   2.708   9.601  1.0740 -2.1118 -1.1625
 6077TIP3   OH242425   5.650   6.163  11.359  0.3029  0.1508  0.4201
 6077TIP3    H142426   5.586   6.122  11.301  1.4385 -0.3039 -0.5647
 6077TIP3    H242427   5.706   6.215  11.300  1.1528  0.1234  1.1780
 6078TIP3   OH242428   0.553   6.469  11.687 -0.2404 -0.4641 -0.0775
 6078TIP3    H142429   0.571   6.552  11.730  0.7791  0.1010 -1.5250
 6078TIP3    H242430   0.457   6.461  11.690 -0.6389  2.1094 -2.2254
 6079TIP3   OH242431   4.039   5.023  11.501 -0.3478  0.3691 -0.6983
 6079TIP3    H142432   4.107   4.983  11.554  0.2073 -0.2003 -1.7934
 6079TIP3    H242433   4.019   5.106  11.544  1.5987  0.9207 -0.7898
 6080TIP3   OH242434   3.584   6.195  11.391  0.4359 -0.0192 -0.8845
 6080TIP3    H142435   3.539   6.118  11.356 -0.2398 -0.2580  0.4887
 6080TIP3    H242436   3.609   6.170  11.480  2.3628  0.4939 -1.2384
 6081TIP3   OH242437   0.551   6.042  11.706 -0.0997  0.2359  0.4129
 6081TIP3    H142438   0.618   6.065  11.771  1.1865  0.1356 -0.8394
 6081TIP3    H242439   0.563   5.949  11.690 -1.2894 -0.0330  0.9765
 6082TIP3   OH242440   4.779   1.516   9.551 -0.8322  0.1118 -0.0964
 6082TIP3    H142441   4.723   1.463   9.609 -0.2098 -0.9237 -0.4123
 6082TIP3    H242442   4.816   1.453   9.489  3.5467  0.0021  2.2280
 6083TIP3   OH242443   6.356   3.020  12.266 -0.3790 -0.1679  0.3312
 6083TIP3    H142444   6.327   2.980  12.183 -2.2333  0.6295  0.5408
 6083TIP3    H242445   6.327   3.111  12.260  1.6293  0.5637  0.8799
 6084TIP3   OH242446   0.703   4.896  11.020 -0.0857 -0.1703  0.3166
 6084TIP3    H142447   0.760   4.821  11.003 -0.1400 -0.0749 -0.3418
 6084TIP3    H242448   0.748   4.945  11.088  0.0140 -0.7338  0.6657
 6085TIP3   OH242449   6.189   4.058   9.313 -0.4860 -1.1879  0.1454
 6085TIP3    H142450   6.259   4.119   9.335 -0.3773 -1.1335 -0.3449
 6085TIP3    H242451   6.231   3.993   9.257 -0.9556 -0.8247 -0.6405
 6086TIP3   OH242452   4.687   5.822   9.099  0.4755 -0.1488  0.4179
 6086TIP3    H142453   4.727   5.737   9.113 -0.1139 -0.3584  0.8665
 6086TIP3    H242454   4.636   5.811   9.018  0.8635 -0.0512  0.1607
 6087TIP3   OH242455   4.004   5.428   9.140 -0.0135  0.0449 -0.1017
 6087TIP3    H142456   3.930   5.370   9.125  0.7710 -0.9457 -0.2314
 6087TIP3    H242457   3.968   5.502   9.189 -0.9876 -0.6492  0.2375
 6088TIP3   OH242458   2.644   3.738  10.141  0.2578 -0.5245 -0.3192
 6088TIP3    H142459   2.646   3.708  10.231 -2.2061 -3.9885 -1.2206
 6088TIP3    H242460   2.561   3.785  10.132 -1.3815 -3.3968 -1.4802
 6089TIP3   OH242461   5.096   6.297   9.823 -0.3814  0.1263 -0.3148
 6089TIP3    H142462   5.083   6.219   9.877 -0.3031  1.0464  1.0868
 6089TIP3    H242463   5.024   6.355   9.846  0.6952  1.3059  0.2610
 6090TIP3   OH242464   1.251   3.566   9.454 -0.1964  0.2302  0.5320
 6090TIP3    H142465   1.234   3.569   9.548 -0.0550  0.6378  0.5452
 6090TIP3    H242466   1.347   3.572   9.447 -0.1752 -0.2413  0.3808
 6091TIP3   OH242467   5.548   0.142   9.359  0.2224  0.3624  0.1344
 6091TIP3    H142468   5.620   0.195   9.395  0.7123 -0.0258 -0.2502
 6091TIP3    H242469   5.477   0.152   9.422  0.9423 -0.0141  1.0315
 6092TIP3   OH242470   6.522   1.524   9.388  0.0520  0.5487  0.2339
 6092TIP3    H142471   6.452   1.482   9.438 -1.2933 -0.0477 -2.0328
 6092TIP3    H242472   6.523   1.614   9.419  0.3710 -0.1447  2.4206
 6093TIP3   OH242473   0.339   1.074  11.125  0.3419  0.2076  0.0451
 6093TIP3    H142474   0.386   1.078  11.042  1.0413  0.6156  0.4457
 6093TIP3    H242475   0.405   1.046  11.188 -0.1028  0.2146  0.5177
 6094TIP3   OH242476   3.811   3.775   9.322  0.1502 -0.2154  0.4202
 6094TIP3    H142477   3.865   3.729   9.386  1.0427 -1.9666 -1.4782
 6094TIP3    H242478   3.860   3.854   9.302  1.2965 -1.0473 -0.1560
 6095TIP3   OH242479   2.824   0.955  12.717  0.3466 -0.0486 -0.4607
 6095TIP3    H142480   2.809   0.979  12.626  1.3147  0.5799 -0.4740
 6095TIP3    H242481   2.878   0.876  12.712  0.0983 -0.2211 -0.4289
 6096TIP3   OH242482   3.728   5.544   8.403 -0.0942  0.2169 -0.4148
 6096TIP3    H142483   3.814   5.540   8.444  0.8107  0.2778 -2.1826
 6096TIP3    H242484   3.700   5.635   8.415  0.9047  0.6769 -1.2898
 6097TIP3   OH242485   0.538   6.449  11.095  0.0612  0.1844  0.4132
 6097TIP3    H142486   0.507   6.370  11.050 -1.7097  1.2489 -0.4000
 6097TIP3    H242487   0.604   6.418  11.157 -1.5016 -2.1037  1.0678
 6098TIP3   OH242488   0.743   0.515  10.647  0.1618 -0.0675 -1.0500
 6098TIP3    H142489   0.765   0.513  10.740 -0.7932 -4.2657 -0.6917
 6098TIP3    H242490   0.660   0.563  10.643  0.8322  1.2520  0.0153
 6099TIP3   OH242491   6.663   4.330  11.238  0.1439 -0.0215 -0.1868
 6099TIP3    H142492   6.661   4.321  11.143  0.2602 -1.9161 -0.0427
 6099TIP3    H242493   6.604   4.262  11.270  0.9749 -0.1523  1.1271
 6100TIP3   OH242494   4.811   2.252  11.470  0.4962 -0.1774 -0.5822
 6100TIP3    H142495   4.857   2.289  11.394 -1.1557  0.7994 -1.1635
 6100TIP3    H242496   4.745   2.318  11.492  0.6722 -0.6180  1.4850
 6101TIP3   OH242497   0.883   0.014   9.757  0.1208  0.7035 -0.5631
 6101TIP3    H142498   0.818  -0.017   9.694 -0.0526  0.1054 -0.1025
 6101TIP3    H242499   0.833   0.067   9.819 -0.2077 -0.8188  0.5512
 6102TIP3   OH242500   6.352   1.311  10.168  0.3019 -0.3159 -0.3746
 6102TIP3    H142501   6.272   1.314  10.220  1.6411  0.5024  1.7564
 6102TIP3    H242502   6.382   1.402  10.166  0.2837 -0.3004 -2.7047
 6103TIP3   OH242503   2.985   0.225   9.180 -0.0539 -0.0451 -0.1003
 6103TIP3    H142504   3.079   0.226   9.159 -0.2141  0.0796 -0.8299
 6103TIP3    H242505   2.944   0.270   9.107 -0.6939 -0.1491  0.1941
 6104TIP3   OH242506   2.064   2.140  10.166  0.2507  0.2320  0.5431
 6104TIP3    H142507   2.145   2.093  10.187  2.1933  3.6694  1.6520
 6104TIP3    H242508   2.008   2.127  10.243  0.3829 -0.8655  0.4694
 6105TIP3   OH242509   2.536   1.433  12.003  0.2313 -0.0597 -0.5374
 6105TIP3    H142510   2.463   1.493  11.985 -0.3618 -0.4036  0.6248
 6105TIP3    H242511   2.605   1.461  11.943 -0.4246  1.0771 -0.7965
 6106TIP3   OH242512   4.873   6.499   9.513 -0.3766 -0.2610 -0.0105
 6106TIP3    H142513   4.783   6.482   9.539  0.1248 -2.0087  0.7241
 6106TIP3    H242514   4.882   6.453   9.429  0.2443 -1.4287  0.6750
 6107TIP3   OH242515   5.799   3.180  11.402 -0.7877 -0.9884  0.1768
 6107TIP3    H142516   5.745   3.259  11.395 -0.3136 -0.6342  0.4404
 6107TIP3    H242517   5.742   3.110  11.371 -1.6569 -0.7347  1.1196
 6108TIP3   OH242518   1.619   3.589  12.067 -0.2557  0.3749  0.2394
 6108TIP3    H142519   1.644   3.647  12.139  3.0254  1.2389 -1.4457
 6108TIP3    H242520   1.663   3.506  12.086  0.6450  0.6134 -0.7227
 6109TIP3   OH242521   3.874   0.817  11.021 -0.3774  0.0669 -0.4216
 6109TIP3    H142522   3.880   0.796  10.927 -0.4118  0.2312 -0.4616
 6109TIP3    H242523   3.810   0.888  11.025 -0.9294 -0.4420 -0.1951
 6110TIP3   OH242524   1.646   3.085  10.037 -0.5159 -0.5659  0.1430
 6110TIP3    H142525   1.692   3.008  10.072 -0.7649 -0.8543 -0.1566
 6110TIP3    H242526   1.665   3.084   9.943 -1.3253 -0.8301 -0.0285
 6111TIP3   OH242527   6.443   1.353   9.184 -0.4552 -0.0690 -0.2375
 6111TIP3    H142528   6.478   1.420   9.243 -0.5555 -1.1490  1.0964
 6111TIP3    H242529   6.373   1.397   9.135  1.2991  1.5408 -1.4313
 6112TIP3   OH242530   1.215   4.509   9.406 -0.2571 -1.1320 -0.9337
 6112TIP3    H142531   1.228   4.540   9.316 -0.3157 -3.1556 -1.7047
 6112TIP3    H242532   1.295   4.460   9.426  1.3984  2.2387  1.5521
 6113TIP3   OH242533   2.404   6.191  11.798 -0.5015 -0.1241  0.0871
 6113TIP3    H142534   2.414   6.196  11.893  0.2752 -0.1558  0.0101
 6113TIP3    H242535   2.309   6.198  11.783 -0.7286 -1.2902  0.9247
 6114TIP3   OH242536   5.767   6.155  11.596  0.1138 -0.9075  0.3248
 6114TIP3    H142537   5.723   6.153  11.511  1.2372  0.9350 -0.3499
 6114TIP3    H242538   5.727   6.229  11.642 -0.9730 -2.2887  1.7490
 6115TIP3   OH242539   3.911   5.542  11.712  0.1054 -0.0506 -0.5223
 6115TIP3    H142540   3.877   5.617  11.760 -0.2802 -1.2481  1.1872
 6115TIP3    H242541   3.880   5.466  11.762  1.6618 -1.3081 -1.3854
 6116TIP3   OH242542   1.569   3.209  12.805 -0.5405 -0.1728 -0.5690
 6116TIP3    H142543   1.558   3.304  12.801 -1.0247 -0.1046  1.5360
 6116TIP3    H242544   1.481   3.174  12.790 -0.6637 -0.2276  0.2792
 6117TIP3   OH242545   2.112   2.701  10.582 -0.2971 -0.1416 -0.0510
 6117TIP3    H142546   2.093   2.609  10.598 -0.0568 -0.0036  1.1202
 6117TIP3    H242547   2.097   2.713  10.489  0.8067 -1.6404 -0.4637
 6118TIP3   OH242548   1.356   4.161   9.385 -0.1399 -0.4657 -0.2401
 6118TIP3    H142549   1.274   4.148   9.433  0.1345 -0.1908  0.3035
 6118TIP3    H242550   1.335   4.134   9.296 -0.4122 -1.8287  0.2073
 6119TIP3   OH242551   2.755   4.038  11.173  0.5336 -0.1634 -0.3869
 6119TIP3    H142552   2.805   4.067  11.096  0.6670  1.6333  0.3268
 6119TIP3    H242553   2.774   3.944  11.179  0.0543 -0.4945 -2.8606
 6120TIP3   OH242554   3.342   1.900   9.958  0.0914 -0.6704 -0.0829
 6120TIP3    H142555   3.397   1.968   9.997 -0.8286  0.1068 -0.1003
 6120TIP3    H242556   3.259   1.907  10.005 -0.6110 -0.5626 -1.3063
 6121TIP3   OH242557   3.456   5.011   9.018  0.1486  0.2526  0.0174
 6121TIP3    H142558   3.545   4.993   9.047  0.2902  0.3706 -0.3431
 6121TIP3    H242559   3.466   5.066   8.941 -0.2668  2.1788  1.2649
 6122TIP3   OH242560   2.983   1.584  11.753 -0.1095  0.3400  0.1353
 6122TIP3    H142561   2.982   1.650  11.684 -1.8381  0.5660  0.3327
 6122TIP3    H242562   2.901   1.597  11.800  1.0208  0.2167  2.2748
 6123TIP3   OH242563   6.692   6.409  11.179 -0.3641  0.1650  0.0646
 6123TIP3    H142564   6.688   6.473  11.107 -0.3660 -0.0331 -0.1116
 6123TIP3    H242565   6.778   6.368  11.169 -0.3744  0.1198  0.1633
 6124TIP3   OH242566   6.690   5.646   9.147 -0.4436  0.3241 -0.4039
 6124TIP3    H142567   6.695   5.654   9.242  2.4812  2.7665 -0.6102
 6124TIP3    H242568   6.775   5.608   9.122 -1.4064 -0.8641 -2.0479
 6125TIP3   OH242569   5.443   5.039  10.234  0.0410 -0.0787 -0.5290
 6125TIP3    H142570   5.512   4.979  10.263 -0.6424  0.4260  2.4692
 6125TIP3    H242571   5.485   5.125  10.235  0.0823 -0.0830 -1.4093
 6126TIP3   OH242572   3.043   3.876  10.988 -0.4750  0.3677  0.4982
 6126TIP3    H142573   3.026   3.843  10.900  0.0846  2.2981 -0.4027
 6126TIP3    H242574   3.135   3.904  10.985  0.3821 -1.9097  2.5492
 6127TIP3   OH242575   1.622   5.004   9.864 -0.4438  0.1857  0.2317
 6127TIP3    H142576   1.686   5.074   9.851  1.3364 -1.3595  0.2976
 6127TIP3    H242577   1.566   5.008   9.786 -0.0741  1.3444  0.0052
 6128TIP3   OH242578   2.897   3.124  10.926 -0.5392 -0.2581 -0.0090
 6128TIP3    H142579   2.829   3.061  10.902 -0.7872 -1.0589  2.5056
 6128TIP3    H242580   2.936   3.089  11.006  1.3678  1.2959 -0.1782
 6129TIP3   OH242581   2.186   4.783  10.899 -0.5290  0.2672 -0.8708
 6129TIP3    H142582   2.219   4.804  10.811  0.6012 -0.5786 -0.6753
 6129TIP3    H242583   2.230   4.701  10.922 -0.5362  0.6560  0.6394
 6130TIP3   OH242584   2.802   0.342   9.006 -0.0447 -0.7251  0.6218
 6130TIP3    H142585   2.746   0.396   8.951  0.2351 -0.3486  0.7028
 6130TIP3    H242586   2.743   0.305   9.071  0.0818  1.1933  1.9034
 6131TIP3   OH242587   4.873   0.402   8.928 -0.3104 -1.0158  0.6679
 6131TIP3    H142588   4.819   0.461   8.981 -0.4595 -0.1105 -0.4474
 6131TIP3    H242589   4.861   0.316   8.969  1.2900 -0.0636  3.4043
 6132TIP3   OH242590   2.816   4.304  10.508 -0.5944  0.4068 -0.0857
 6132TIP3    H142591   2.751   4.297  10.578 -1.2813  0.9359 -0.6622
 6132TIP3    H242592   2.791   4.238  10.444 -1.5599  1.6847 -1.0843
 6133TIP3   OH242593   6.274   1.038  10.875  0.0742 -0.1160 -0.4891
 6133TIP3    H142594   6.223   1.069  10.949 -0.5364 -0.5240 -0.7328
 6133TIP3    H242595   6.212   0.986  10.823  0.8182 -0.8954 -0.6191
 6134TIP3   OH242596   0.530   3.180   9.768 -0.6664  0.3602 -0.5718
 6134TIP3    H142597   0.610   3.154   9.813 -0.4136 -0.6048 -1.5532
 6134TIP3    H242598   0.558   3.205   9.680 -1.4513 -0.2324 -1.0065
 6135TIP3   OH242599   2.085   4.327   9.598 -0.0904  0.3018 -0.2745
 6135TIP3    H142600   1.998   4.307   9.562  0.3989 -0.3293 -1.1308
 6135TIP3    H242601   2.126   4.381   9.532  0.3864  0.1200 -0.1281
 6136TIP3   OH242602   3.662   1.505   9.197  0.2062  0.7958  0.2208
 6136TIP3    H142603   3.568   1.487   9.202  0.3172  0.3060  0.5673
 6136TIP3    H242604   3.671   1.596   9.227 -0.2149  1.0307 -0.3475
 6137TIP3   OH242605   4.899   3.673  10.360 -0.3507  0.3867  0.2671
 6137TIP3    H142606   4.887   3.672  10.265 -0.5147  0.6881  0.2838
 6137TIP3    H242607   4.986   3.637  10.374 -0.0362  1.0078 -0.0401
 6138TIP3   OH242608   0.474   2.033  10.095 -0.3845 -0.5513 -0.2761
 6138TIP3    H142609   0.455   2.090  10.020 -0.4577 -0.8054 -0.4526
 6138TIP3    H242610   0.441   1.947  10.068 -1.4434 -0.4030  0.4925
 6139TIP3   OH242611   4.897   3.542  10.070  0.4976 -0.0738 -0.2935
 6139TIP3    H142612   4.992   3.533  10.063  0.9136  2.3043  1.0342
 6139TIP3    H242613   4.870   3.470  10.126  1.3052 -1.4711 -1.6246
 6140TIP3   OH242614   6.111   3.384  11.160  0.0699  0.4226  0.0269
 6140TIP3    H142615   6.114   3.384  11.256 -0.0533  0.1352  0.0324
 6140TIP3    H242616   6.191   3.429  11.134  0.2737  0.2042  0.2630
 6141TIP3   OH242617   1.137   5.047   9.923 -0.0232 -0.1762 -0.3400
 6141TIP3    H142618   1.190   5.104   9.978  1.4023 -2.5364  0.8373
 6141TIP3    H242619   1.200   4.994   9.875 -1.2282 -2.6453  0.6484
 6142TIP3   OH242620   3.010   0.812  10.177 -0.5121  0.2855 -0.0074
 6142TIP3    H142621   3.018   0.883  10.240 -2.2928 -1.4034  2.3018
 6142TIP3    H242622   2.974   0.853  10.098 -0.6258  2.0576  0.9256
 6143TIP3   OH242623   6.627   2.716  10.885  0.0593  0.1386  0.3327
 6143TIP3    H142624   6.693   2.708  10.954 -0.0200  0.4980  0.4557
 6143TIP3    H242625   6.670   2.683  10.806 -0.6940 -2.7312  1.0261
 6144TIP3   OH242626   4.096   2.310  10.256 -0.0836 -0.2910  0.3977
 6144TIP3    H142627   4.171   2.334  10.202 -0.4825 -1.2968 -0.6449
 6144TIP3    H242628   4.134   2.292  10.342  0.1873  4.8310  1.7033
 6145TIP3   OH242629   4.953   5.806  10.368 -0.0615 -0.4360 -0.5372
 6145TIP3    H142630   4.912   5.743  10.427 -0.0328 -1.0345 -1.1319
 6145TIP3    H242631   5.014   5.855  10.423 -1.6256  0.5390  0.3659
 6146TIP3   OH242632   2.097   1.867   9.280  0.0522 -0.1113  0.1813
 6146TIP3    H142633   2.191   1.878   9.286  0.0295 -0.6940  2.9428
 6146TIP3    H242634   2.081   1.776   9.304 -1.2118 -0.1254 -0.5748
 6147TIP3   OH242635   6.539   2.001  11.312  0.2713  0.1403 -0.3662
 6147TIP3    H142636   6.543   2.094  11.337  2.5085 -0.0041  0.0725
 6147TIP3    H242637   6.489   2.000  11.230  1.4810  1.9564 -1.2044
 6148TIP3   OH242638   4.987   5.988   9.443  0.2723  0.2680  0.3652
 6148TIP3    H142639   5.010   6.081   9.443 -0.7095  0.5231  0.2357
 6148TIP3    H242640   5.044   5.949   9.377  0.1707  0.9165 -0.1186
 6149TIP3   OH242641   2.935   5.813   8.790 -0.3618 -0.1961 -0.4063
 6149TIP3    H142642   2.847   5.844   8.767  0.0179  0.5219 -0.8879
 6149TIP3    H242643   2.943   5.729   8.743 -0.9273 -0.4553 -0.0569
 6150TIP3   OH242644   3.152   4.221  11.371 -0.1399 -0.3415 -0.4433
 6150TIP3    H142645   3.135   4.203  11.279  0.8780  1.0306 -0.9338
 6150TIP3    H242646   3.079   4.179  11.417 -1.5011  0.1951 -1.9861
 6151TIP3   OH242647   4.636   3.098  11.704 -0.7799 -0.2726 -0.3186
 6151TIP3    H142648   4.668   3.186  11.720  0.0112 -0.1774 -2.1687
 6151TIP3    H242649   4.575   3.081  11.776  0.5195  1.0131  1.1578
 6152TIP3   OH242650   1.565   2.179   9.669 -0.0101 -0.0587  0.0005
 6152TIP3    H142651   1.498   2.141   9.724  0.0335 -1.4572 -0.8668
 6152TIP3    H242652   1.590   2.109   9.609 -0.1949  1.4243 -1.9176
 6153TIP3   OH242653   0.314   6.716  10.482 -0.8131 -0.1960 -0.0691
 6153TIP3    H142654   0.306   6.637  10.536  0.6442 -0.2399  0.1311
 6153TIP3    H242655   0.315   6.684  10.392 -0.5017 -0.3860  0.0007
 6154TIP3   OH242656   4.926   2.391  11.243 -0.5868  0.0697 -0.0500
 6154TIP3    H142657   4.995   2.395  11.176 -0.2049 -3.5153 -0.0509
 6154TIP3    H242658   4.848   2.423  11.198 -0.6729 -3.4370 -2.8761
 6155TIP3   OH242659   4.413   4.442  11.331 -0.0233 -0.3160  1.0663
 6155TIP3    H142660   4.379   4.532  11.338 -1.2345 -0.7198  0.7024
 6155TIP3    H242661   4.365   4.405  11.257  1.6762 -0.7613  0.1369
 6156TIP3   OH242662   3.801   3.564  12.059 -0.2721  0.8512  0.1038
 6156TIP3    H142663   3.888   3.530  12.037 -0.6359  0.4910 -0.7944
 6156TIP3    H242664   3.806   3.658  12.039 -0.7250  0.4674 -1.9977
 6157TIP3   OH242665   6.399   4.212   9.368  0.4846 -0.2069  0.2044
 6157TIP3    H142666   6.407   4.197   9.462  1.5716  0.3146  0.2027
 6157TIP3    H242667   6.457   4.285   9.350  1.0283 -0.9152 -1.0325
 6158TIP3   OH242668   1.563   3.223  10.833  0.3191  0.2117 -0.1978
 6158TIP3    H142669   1.490   3.202  10.775  0.0812 -0.0308  0.1852
 6158TIP3    H242670   1.586   3.313  10.811 -0.4682  0.4880  0.0714
 6159TIP3   OH242671   0.851   2.319   9.010 -0.0247  0.3121 -0.0179
 6159TIP3    H142672   0.853   2.268   8.930 -1.6604  0.2721 -0.0721
 6159TIP3    H242673   0.786   2.275   9.065 -0.4505  1.5112  0.4891
 6160TIP3   OH242674   1.335   4.793  10.690 -0.5504  0.1907  0.6392
 6160TIP3    H142675   1.258   4.845  10.668 -0.7615 -0.1595  0.5470
 6160TIP3    H242676   1.368   4.831  10.771 -0.6786  0.4960  0.5465
 6161TIP3   OH242677   3.065   1.110   8.956 -0.1016  0.0741 -0.2924
 6161TIP3    H142678   3.056   1.020   8.988  2.3100  0.4897  1.9069
 6161TIP3    H242679   2.984   1.153   8.984 -0.6234 -1.0452 -0.0274
 6162TIP3   OH242680   3.368   4.130  10.062 -0.3410  0.6868 -0.3094
 6162TIP3    H142681   3.403   4.126  10.151  2.4050  2.5025 -1.1772
 6162TIP3    H242682   3.357   4.224  10.045 -2.6949  0.3038 -1.2736
 6163TIP3   OH242683   1.559   0.449  11.472 -0.3108 -0.2636 -0.0577
 6163TIP3    H142684   1.563   0.385  11.401  0.4151 -1.0437  0.6690
 6163TIP3    H242685   1.626   0.514  11.449  0.9711 -1.2935  0.6192
 6164TIP3   OH242686   2.592   3.771   9.610 -0.2194  0.5119  0.2045
 6164TIP3    H142687   2.550   3.732   9.534 -0.8866  1.0896  0.2603
 6164TIP3    H242688   2.548   3.730   9.685  0.7047 -0.3467  0.3005
 6165TIP3   OH242689   3.956   6.020  10.226  0.1691 -0.4640 -0.5956
 6165TIP3    H142690   3.868   5.985  10.210 -0.5600  0.8167  0.3623
 6165TIP3    H242691   4.008   5.991  10.151 -1.4045 -0.1853 -1.8429
 6166TIP3   OH242692   5.030   0.267   8.751  0.3758  0.2561  0.1807
 6166TIP3    H142693   5.000   0.314   8.828 -1.2593 -1.9679  1.0219
 6166TIP3    H242694   5.126   0.274   8.754  0.2857  1.1815  1.7494
 6167TIP3   OH242695   5.421   0.849   9.124  0.0485  0.1559  0.5491
 6167TIP3    H142696   5.335   0.879   9.151  1.3150  1.4888  3.5964
 6167TIP3    H242697   5.475   0.854   9.203  3.4189  1.2320 -1.5605
 6168TIP3   OH242698   2.802   1.977   9.782 -0.0291  0.4054  0.1224
 6168TIP3    H142699   2.834   1.955   9.695 -0.9807  0.7824 -0.3422
 6168TIP3    H242700   2.828   1.904   9.837  0.1461 -0.0722 -0.5873
 6169TIP3   OH242701   1.225   5.907  19.958  0.0618 -0.5077  0.0710
 6169TIP3    H142702   1.152   5.968  19.963  0.3821  0.0749 -1.6124
 6169TIP3    H242703   1.303   5.962  19.960  0.4871 -1.1189  1.7461
 6170TIP3   OH242704   5.632   1.119   9.495 -0.6607  0.0012 -0.1028
 6170TIP3    H142705   5.696   1.147   9.430 -1.2877 -1.6655 -1.5067
 6170TIP3    H242706   5.672   1.142   9.579  0.0684  2.4181 -1.0109
 6171TIP3   OH242707   3.097   4.773  11.025 -0.4837  0.3320 -0.1806
 6171TIP3    H142708   3.094   4.731  11.111 -0.0091  0.3814 -0.1356
 6171TIP3    H242709   3.177   4.740  10.984 -0.0750  1.2038 -0.1265
 6172TIP3   OH242710   2.079   0.432  12.634  0.0290  0.1917 -0.0363
 6172TIP3    H142711   2.160   0.465  12.675 -0.9192 -0.1735  2.2992
 6172TIP3    H242712   2.094   0.338  12.625 -0.0785  0.1459  0.2607
 6173TIP3   OH242713   5.176   0.998   9.433  0.0377  0.1384  0.3351
 6173TIP3    H142714   5.266   0.967   9.447  0.0424  0.0380  0.0888
 6173TIP3    H242715   5.185   1.068   9.369  0.0405  0.7495  0.9925
 6174TIP3   OH242716   6.260   3.252   9.910 -0.4895 -0.0075 -0.1349
 6174TIP3    H142717   6.196   3.192   9.946  0.2478 -2.0822 -2.0451
 6174TIP3    H242718   6.305   3.201   9.843  2.0783  1.8616  0.0405
 6175TIP3   OH242719   1.431   4.915  11.675  0.4215 -0.0850 -0.0901
 6175TIP3    H142720   1.426   4.935  11.768 -1.6917 -2.2305  0.3555
 6175TIP3    H242721   1.508   4.963  11.644  0.6917  1.3548  2.5483
 6176TIP3   OH242722   4.615   4.086  12.407  0.0908 -0.2268 -0.4159
 6176TIP3    H142723   4.702   4.080  12.366 -0.9231  1.2876 -3.0658
 6176TIP3    H242724   4.600   4.180  12.417 -0.8713 -0.4927  0.9759
 6177TIP3   OH242725   1.029   0.038  10.639  0.0400 -0.4765 -0.3568
 6177TIP3    H142726   0.993  -0.046  10.669 -0.7992  0.3486  1.0622
 6177TIP3    H242727   1.115   0.044  10.681 -0.1288 -0.3960 -0.0162
 6178TIP3   OH242728   5.141   1.477   9.146  0.7953  0.1248  0.2559
 6178TIP3    H142729   5.220   1.531   9.146 -0.4468  2.0618  1.9796
 6178TIP3    H242730   5.169   1.394   9.185  2.2959  0.1874 -0.5966
 6179TIP3   OH242731   4.814   5.238  10.283  0.2889 -0.0602  0.0091
 6179TIP3    H142732   4.851   5.152  10.264  0.7606 -0.1527  1.2680
 6179TIP3    H242733   4.835   5.291  10.206 -0.2613 -1.1345 -0.9163
 6180TIP3   OH242734   5.049   3.399   9.561 -0.0718  0.3332 -0.2781
 6180TIP3    H142735   5.077   3.345   9.635 -1.5707  0.3246  0.3118
 6180TIP3    H242736   4.953   3.392   9.560 -0.0906 -0.0001 -2.4786
 6181TIP3   OH242737   6.228   6.703   9.853 -0.2406 -0.3512 -0.9586
 6181TIP3    H142738   6.285   6.775   9.827  1.2354 -0.7428  0.9872
 6181TIP3    H242739   6.269   6.624   9.817 -0.7403 -0.4327 -1.3615
 6182TIP3   OH242740   4.394   3.882  10.437  0.2609 -0.0872  0.2114
 6182TIP3    H142741   4.309   3.906  10.473 -0.8878 -2.5560 -0.5930
 6182TIP3    H242742   4.403   3.937  10.359 -1.0012 -0.3310 -0.1347
 6183TIP3   OH242743   3.272   0.047   9.367  0.1380 -0.1495 -0.5149
 6183TIP3    H142744   3.268  -0.045   9.392 -0.2781 -0.0389 -0.1736
 6183TIP3    H242745   3.192   0.086   9.403 -0.6679 -0.0513 -2.2526
 6184TIP3   OH242746   1.107   4.825   9.185  0.3051 -0.4148  0.0233
 6184TIP3    H142747   1.064   4.796   9.265 -1.2951  0.8117 -0.3487
 6184TIP3    H242748   1.036   4.837   9.122  1.3399  0.2857 -1.0560
 6185TIP3   OH242749   1.402   4.443  10.290  0.3005 -0.0373 -0.4405
 6185TIP3    H142750   1.484   4.396  10.307  0.3602 -0.5033 -1.8312
 6185TIP3    H242751   1.409   4.524  10.340  1.1592 -0.5401  0.2756
 6186TIP3   OH242752   5.700   1.504   8.854 -0.6705 -0.1928 -0.8558
 6186TIP3    H142753   5.611   1.477   8.875 -0.7830  1.5098  1.2103
 6186TIP3    H242754   5.753   1.426   8.868 -1.7624 -1.1345 -1.7827
 6187TIP3   OH242755   4.382   6.118   9.609 -0.0729 -0.5802  0.2015
 6187TIP3    H142756   4.312   6.059   9.583  1.6845 -2.5523 -0.3912
 6187TIP3    H242757   4.440   6.063   9.663  0.8089  1.0803  1.0185
 6188TIP3   OH242758   0.586   3.221  11.352  0.5326  0.4026  0.0456
 6188TIP3    H142759   0.655   3.279  11.321  0.3024  0.3703 -0.5288
 6188TIP3    H242760   0.538   3.274  11.416  2.8767 -0.5115  2.7753
 6189TIP3   OH242761   1.606   3.984  11.629  0.3902 -0.2478 -0.1470
 6189TIP3    H142762   1.617   3.978  11.724  0.5533  1.5143 -0.0220
 6189TIP3    H242763   1.555   3.906  11.606 -0.2233 -0.3726  1.4854
 6190TIP3   OH242764   5.914   3.630   9.310  0.0665 -0.0709 -0.3429
 6190TIP3    H142765   5.893   3.655   9.400  1.3591  0.1028 -0.0678
 6190TIP3    H242766   5.967   3.551   9.319 -0.2394 -0.3557 -0.9865
 6191TIP3   OH242767   5.359   4.420  11.498  0.4590 -0.2706 -0.1107
 6191TIP3    H142768   5.418   4.476  11.446  0.6514  0.3381  0.7304
 6191TIP3    H242769   5.389   4.331  11.481  0.4749 -0.0883 -1.0853
 6192TIP3   OH242770   0.383   6.057   9.866  0.1186  0.3148  0.3465
 6192TIP3    H142771   0.461   6.033   9.915 -0.9578  0.1527  2.0451
 6192TIP3    H242772   0.321   6.086   9.932 -0.6396  2.2771 -1.1110
 6193TIP3   OH242773   1.143   6.040  10.620 -0.1610  0.5642 -0.2039
 6193TIP3    H142774   1.146   5.945  10.610  1.1988  0.5672  0.0326
 6193TIP3    H242775   1.060   6.065  10.580  0.4181 -0.4931 -2.1889
 6194TIP3   OH242776   3.631   2.835  11.554 -0.1071 -0.0841  0.0648
 6194TIP3    H142777   3.554   2.826  11.498 -0.9500  2.0541  0.7683
 6194TIP3    H242778   3.692   2.887  11.503  0.4698 -0.8881 -0.0854
 6195TIP3   OH242779   6.471   4.203   8.689 -0.5946  0.8345 -0.1708
 6195TIP3    H142780   6.558   4.165   8.694 -1.7475 -2.0489 -0.1026
 6195TIP3    H242781   6.442   4.208   8.780 -1.9222 -2.0765 -0.3258
 6196TIP3   OH242782   1.944   0.292   9.841  0.1547  0.5016 -0.0794
 6196TIP3    H142783   2.031   0.260   9.865 -1.5134 -2.2642  3.1466
 6196TIP3    H242784   1.901   0.217   9.800 -0.9016  1.6423 -1.1259
 6197TIP3   OH242785   0.533   4.794   9.900  0.0874 -0.0366 -0.8853
 6197TIP3    H142786   0.612   4.848   9.893 -0.6476  1.0181 -1.3284
 6197TIP3    H242787   0.460   4.856   9.891 -0.8000 -0.9758 -0.4343
 6198TIP3   OH242788   6.211   2.914  12.054 -0.2471  0.2533  0.1661
 6198TIP3    H142789   6.157   2.880  11.982 -0.6957  2.3258 -0.5289
 6198TIP3    H242790   6.152   2.972  12.102  0.0865 -0.9859  2.1717
 6199TIP3   OH242791   5.115   0.303  10.824 -0.0888 -0.5021 -0.2018
 6199TIP3    H142792   5.153   0.358  10.892  3.3327 -0.7983 -1.6171
 6199TIP3    H242793   5.033   0.270  10.861 -0.0590  1.9658  2.3812
 6200TIP3   OH242794   0.781   3.825  11.622  0.1953 -0.5047  0.2302
 6200TIP3    H142795   0.738   3.803  11.705  1.0376 -2.6233  0.1788
 6200TIP3    H242796   0.722   3.887  11.580 -0.0681  0.9491  2.5583
 6201TIP3   OH242797   6.574   6.666  11.580 -0.4397  0.8944 -0.0294
 6201TIP3    H142798   6.485   6.671  11.616 -0.0914 -2.9766  1.8859
 6201TIP3    H242799   6.630   6.694  11.652 -0.0085 -0.2900  0.1147
 6202TIP3   OH242800   2.577   1.062  10.402 -0.6289 -0.5745  0.1648
 6202TIP3    H142801   2.522   1.005  10.456 -1.5185 -1.7097 -1.8438
 6202TIP3    H242802   2.628   1.002  10.348  0.6982  0.5277  0.1499
 6203TIP3   OH242803   1.828   2.446   9.960 -0.0078 -0.5129  0.4324
 6203TIP3    H142804   1.813   2.420   9.869  1.3138 -1.7098  0.5362
 6203TIP3    H242805   1.923   2.455   9.968 -0.2294  2.6105  0.9267
 6204TIP3   OH242806   2.979   6.543  10.370  0.0505  0.7911  0.1222
 6204TIP3    H142807   3.040   6.596  10.421 -0.8112  1.2966  0.6599
 6204TIP3    H242808   2.944   6.479  10.433 -0.5783  1.0416  0.0426
 6205TIP3   OH242809   6.357   3.661  10.278  0.1758 -0.0628  0.2508
 6205TIP3    H142810   6.426   3.613  10.231  1.5290  0.2102  1.8443
 6205TIP3    H242811   6.380   3.753  10.265 -0.1016  0.0377  0.4829
 6206TIP3   OH242812   3.631   3.736  11.341  0.0676 -0.3994 -0.6991
 6206TIP3    H142813   3.635   3.674  11.414 -0.4845 -0.3225 -0.5975
 6206TIP3    H242814   3.721   3.742  11.310  0.6474  0.8442  1.0587
 6207TIP3   OH242815   2.184   3.966  10.324 -0.7606  0.1375  0.4307
 6207TIP3    H142816   2.171   4.054  10.288  0.5755  0.6525  1.1256
 6207TIP3    H242817   2.163   3.975  10.417 -0.5104 -0.2403  0.5266
 6208TIP3   OH242818   3.469   4.732   9.721  0.1063  0.3191 -0.1787
 6208TIP3    H142819   3.433   4.821   9.717 -0.7392 -0.0347 -0.7835
 6208TIP3    H242820   3.392   4.675   9.713  0.3924 -0.4969  2.0482
 6209TIP3   OH242821   2.619   0.655  11.338  0.1640 -0.3698  0.4555
 6209TIP3    H142822   2.593   0.667  11.430  0.5957 -0.6767  0.6223
 6209TIP3    H242823   2.711   0.681  11.336 -0.2365  1.1320 -0.2178
 6210TIP3   OH242824   0.049   1.570  10.106 -0.1871 -0.8382  0.2716
 6210TIP3    H142825  -0.019   1.570  10.174 -1.5838 -0.1649 -1.0697
 6210TIP3    H242826   0.131   1.562  10.155 -0.9994  1.3610  2.2159
 6211TIP3   OH242827   2.067   4.362  11.859 -0.0579 -0.3704 -0.1242
 6211TIP3    H142828   2.132   4.415  11.812 -0.7147 -1.3316 -2.2432
 6211TIP3    H242829   2.112   4.280  11.879 -0.5091 -0.9474 -1.3888
 6212TIP3   OH242830   6.077   3.564  10.743  0.1768  0.4172  0.0879
 6212TIP3    H142831   6.107   3.595  10.658  0.6684 -3.6267 -1.4415
 6212TIP3    H242832   5.981   3.564  10.735  0.2209 -0.3143 -0.7165
 6213TIP3   OH242833   0.018   4.857   9.442 -0.3583 -0.1855  0.2258
 6213TIP3    H142834   0.002   4.819   9.529  0.1838 -1.3296 -0.1444
 6213TIP3    H242835   0.015   4.952   9.456  0.3669 -0.3418  1.6315
 6214TIP3   OH242836   3.595   5.955   9.681 -0.1547 -0.6313 -0.4435
 6214TIP3    H142837   3.543   5.930   9.604 -0.9131 -0.6019  0.0402
 6214TIP3    H242838   3.684   5.962   9.649 -0.3153 -1.5264 -1.1216
 6215TIP3   OH242839   4.749   6.403  10.971  0.6575  0.2301 -0.0920
 6215TIP3    H142840   4.730   6.334  11.035 -1.4950  0.4875 -0.3582
 6215TIP3    H242841   4.816   6.365  10.914  0.6343 -1.0428  0.6799
 6216TIP3   OH242842   5.115   5.362   9.280 -0.5320  0.1764 -0.1348
 6216TIP3    H142843   5.057   5.287   9.267  0.0223 -0.3411  0.3263
 6216TIP3    H242844   5.110   5.410   9.198  0.5102 -1.3597 -1.1495
 6217TIP3   OH242845   2.272   5.882   9.472  0.3275  0.3325  0.2002
 6217TIP3    H142846   2.221   5.813   9.515 -2.3097 -0.3792 -3.5290
 6217TIP3    H242847   2.231   5.963   9.500 -1.0845 -0.0895 -0.5481
 6218TIP3   OH242848   3.295   0.238  10.177  0.0162  0.3272  0.2709
 6218TIP3    H142849   3.270   0.167  10.236  1.6957 -1.6101 -1.2145
 6218TIP3    H242850   3.234   0.231  10.104  0.2356  0.3433  0.0837
 6219TIP3   OH242851   3.832   6.283  10.197 -0.3541 -0.3170 -0.0063
 6219TIP3    H142852   3.901   6.345  10.172 -0.4422 -0.2191 -0.0064
 6219TIP3    H242853   3.875   6.197  10.192 -0.4637 -0.3312 -0.8430
 6220TIP3   OH242854   4.134   4.690  10.004  0.0022  0.3134  0.2332
 6220TIP3    H142855   4.157   4.759  10.066 -0.8838 -0.5533  1.5632
 6220TIP3    H242856   4.141   4.732   9.918  2.7180  1.1415  0.7692
 6221TIP3   OH242857   1.651   0.785  11.790 -0.1493 -0.0300 -0.1288
 6221TIP3    H142858   1.613   0.697  11.795  1.0756 -0.5665  0.0664
 6221TIP3    H242859   1.712   0.782  11.717 -0.2555  0.7339 -0.2643
 6222TIP3   OH242860   5.271   5.609   8.749 -0.0754  0.5620  0.1815
 6222TIP3    H142861   5.337   5.563   8.696 -1.9611  1.2461 -3.0600
 6222TIP3    H242862   5.315   5.690   8.776  1.0261  0.1317 -0.2559
 6223TIP3   OH242863   3.560   6.606  11.118 -0.1828  0.6255 -0.1494
 6223TIP3    H142864   3.619   6.622  11.044  1.3268  1.3876  1.1457
 6223TIP3    H242865   3.592   6.523  11.155 -2.2127 -0.8456 -1.4676
 6224TIP3   OH242866   5.766   1.716  10.004  0.2856  0.2137  0.1539
 6224TIP3    H142867   5.848   1.755   9.974  1.1597 -2.3537 -1.0132
 6224TIP3    H242868   5.770   1.723  10.100  2.2222 -0.4591  0.1717
 6225TIP3   OH242869   2.813   0.057   9.297  0.3673 -0.1799 -0.3086
 6225TIP3    H142870   2.830   0.143   9.258  0.3685  0.7720  1.6330
 6225TIP3    H242871   2.900   0.017   9.304  0.6521  0.5609  0.6620
 6226TIP3   OH242872   2.927   1.547  11.392 -0.1319 -0.0279 -0.3453
 6226TIP3    H142873   2.904   1.629  11.349  4.7667  0.9248 -1.7333
 6226TIP3    H242874   2.968   1.494  11.323 -0.0172 -2.2195  1.2705
 6227TIP3   OH242875   0.802   4.724  11.562  0.5834 -0.0143 -0.1474
 6227TIP3    H142876   0.776   4.804  11.608  0.9838 -0.4476  0.8555
 6227TIP3    H242877   0.849   4.756  11.485  1.9228  0.7408  0.9247
 6228TIP3   OH242878   3.084   5.687   8.987  0.1902  0.0621 -0.4289
 6228TIP3    H142879   3.173   5.686   8.951  0.0770  2.9416 -0.9972
 6228TIP3    H242880   3.038   5.751   8.934 -1.4689  0.6210  1.5684
 6229TIP3   OH242881   1.961   6.560  10.884 -0.0763  0.2093 -0.1582
 6229TIP3    H142882   1.993   6.511  10.809  0.4459  0.6853 -0.2486
 6229TIP3    H242883   1.989   6.650  10.868 -0.8061  0.4942  0.1304
 6230TIP3   OH242884   1.795   0.194  10.269  0.0467 -0.2827  0.0749
 6230TIP3    H142885   1.854   0.250  10.218 -0.3697 -0.3756 -0.5275
 6230TIP3    H242886   1.723   0.251  10.294 -0.6583 -0.6512 -1.0168
 6231TIP3   OH242887   6.071   0.109  10.940  0.0974 -0.6919  0.0942
 6231TIP3    H142888   6.074   0.120  10.845  0.5039 -2.2765 -0.1006
 6231TIP3    H242889   5.979   0.091  10.959  0.0273 -0.4372  0.0007
 6232TIP3   OH242890   6.152   3.763  10.128 -0.6299 -0.2519 -0.2686
 6232TIP3    H142891   6.211   3.746  10.202 -0.3587  1.1005 -0.1481
 6232TIP3    H242892   6.210   3.774  10.053 -0.8727 -0.9982 -0.5846
 6233TIP3   OH242893   4.052   5.746   9.413 -0.5148  0.2990  0.4884
 6233TIP3    H142894   3.990   5.675   9.429 -1.2325  0.6150 -0.7135
 6233TIP3    H242895   4.132   5.702   9.383 -0.8412 -0.0349  0.0935
 6234TIP3   OH242896   1.261   5.359  10.353  0.1311  0.4989  0.3986
 6234TIP3    H142897   1.249   5.290  10.419  1.7936  0.2739  0.5009
 6234TIP3    H242898   1.201   5.335  10.283 -0.3803 -0.2494  1.0669
 6235TIP3   OH242899   4.239   5.620   9.826  0.4960  0.2997 -0.0575
 6235TIP3    H142900   4.149   5.652   9.828 -0.4870 -2.2104 -1.0298
 6235TIP3    H242901   4.273   5.651   9.742 -0.1787 -0.4889 -0.6356
 6236TIP3   OH242902   2.883   3.597  11.765  0.1300 -0.6631  0.3700
 6236TIP3    H142903   2.851   3.534  11.702  0.5833  0.0215 -0.5750
 6236TIP3    H242904   2.902   3.676  11.713 -2.9014  1.2224  1.8393
 6237TIP3   OH242905   0.732   5.303  10.938  0.1200  0.2098  0.0860
 6237TIP3    H142906   0.666   5.295  11.006  0.6031  1.4212  0.7263
 6237TIP3    H242907   0.690   5.354  10.868  0.2931  0.7968  0.4026
 6238TIP3   OH242908   3.210   6.364  12.050  0.0960  0.5725  0.2715
 6238TIP3    H142909   3.175   6.353  12.139  2.9310  0.0453  1.4452
 6238TIP3    H242910   3.221   6.458  12.041 -2.4330  0.8521 -0.5399
 6239TIP3   OH242911   1.513   0.890  10.379 -0.1745 -0.1453 -0.0007
 6239TIP3    H142912   1.485   0.980  10.399  0.6753  0.7574 -2.5355
 6239TIP3    H242913   1.603   0.898  10.350 -0.8271 -1.3856 -2.7289
 6240TIP3   OH242914   4.628   3.328   9.339  0.4028  0.1612  0.1490
 6240TIP3    H142915   4.652   3.236   9.334  0.2192 -0.1031  2.6303
 6240TIP3    H242916   4.649   3.364   9.253 -1.4863 -2.6143 -1.6199
 6241TIP3   OH242917   0.288   6.645  11.258 -0.2515  0.7585 -0.3589
 6241TIP3    H142918   0.295   6.622  11.165 -0.6998 -1.2306  0.0559
 6241TIP3    H242919   0.194   6.651  11.274 -0.2459 -0.6427  0.3292
 6242TIP3   OH242920   2.138   4.987  10.441 -0.2122  0.1085  0.7012
 6242TIP3    H142921   2.057   5.032  10.466 -0.9174 -0.2373 -0.8423
 6242TIP3    H242922   2.207   5.039  10.481 -1.1646  0.6884  1.6600
 6243TIP3   OH242923   3.659   3.608  11.572 -0.1222 -0.1892  0.5133
 6243TIP3    H142924   3.680   3.521  11.605  2.1619 -0.7898 -2.1203
 6243TIP3    H242925   3.725   3.666  11.612 -0.2754 -0.0745  0.5999
 6244TIP3   OH242926   3.202   5.370  11.738 -0.2093  0.2869 -0.0362
 6244TIP3    H142927   3.201   5.318  11.819  1.4254 -2.1169 -1.4429
 6244TIP3    H242928   3.110   5.393  11.724 -0.8470 -1.2532  1.2668
 6245TIP3   OH242929   0.674   6.552   9.075 -0.0486  0.2329 -0.5738
 6245TIP3    H142930   0.687   6.644   9.051 -1.5375  0.8504  0.7803
 6245TIP3    H242931   0.762   6.514   9.076  0.9179  2.3029  1.3519
 6246TIP3   OH242932   3.117   2.968   9.989 -0.1267  0.7056 -0.2091
 6246TIP3    H142933   3.078   2.990  10.073 -2.2926  1.8109 -1.4256
 6246TIP3    H242934   3.164   3.047   9.962  0.9612  0.1983  0.1297
 6247TIP3   OH242935   2.538   2.463  10.879 -0.4640 -0.5288 -0.2071
 6247TIP3    H142936   2.470   2.487  10.816 -0.5017 -1.0687 -0.3794
 6247TIP3    H242937   2.496   2.471  10.964 -0.5979 -0.3879 -0.2869
 6248TIP3   OH242938   4.892   0.606   9.733  0.5751 -0.4627 -0.3798
 6248TIP3    H142939   4.846   0.639   9.656  2.0109 -1.4433 -1.7250
 6248TIP3    H242940   4.985   0.625   9.716  0.8067  0.9503  1.9709
 6249TIP3   OH242941   4.391   3.974  11.252 -0.5927 -0.0923 -0.5290
 6249TIP3    H142942   4.473   3.978  11.302 -1.5408 -0.5319  1.1150
 6249TIP3    H242943   4.408   4.027  11.174  0.6449  1.3547  0.6712
 6250TIP3   OH242944   0.807   4.391  10.886  0.1154  0.2919  0.3747
 6250TIP3    H142945   0.822   4.386  10.792  0.4179 -1.0133  0.4705
 6250TIP3    H242946   0.891   4.421  10.922  0.2828 -0.0652  0.2914
 6251TIP3   OH242947   4.393   1.333  10.729 -0.4185 -0.4088 -0.0145
 6251TIP3    H142948   4.391   1.328  10.634 -0.8797  0.0885 -0.0357
 6251TIP3    H242949   4.360   1.248  10.758  0.2744 -0.7816 -0.2868
 6252TIP3   OH242950   4.617   2.538  11.661 -0.4870  0.0500  0.3190
 6252TIP3    H142951   4.700   2.536  11.709 -0.1351 -0.3889 -0.2852
 6252TIP3    H242952   4.563   2.471  11.703 -1.0905  1.3125  1.6430
 6253TIP3   OH242953   2.854   3.742   9.550 -0.6419  0.0761 -0.0944
 6253TIP3    H142954   2.913   3.776   9.616  0.4718 -0.2698 -0.8799
 6253TIP3    H242955   2.766   3.759   9.585 -0.0916  0.0094  1.3981
 6254TIP3   OH242956   3.651   2.927  11.810  0.0464 -0.3696  1.0052
 6254TIP3    H142957   3.737   2.897  11.839  0.8850 -0.0839 -1.0645
 6254TIP3    H242958   3.643   2.898  11.719 -0.3081  2.9979 -0.1957
 6255TIP3   OH242959   0.432   4.279   9.066  0.5398  0.3326 -0.4774
 6255TIP3    H142960   0.426   4.249   9.156  3.3437  0.8455 -0.0322
 6255TIP3    H242961   0.447   4.200   9.014  0.3116  0.1970 -0.3395
 6256TIP3   OH242962   4.620   6.322   9.649 -0.2408  0.6485 -0.1134
 6256TIP3    H142963   4.541   6.363   9.615 -0.3917  0.4293 -0.0341
 6256TIP3    H242964   4.654   6.271   9.575 -2.1134 -2.1342  0.7704
 6257TIP3   OH242965   4.974   5.124   9.292  0.3131  0.0235  0.7062
 6257TIP3    H142966   5.013   5.041   9.317  0.6585  0.6060  2.1888
 6257TIP3    H242967   4.959   5.116   9.197 -0.6642 -2.1182  0.9853
 6258TIP3   OH242968   6.046   1.270  10.750  0.4514  0.1533 -0.1051
 6258TIP3    H142969   6.094   1.353  10.757 -0.1484  0.4120  1.0689
 6258TIP3    H242970   6.088   1.226  10.676  2.6049  0.3024  0.9351
 6259TIP3   OH242971   3.975   2.548  11.291  0.3339  0.0187 -0.6389
 6259TIP3    H142972   3.909   2.542  11.222 -0.0728  0.4980 -0.3049
 6259TIP3    H242973   4.025   2.627  11.269  0.5716 -0.1490 -0.7012
 6260TIP3   OH242974   4.750   5.092  10.767  0.3876 -0.2613  0.3061
 6260TIP3    H142975   4.795   5.095  10.682 -0.3009  0.8735 -0.0452
 6260TIP3    H242976   4.679   5.030  10.753  0.3414 -0.1607  0.0717
 6261TIP3   OH242977   4.617   6.266  11.884 -0.6612  0.1208  0.3171
 6261TIP3    H142978   4.698   6.282  11.836 -0.3139  1.0823  1.1963
 6261TIP3    H242979   4.607   6.342  11.941 -1.8701 -0.2709  0.6561
 6262TIP3   OH242980   3.022   4.896  11.492 -0.3169  0.1496  0.6324
 6262TIP3    H142981   3.034   4.990  11.493 -1.3778  0.2960  1.4584
 6262TIP3    H242982   2.953   4.882  11.426 -0.1919 -0.0526  0.5423
 6263TIP3   OH242983   2.153   0.974  10.026 -0.1280 -0.4177 -0.3538
 6263TIP3    H142984   2.068   0.987   9.983 -0.5558 -2.3550 -0.2057
 6263TIP3    H242985   2.171   1.058  10.068 -2.0738  0.0064 -0.2311
 6264TIP3   OH242986   4.570   6.105  12.124  0.8017 -0.2279 -0.1658
 6264TIP3    H142987   4.517   6.184  12.132 -1.2711 -1.4913 -0.3800
 6264TIP3    H242988   4.660   6.136  12.116  0.0129  2.1068 -0.7771
 6265TIP3   OH242989   3.597   0.126   9.436  0.0301  0.2246  0.0233
 6265TIP3    H142990   3.540   0.189   9.479  0.7208  0.9648 -0.1196
 6265TIP3    H242991   3.665   0.180   9.395  1.6874 -0.7124  1.4365
 6266TIP3   OH242992   0.844   2.831  10.233 -0.4539 -0.2333 -1.0185
 6266TIP3    H142993   0.864   2.774  10.159  0.0774 -1.2026 -0.1482
 6266TIP3    H242994   0.759   2.801  10.265  0.0870 -0.9480 -0.2036
 6267TIP3   OH242995   5.854   0.067   9.102 -0.3722 -0.4610  0.3189
 6267TIP3    H142996   5.908   0.018   9.041  0.5418 -0.6305  1.2360
 6267TIP3    H242997   5.900   0.150   9.115 -1.6456  0.4825 -0.8268
 6268TIP3   OH242998   1.586   1.980  11.475 -0.3846  0.1253 -0.2105
 6268TIP3    H142999   1.657   1.987  11.411  0.5480 -0.4350  0.7152
 6268TIP3    H243000   1.631   1.978  11.560 -1.3767 -1.6918  0.3412
 6269TIP3   OH243001   6.533   5.161  10.045  0.4836 -0.4418  0.0573
 6269TIP3    H143002   6.506   5.089  10.101 -1.3365 -0.2038 -0.4437
 6269TIP3    H243003   6.489   5.238  10.081  1.7803  0.2987  0.1272
 6270TIP3   OH243004   0.010   3.988   9.110 -0.1268 -0.4129 -0.2177
 6270TIP3    H143005   0.028   4.072   9.069  0.8015 -0.3523  0.3050
 6270TIP3    H243006  -0.075   4.000   9.153  0.0191  0.2665 -0.1097
 6271TIP3   OH243007   0.964   2.519   9.840  0.3132  0.2626 -0.0285
 6271TIP3    H143008   0.952   2.460   9.765 -1.7852 -0.3257  0.6906
 6271TIP3    H243009   1.030   2.476   9.894 -1.6551 -1.8932  0.8136
 6272TIP3   OH243010   4.735   2.504   9.354  0.6083  0.2816  0.1498
 6272TIP3    H143011   4.700   2.570   9.414 -1.5424  0.8165 -1.5319
 6272TIP3    H243012   4.827   2.528   9.342  0.2009  2.2110  0.5914
 6273TIP3   OH243013   1.409   4.988  11.209  0.4190 -0.8600 -0.2164
 6273TIP3    H143014   1.351   4.913  11.195  0.1751 -0.7428  0.1547
 6273TIP3    H243015   1.492   4.962  11.169 -0.1659 -0.6384 -1.6203
 6274TIP3   OH243016   2.007   3.653  11.355  0.2865 -0.2948  0.1508
 6274TIP3    H143017   1.933   3.694  11.399 -0.6089 -1.6028 -0.0916
 6274TIP3    H243018   2.081   3.712  11.372 -0.0444 -0.6058  3.1923
 6275TIP3   OH243019   0.745   6.467   9.687  0.3812 -0.0181 -0.3199
 6275TIP3    H143020   0.810   6.415   9.640  0.5284 -0.4277  0.3186
 6275TIP3    H243021   0.781   6.476   9.775 -1.1864 -1.6985  0.5627
 6276TIP3   OH243022   4.962   4.370  10.547 -0.0156 -0.2129  0.2964
 6276TIP3    H143023   5.035   4.323  10.506 -0.1313 -0.4999  0.4113
 6276TIP3    H243024   4.911   4.405  10.474 -0.5009 -1.1510  0.1690
 6277TIP3   OH243025   6.681   4.858  10.163  0.3467 -0.5549 -0.1195
 6277TIP3    H143026   6.679   4.763  10.173 -0.3974 -0.3812  1.8886
 6277TIP3    H243027   6.775   4.880  10.159  0.5950 -1.2408  1.3143
 6278TIP3   OH243028   2.852   5.257  10.408  0.2109 -0.3224  0.3763
 6278TIP3    H143029   2.833   5.235  10.500  1.0814 -0.5193  0.5218
 6278TIP3    H243030   2.804   5.191  10.358 -1.0844  0.3911  0.6451
 6279TIP3   OH243031   4.782   3.966  11.205  0.1943 -1.0187 -0.1144
 6279TIP3    H143032   4.858   3.909  11.199  1.6753  0.8261  0.4086
 6279TIP3    H243033   4.775   4.006  11.118 -1.5296 -2.7269 -0.8506
 6280TIP3   OH243034   2.321   0.171   9.458  0.4016 -0.4770 -0.3653
 6280TIP3    H143035   2.396   0.192   9.514 -0.3500 -1.0480  0.9069
 6280TIP3    H243036   2.315   0.076   9.461 -0.4944 -0.4237 -0.2765
 6281TIP3   OH243037   4.493   2.908   9.643 -0.4720  0.0744 -0.4631
 6281TIP3    H143038   4.408   2.872   9.621 -0.0990  0.1258 -2.1108
 6281TIP3    H243039   4.556   2.845   9.608  0.1586  1.0862 -1.2375
 6282TIP3   OH243040   0.638   0.702  11.577 -0.2869  0.6469  0.4445
 6282TIP3    H143041   0.673   0.661  11.656 -0.5355  1.4442  0.9776
 6282TIP3    H243042   0.690   0.781  11.566 -0.8686  1.0202  0.3409
 6283TIP3   OH243043   6.363   4.724  10.346  0.2871  0.1467  0.4424
 6283TIP3    H143044   6.319   4.639  10.347  1.8154 -0.7261 -0.7006
 6283TIP3    H243045   6.451   4.705  10.378  0.6882  1.2706  0.0444
 6284TIP3   OH243046   2.022   3.200   9.407 -0.5225 -0.5655 -0.5962
 6284TIP3    H143047   2.030   3.258   9.483 -0.8797  1.1444 -1.8067
 6284TIP3    H243048   2.113   3.187   9.378 -0.5359  2.3350 -2.3608
 6285TIP3   OH243049   0.694   0.173   9.902 -0.3379 -0.0595 -0.4413
 6285TIP3    H143050   0.621   0.232   9.885 -1.2449 -1.1650 -0.4676
 6285TIP3    H243051   0.734   0.206   9.982 -0.9219  0.4884 -0.3739
 6286TIP3   OH243052   4.948   0.018   8.817  0.0441  0.1124 -0.1644
 6286TIP3    H143053   4.965   0.091   8.757 -0.5952 -1.3287 -2.1751
 6286TIP3    H243054   4.912  -0.051   8.762  2.9808 -2.7036  1.1386
 6287TIP3   OH243055   5.554   2.202  11.442  0.0971  0.2725  0.4262
 6287TIP3    H143056   5.480   2.221  11.384  0.9938 -0.7203 -1.1097
 6287TIP3    H243057   5.632   2.222  11.390  0.9349  0.0323  1.5423
 6288TIP3   OH243058   6.566   4.370   9.636 -0.1294  0.2676 -0.1423
 6288TIP3    H143059   6.646   4.346   9.591  1.9574  2.5189  2.0669
 6288TIP3    H243060   6.554   4.302   9.702  0.3387  0.2421 -0.0799
 6289TIP3   OH243061   2.945   1.435  12.618  0.2792  0.2511  0.3701
 6289TIP3    H143062   2.912   1.498  12.682 -1.2560  0.2818 -0.4022
 6289TIP3    H243063   2.924   1.349  12.654  1.2501  0.1932  0.8355
 6290TIP3   OH243064   0.305   5.645  11.907  0.2722 -0.8759  0.3786
 6290TIP3    H143065   0.317   5.552  11.887  1.5402 -0.5399 -0.5331
 6290TIP3    H243066   0.382   5.688  11.870 -0.6429  0.6409  0.1431
 6291TIP3   OH243067   2.917   6.713   9.827 -0.2301 -0.0211 -0.1386
 6291TIP3    H143068   2.863   6.706   9.906 -1.9610 -0.7156 -1.3150
 6291TIP3    H243069   2.984   6.645   9.837 -1.4869 -1.2777 -0.0067
 6292TIP3   OH243070   5.931   5.826  10.565 -0.1606  0.2701 -0.6211
 6292TIP3    H143071   5.862   5.838  10.500 -1.1953 -0.6633  0.2696
 6292TIP3    H243072   5.913   5.741  10.605 -0.4704  1.4337  1.9182
 6293TIP3   OH243073   0.637   4.659  10.362 -0.2600 -0.2266  0.0355
 6293TIP3    H143074   0.595   4.690  10.281  1.0366 -0.0280 -0.5785
 6293TIP3    H243075   0.678   4.737  10.399  0.2182 -0.5631  0.2219
 6294TIP3   OH243076   3.624   4.270   8.967  0.1749 -0.4088 -0.6100
 6294TIP3    H143077   3.569   4.213   9.021  1.5028  0.0304  1.3006
 6294TIP3    H243078   3.608   4.358   9.001  1.8448 -0.2429 -0.1557
 6295TIP3   OH243079   5.709   3.235   9.350  0.6272  0.2584 -0.1939
 6295TIP3    H143080   5.686   3.165   9.411 -0.5679  1.0146  0.2599
 6295TIP3    H243081   5.701   3.195   9.264  0.6908 -0.3589  0.0765
 6296TIP3   OH243082   3.440   5.446  10.575 -0.1899 -0.4563  0.7195
 6296TIP3    H143083   3.452   5.358  10.539  2.2984 -0.3242  1.0441
 6296TIP3    H243084   3.482   5.442  10.661 -0.3675  0.9609  0.8896
 6297TIP3   OH243085   3.730   4.460  11.924  0.7471  0.2898  0.3887
 6297TIP3    H143086   3.748   4.499  11.839 -1.1524  1.7600  0.5896
 6297TIP3    H243087   3.674   4.524  11.969  1.0129 -0.7984  2.4294
 6298TIP3   OH243088   3.911   1.094  10.130  0.4403  0.3586  0.2249
 6298TIP3    H143089   3.875   1.103  10.219  0.2392  0.2772  0.1526
 6298TIP3    H243090   4.003   1.072  10.143  0.5586  0.9540  0.4141
 6299TIP3   OH243091   0.600   3.729  11.826 -0.6798  0.3425 -0.3969
 6299TIP3    H143092   0.556   3.716  11.742  1.7637  1.1101 -1.8915
 6299TIP3    H243093   0.580   3.819  11.850 -0.2248  0.5784 -0.8912
 6300TIP3   OH243094   5.501   4.111  11.754  0.8660  0.4521 -0.1112
 6300TIP3    H143095   5.460   4.192  11.784 -0.5296 -0.7950  1.5663
 6300TIP3    H243096   5.554   4.137  11.679  1.2272  3.0584  0.9549
 6301TIP3   OH243097   5.919   3.398  11.624 -0.5619 -0.6669 -0.4816
 6301TIP3    H143098   5.846   3.420  11.681 -0.3971 -1.2888 -0.0207
 6301TIP3    H243099   5.909   3.305  11.606 -0.8445 -0.4057 -1.8152
 6302TIP3   OH243100   4.689   2.254   9.797 -0.3174 -0.4641  0.1509
 6302TIP3    H143101   4.753   2.255   9.726  1.1974  0.3193  1.4523
 6302TIP3    H243102   4.678   2.161   9.817  1.4390 -0.6065  0.7076
 6303TIP3   OH243103   0.701   1.957   8.979 -0.0800  0.5381 -0.3244
 6303TIP3    H143104   0.793   1.945   9.004 -0.1706  1.0695  0.2778
 6303TIP3    H243105   0.652   1.937   9.058 -0.4536  0.7491 -0.5002
 6304TIP3   OH243106   3.343   3.625  11.207  0.4229 -0.0950  0.4184
 6304TIP3    H143107   3.317   3.709  11.245  0.2145 -0.5290  1.2330
 6304TIP3    H243108   3.287   3.616  11.130 -0.2819  0.0250  0.9127
 6305TIP3   OH243109   1.432   1.473  11.247 -0.3874  0.0295 -0.1248
 6305TIP3    H143110   1.469   1.454  11.161 -0.6129  0.3548 -0.2944
 6305TIP3    H243111   1.506   1.503  11.299 -0.4781  1.0953 -0.5849
 6306TIP3   OH243112   0.785   3.931   9.505  0.0171  0.6033 -0.6423
 6306TIP3    H143113   0.872   3.907   9.537 -0.6718 -2.3590 -0.7029
 6306TIP3    H243114   0.726   3.870   9.550 -1.8784  1.5942 -1.6872
 6307TIP3   OH243115   5.189   0.201  10.589 -0.2885  0.1806  0.3347
 6307TIP3    H143116   5.209   0.290  10.559 -0.2597 -0.1493 -0.6723
 6307TIP3    H243117   5.149   0.213  10.675 -0.9596  1.2193 -0.1000
 6308TIP3   OH243118   3.792   4.029  12.350 -0.3701  0.1368 -0.4024
 6308TIP3    H143119   3.870   4.001  12.301  0.2411  0.8854  0.1213
 6308TIP3    H243120   3.810   4.002  12.440 -0.6607  0.4232 -0.2590
 6309TIP3   OH243121   1.747   1.704  11.560  0.4207 -0.4850  0.1010
 6309TIP3    H143122   1.793   1.654  11.628 -0.4488 -1.4040  0.0465
 6309TIP3    H243123   1.715   1.637  11.499 -0.2162  0.1933 -0.3287
 6310TIP3   OH243124   2.844   1.385  11.591 -1.1552 -0.1292 -0.0096
 6310TIP3    H143125   2.790   1.445  11.642 -2.1605 -0.6935 -0.3821
 6310TIP3    H243126   2.898   1.441  11.536 -0.1938  0.4952  1.4854
 6311TIP3   OH243127   3.372   0.731  10.359  0.9628  0.4081 -0.7207
 6311TIP3    H143128   3.363   0.648  10.312  1.8779  0.2633 -0.6503
 6311TIP3    H243129   3.376   0.798  10.290  0.8813  0.3314 -0.7992
 6312TIP3   OH243130   3.042   1.538   9.074  0.1107 -0.6136  0.5366
 6312TIP3    H143131   3.061   1.446   9.056  3.0110  0.1224 -0.6676
 6312TIP3    H243132   3.018   1.574   8.988 -0.3194 -0.0675  0.8785
 6313TIP3   OH243133   1.694   3.114   9.162 -0.0622 -0.0613  0.3837
 6313TIP3    H143134   1.690   3.102   9.067  0.0325 -0.5156  0.4385
 6313TIP3    H243135   1.749   3.043   9.194  0.6299  0.5991  0.6897
 6314TIP3   OH243136   2.984   4.075  10.318  0.1048 -0.6362 -0.0090
 6314TIP3    H143137   2.897   4.106  10.291  0.5071  1.4807  0.8932
 6314TIP3    H243138   2.971   3.982  10.335 -1.5195 -0.7919 -1.7039
 6315TIP3   OH243139   1.838   3.299   9.739  0.2472  0.0106 -0.4389
 6315TIP3    H143140   1.792   3.221   9.769  0.0076  0.6770  1.0171
 6315TIP3    H243141   1.774   3.346   9.686 -0.6449  0.6610  1.1335
 6316TIP3   OH243142   3.384   4.505  10.266 -0.0082  0.3239  0.1596
 6316TIP3    H143143   3.291   4.513  10.285 -0.3806 -2.5151  0.0200
 6316TIP3    H243144   3.425   4.502  10.353 -0.1946  0.3733  0.2509
 6317TIP3   OH243145   4.444   0.576   8.814 -0.1843  0.1238  0.1306
 6317TIP3    H143146   4.438   0.633   8.737  2.6301  0.2908 -0.0765
 6317TIP3    H243147   4.407   0.493   8.786  1.9047 -0.2159 -1.9021
 6318TIP3   OH243148   5.700   0.909  12.066 -0.2957 -0.0663  0.6452
 6318TIP3    H143149   5.712   1.004  12.056 -0.3205  0.0756  1.8296
 6318TIP3    H243150   5.649   0.900  12.146  0.0730 -1.1042  0.7683
 6319TIP3   OH243151   6.270   3.208   9.567  0.0928  0.2031 -0.1179
 6319TIP3    H143152   6.190   3.178   9.522 -0.6359  0.4206  0.9833
 6319TIP3    H243153   6.311   3.127   9.598  0.1279  0.1081 -0.4127
 6320TIP3   OH243154   6.056   6.362  10.178  0.1444 -0.2056  0.2903
 6320TIP3    H143155   6.090   6.447  10.150 -0.1457  0.7470  2.5939
 6320TIP3    H243156   6.109   6.298  10.130  2.2761  1.2443  0.5574
 6321TIP3   OH243157   0.602   4.798   9.007 -0.0847 -0.1117 -0.2529
 6321TIP3    H143158   0.569   4.712   8.982 -0.5864 -0.0527  0.1940
 6321TIP3    H243159   0.608   4.847   8.925 -0.2395 -0.4200 -0.4477
 6322TIP3   OH243160   2.596   2.179  11.551 -0.4403  0.3815 -0.1730
 6322TIP3    H143161   2.570   2.087  11.556  1.7251 -0.3101 -0.4374
 6322TIP3    H243162   2.574   2.216  11.637  0.5754 -0.9591  0.6993
 6323TIP3   OH243163   2.753   3.049  11.583  0.0394 -0.2459 -0.4519
 6323TIP3    H143164   2.798   2.983  11.635  0.7326  0.1140 -0.5923
 6323TIP3    H243165   2.721   3.112  11.648  0.0308 -0.3233 -0.3810
 6324TIP3   OH243166   6.626   4.576  11.327 -0.1767 -0.1465  0.0911
 6324TIP3    H143167   6.705   4.618  11.294 -0.3691 -0.1468 -0.3857
 6324TIP3    H243168   6.636   4.484  11.300 -0.1067 -0.2521  0.4717
 6325TIP3   OH243169   5.344   1.094  11.397  0.5781 -0.4751  0.0473
 6325TIP3    H143170   5.339   0.999  11.401  0.4144 -0.4168  2.1371
 6325TIP3    H243171   5.356   1.122  11.488 -1.0871  1.6055 -0.2901
 6326TIP3   OH243172   0.270   0.723   8.778  0.2429 -0.7541  0.1883
 6326TIP3    H143173   0.176   0.721   8.793  0.4296 -0.7701  1.4948
 6326TIP3    H243174   0.286   0.651   8.717 -0.7405  0.0958 -1.1265
 6327TIP3   OH243175   2.569   1.099   9.406  0.5802  0.2894  0.4688
 6327TIP3    H143176   2.628   1.038   9.361  0.4092  0.3846  0.1104
 6327TIP3    H243177   2.500   1.043   9.442  0.5162  0.2509  0.2885
 6328TIP3   OH243178   6.123   5.205  11.618  0.1867 -0.2506 -0.4327
 6328TIP3    H143179   6.079   5.170  11.695  0.2575 -0.0502 -0.3029
 6328TIP3    H243180   6.204   5.154  11.611  0.3856  0.0208 -0.1276
 6329TIP3   OH243181   2.089   5.841   8.630  0.0538  0.0246 -0.1463
 6329TIP3    H143182   2.077   5.872   8.540 -0.7881 -0.1739 -0.1078
 6329TIP3    H243183   2.006   5.859   8.673  0.3611 -0.1327  0.5218
 6330TIP3   OH243184   2.217   5.408   9.164  0.0701 -0.1698  0.0863
 6330TIP3    H143185   2.179   5.468   9.100 -1.0971 -1.7847 -0.8071
 6330TIP3    H243186   2.271   5.349   9.111  0.2957 -0.6031  0.7984
 6331TIP3   OH243187   1.192   2.070  12.967 -0.6963  0.2885 -0.2044
 6331TIP3    H143188   1.131   2.040  12.900  0.4889 -1.1952 -0.6844
 6331TIP3    H243189   1.278   2.048  12.932  0.0278  0.8889  1.1379
 6332TIP3   OH243190   5.931   4.013   9.194 -0.5919  0.6708 -0.3205
 6332TIP3    H143191   5.880   4.006   9.275 -1.4125  0.1278 -0.8703
 6332TIP3    H243192   6.016   4.047   9.222 -0.8122  0.3369  0.7901
 6333TIP3   OH243193   2.963   4.733  10.328 -0.7068 -0.1611  0.0878
 6333TIP3    H143194   2.978   4.766  10.417 -0.8515  2.7879 -0.8624
 6333TIP3    H243195   2.868   4.725  10.322 -0.7224  0.0245  0.0792
 6334TIP3   OH243196   3.811   0.056  10.101  0.0609 -0.3055 -0.3499
 6334TIP3    H143197   3.781  -0.030  10.070  0.9319 -0.8419  0.2686
 6334TIP3    H243198   3.807   0.050  10.196 -2.2992  1.2268 -0.2807
 6335TIP3   OH243199   4.839   0.913   9.377 -0.1910 -0.3181  0.1818
 6335TIP3    H143200   4.906   0.890   9.312  0.2264  1.1071  0.0590
 6335TIP3    H243201   4.801   0.830   9.404 -0.6466 -0.9432 -2.1760
 6336TIP3   OH243202   5.467   1.184  12.281  0.3793  0.5038  0.1875
 6336TIP3    H143203   5.388   1.234  12.299 -1.1612 -1.6075 -0.2836
 6336TIP3    H243204   5.464   1.166  12.187  0.3835 -1.1689  0.4600
 6337TIP3   OH243205   3.655   3.864   9.630 -1.0635 -0.3916 -0.6459
 6337TIP3    H143206   3.738   3.823   9.652 -0.6919  1.0187  0.7247
 6337TIP3    H243207   3.591   3.793   9.638 -0.0273 -1.4741 -1.6547
 6338TIP3   OH243208   2.632   2.736   9.196  0.5724 -0.4348  0.2252
 6338TIP3    H143209   2.706   2.796   9.201  0.8493 -0.6820 -0.6585
 6338TIP3    H243210   2.659   2.660   9.248  0.0919  0.3093  1.6105
 6339TIP3   OH243211   4.802   1.343  11.976 -0.9521 -0.5908 -0.3477
 6339TIP3    H143212   4.838   1.327  11.889  0.1494 -1.1037  0.1956
 6339TIP3    H243213   4.744   1.268  11.992 -0.6252 -0.8439 -0.3555
 6340TIP3   OH243214   3.625   0.121   9.050  0.3195  0.1081  0.4444
 6340TIP3    H143215   3.580   0.042   9.080  2.6875 -2.3236 -1.8600
 6340TIP3    H243216   3.718   0.104   9.068  0.8146  3.4003  1.8487
 6341TIP3   OH243217   3.836   5.158  11.261  0.6483 -0.7318 -0.4263
 6341TIP3    H143218   3.891   5.186  11.335  0.0656  0.5974 -0.4669
 6341TIP3    H243219   3.794   5.077  11.292  0.3916 -0.1858  0.7290
 6342TIP3   OH243220   6.532   6.403  10.642  0.2314 -0.1787  0.7616
 6342TIP3    H143221   6.497   6.487  10.613  1.2568 -0.3461 -1.1910
 6342TIP3    H243222   6.456   6.352  10.669 -0.7655  0.3736 -0.8752
 6343TIP3   OH243223   4.366   1.348   9.223 -0.1594  0.0322 -0.3474
 6343TIP3    H143224   4.435   1.410   9.245 -0.4490  0.0401  0.5957
 6343TIP3    H243225   4.287   1.401   9.218  0.1928  0.4588 -3.8507
 6344TIP3   OH243226   3.659   2.993  10.526 -0.4992  0.2979 -0.2655
 6344TIP3    H143227   3.602   2.937  10.579 -1.6641  1.5492 -0.1375
 6344TIP3    H243228   3.738   2.941  10.514 -0.1961 -0.0952  2.6289
 6345TIP3   OH243229   3.043   5.011  12.068  0.3200 -0.1111 -0.0218
 6345TIP3    H143230   3.078   4.991  11.981  0.7448 -0.1640  0.1566
 6345TIP3    H243231   3.091   4.954  12.127 -1.0091 -1.1517  0.0934
 6346TIP3   OH243232   6.144   1.063  11.111 -0.0108  0.2471  0.4687
 6346TIP3    H143233   6.139   1.105  11.197 -0.8529 -0.4331  0.7656
 6346TIP3    H243234   6.116   0.973  11.127 -1.7298  0.5112 -0.7897
 6347TIP3   OH243235   5.504   3.324  11.809  0.2459  0.3999 -0.5623
 6347TIP3    H143236   5.460   3.272  11.877 -0.1823  1.0448 -0.3424
 6347TIP3    H243237   5.443   3.394  11.788  0.6081  0.5299 -1.2238
 6348TIP3   OH243238   3.468   4.802   9.400 -0.3250  0.4085  0.1409
 6348TIP3    H143239   3.436   4.715   9.378 -3.2189  1.6020 -0.8919
 6348TIP3    H243240   3.509   4.792   9.486 -0.9500 -1.8842  0.2354
 6349TIP3   OH243241   0.599   2.638  10.484  0.2039 -0.1043 -0.0102
 6349TIP3    H143242   0.619   2.593  10.402 -0.9612 -0.5273 -0.0807
 6349TIP3    H243243   0.514   2.603  10.510 -0.3761  1.4918  0.3300
 6350TIP3   OH243244   5.995   0.695   9.769 -0.4243 -0.0742  0.2848
 6350TIP3    H143245   6.029   0.621   9.719 -1.4678 -0.4724  0.1497
 6350TIP3    H243246   6.073   0.742   9.798  0.2928  1.2139 -3.2206
 6351TIP3   OH243247   6.078   3.279   9.230  0.2418 -0.2346 -0.4827
 6351TIP3    H143248   6.170   3.295   9.253  0.1430 -1.0208  0.5574
 6351TIP3    H243249   6.043   3.231   9.306 -0.9364 -0.2402 -1.0144
 6352TIP3   OH243250   5.636   3.353  11.117 -0.1946 -1.1846  0.1588
 6352TIP3    H143251   5.585   3.300  11.056  0.2367 -0.1391 -1.1482
 6352TIP3    H243252   5.725   3.318  11.109 -0.0933 -0.8930  0.0106
 6353TIP3   OH243253   3.900   4.073   9.773  0.1679  0.1732  0.1906
 6353TIP3    H143254   3.958   4.038   9.841 -0.8774  0.7290  1.4372
 6353TIP3    H243255   3.889   4.165   9.798 -1.1493  0.0943 -0.0660
 6354TIP3   OH243256   2.331   5.293   9.781  0.3278  1.1386 -0.4588
 6354TIP3    H143257   2.240   5.324   9.778 -0.2563  0.0437  2.6300
 6354TIP3    H243258   2.377   5.359   9.833  0.1945 -0.4474  1.8209
 6355TIP3   OH243259   5.723   0.958  11.283 -0.0730  0.2557  0.3391
 6355TIP3    H143260   5.660   0.915  11.341 -0.9914  2.7494  1.3011
 6355TIP3    H243261   5.796   0.896  11.277 -2.6578 -2.9365 -1.1420
 6356TIP3   OH243262   1.091   5.309  10.147 -0.1022  0.1361  0.3942
 6356TIP3    H143263   1.170   5.293  10.095  0.1269 -1.8252  1.2549
 6356TIP3    H243264   1.023   5.329  10.082  0.5353 -0.6653 -0.5432
 6357TIP3   OH243265   1.100   1.033  11.184 -0.0140  0.2185  0.2379
 6357TIP3    H143266   1.046   0.970  11.232 -0.8447 -1.0468 -2.2186
 6357TIP3    H243267   1.185   1.029  11.227 -0.4838 -1.4253  1.1165
 6358TIP3   OH243268   3.981   6.144   9.008 -0.0867  0.5713  0.1138
 6358TIP3    H143269   4.070   6.179   9.008  0.2841 -0.3055  0.8864
 6358TIP3    H243270   3.986   6.068   9.066 -0.5059 -1.6087 -2.5101
 6359TIP3   OH243271   2.327   0.105   9.154  0.6434 -0.2226  0.0842
 6359TIP3    H143272   2.397   0.170   9.168 -0.5491  0.9169  0.9558
 6359TIP3    H243273   2.369   0.021   9.172  1.4115  0.5561  2.2283
 6360TIP3   OH243274   5.129   1.096  10.585 -0.4505 -0.5103  0.2073
 6360TIP3    H143275   5.044   1.103  10.540 -1.1631  1.0834  1.6897
 6360TIP3    H243276   5.139   1.180  10.630  0.9443 -1.4568  1.7598
 6361TIP3   OH243277   5.450   2.209  10.477 -0.3830  0.3139 -0.1769
 6361TIP3    H143278   5.464   2.133  10.420  0.5769 -0.5932  1.2286
 6361TIP3    H243279   5.399   2.176  10.550 -1.5067  1.4452 -0.4125
 6362TIP3   OH243280   1.301   3.577  11.535 -0.4155 -0.5659  0.2958
 6362TIP3    H143281   1.206   3.580  11.544 -0.8066  0.8152 -2.8929
 6362TIP3    H243282   1.328   3.503  11.590 -2.9292  0.6639  3.4808
 6363TIP3   OH243283   1.474   3.955  11.959 -0.1827 -0.4855 -0.1214
 6363TIP3    H143284   1.415   3.941  12.033  0.2720 -0.9946  0.1562
 6363TIP3    H243285   1.424   4.007  11.897 -0.8183 -0.6631  0.2361
 6364TIP3   OH243286   5.727   2.766  11.428  0.0750  0.2707 -0.0920
 6364TIP3    H143287   5.703   2.839  11.370 -0.9240 -0.2363 -0.3424
 6364TIP3    H243288   5.725   2.689  11.371  2.0053  0.1333 -0.0370
 6365TIP3   OH243289   5.955   2.028   9.234  0.0466  0.3764  0.2850
 6365TIP3    H143290   5.959   2.052   9.141  0.2016 -0.7829 -0.0202
 6365TIP3    H243291   5.871   1.984   9.243 -0.3250  1.1836  0.8826
 6366TIP3   OH243292   6.202   2.504   9.411  0.2057  0.4953  0.3411
 6366TIP3    H143293   6.287   2.528   9.374 -0.3524  3.3215  0.7081
 6366TIP3    H243294   6.152   2.474   9.336  0.9805  0.4432 -0.1728
 6367TIP3   OH243295   6.492   0.568  10.031  0.0238 -0.4201 -0.1512
 6367TIP3    H143296   6.512   0.605   9.945  0.6494  1.3093  0.6920
 6367TIP3    H243297   6.429   0.498  10.013  1.1392 -0.9710 -2.1280
 6368TIP3   OH243298   2.662   3.132  10.294  0.4276 -0.2090 -0.2278
 6368TIP3    H143299   2.720   3.093  10.359 -1.3916 -0.0564  1.5708
 6368TIP3    H243300   2.579   3.085  10.304 -0.1096  0.2996 -1.9725
 6369TIP3   OH243301   3.371   4.508   9.310  0.0846  0.1358 -0.0249
 6369TIP3    H143302   3.349   4.419   9.282 -0.1006 -0.5567  2.0974
 6369TIP3    H243303   3.458   4.500   9.348  0.4541  1.0773 -0.6358
 6370TIP3   OH243304   3.265   3.973   9.329  0.2234 -0.1435 -0.2479
 6370TIP3    H143305   3.272   3.946   9.421  1.0354  0.6987 -0.0533
 6370TIP3    H243306   3.192   3.921   9.295 -1.2174  0.7565  1.3151
 6371TIP3   OH243307   6.498   2.736  10.283  0.4508 -0.1111 -0.1913
 6371TIP3    H143308   6.430   2.691  10.332  0.9769 -0.2259  0.4437
 6371TIP3    H243309   6.464   2.825  10.272  0.1947 -0.1701  0.1091
 6372TIP3   OH243310   3.775   0.406   9.270  0.2425  0.1486 -0.9482
 6372TIP3    H143311   3.850   0.348   9.254  0.1875 -0.1969  0.0195
 6372TIP3    H243312   3.803   0.491   9.237  0.5747 -0.2667 -1.7746
 6373TIP3   OH243313   4.256   3.476  11.681 -0.3795  0.6163  0.2047
 6373TIP3    H143314   4.351   3.486  11.673  0.1711 -3.7344 -1.8212
 6373TIP3    H243315   4.244   3.427  11.763 -0.8017  0.4807  0.0655
 6374TIP3   OH243316   6.112   2.781   9.597 -0.4727  0.3135 -0.4223
 6374TIP3    H143317   6.140   2.831   9.674 -0.4935  1.3058 -1.0447
 6374TIP3    H243318   6.180   2.715   9.586 -0.7300 -0.1591  0.7386
 6375TIP3   OH243319   1.314   1.785   8.954  0.4901 -0.1257 -0.0968
 6375TIP3    H143320   1.400   1.822   8.976  0.2469 -0.3979  1.3918
 6375TIP3    H243321   1.255   1.860   8.953  0.6717  0.0170 -0.8013
 6376TIP3   OH243322   2.321   2.711   9.383 -0.5662 -0.4953  0.5398
 6376TIP3    H143323   2.342   2.727   9.475  0.5166  0.2525  0.1796
 6376TIP3    H243324   2.226   2.710   9.380 -0.6470  1.1510  1.3980
 6377TIP3   OH243325   0.931   1.106  12.665  0.8564 -0.5108 -0.3144
 6377TIP3    H143326   0.883   1.188  12.678 -0.5975 -1.3030 -0.4133
 6377TIP3    H243327   0.998   1.107  12.733 -0.5948 -0.2594  1.2052
 6378TIP3   OH243328   5.422   2.585   8.902 -0.2472 -0.3631 -0.8597
 6378TIP3    H143329   5.481   2.519   8.867  0.2716 -0.4560  0.1539
 6378TIP3    H243330   5.479   2.645   8.951 -0.7970  0.4383 -1.1758
 6379TIP3   OH243331   3.035   1.370   9.920  0.6446 -0.3329  0.6867
 6379TIP3    H143332   2.978   1.392   9.846 -0.8337 -1.3505  1.4532
 6379TIP3    H243333   3.087   1.449   9.936 -0.5594  0.6455 -0.0680
 6380TIP3   OH243334   0.580   3.877  10.033 -0.0720  0.4450  0.0131
 6380TIP3    H143335   0.611   3.803   9.980 -0.7269  0.8726 -0.9922
 6380TIP3    H243336   0.519   3.838  10.096  0.5748 -0.0404  0.3575
 6381TIP3   OH243337   2.003   2.595   9.066  0.3131  0.1386 -0.2951
 6381TIP3    H143338   2.008   2.690   9.059  1.5159  0.0681 -0.6490
 6381TIP3    H243339   2.094   2.566   9.061  0.0842 -0.9457  1.2269
 6382TIP3   OH243340   0.427   5.386  10.998 -0.1440 -0.0244  0.0181
 6382TIP3    H143341   0.344   5.428  11.022 -0.6589 -1.6951  1.3402
 6382TIP3    H243342   0.440   5.318  11.064  2.5017  0.4352  0.0717
 6383TIP3   OH243343   1.439   3.459   9.735  0.4382 -0.4874  0.4745
 6383TIP3    H143344   1.506   3.493   9.795 -0.9015  1.8534  0.8084
 6383TIP3    H243345   1.475   3.473   9.648  0.4173  0.7925  0.6479
 6384TIP3   OH243346   4.349   4.700  12.166  0.0465 -0.1950  0.2368
 6384TIP3    H143347   4.388   4.631  12.112  1.6323 -0.7324  1.9559
 6384TIP3    H243348   4.375   4.781  12.124 -0.4588 -0.6132 -0.9171
 6385TIP3   OH243349   0.166   1.556   9.700 -0.2938  0.2230  0.0397
 6385TIP3    H143350   0.200   1.479   9.654 -0.4289  0.4119 -0.3804
 6385TIP3    H243351   0.209   1.630   9.657  0.2594  0.3600  0.8047
 6386TIP3   OH243352   0.289   0.776  10.640  0.2692  0.6143  0.6010
 6386TIP3    H143353   0.215   0.717  10.627  0.8894 -0.0988  0.2658
 6386TIP3    H243354   0.262   0.832  10.712 -0.3902  0.0251  0.8242
 6387TIP3   OH243355   5.594   4.681  10.208  0.0484  0.2986 -0.1937
 6387TIP3    H143356   5.633   4.691  10.122  0.3431 -1.2518 -0.2549
 6387TIP3    H243357   5.501   4.663  10.191 -0.1636  1.2393 -0.1236
 6388TIP3   OH243358   0.423   5.771   9.196  0.0017  0.3110 -0.2845
 6388TIP3    H143359   0.499   5.822   9.223  0.4444 -0.1220 -0.7038
 6388TIP3    H243360   0.361   5.781   9.269  1.5930 -1.7544  1.4689
 6389TIP3   OH243361   2.829   1.832  10.751  0.1825 -0.0602  0.1067
 6389TIP3    H143362   2.792   1.910  10.708 -0.2737  0.0066  0.6012
 6389TIP3    H243363   2.772   1.818  10.826  1.0168 -0.1297  0.7341
 6390TIP3   OH243364   3.753   0.767  10.751  0.2325 -0.0995  0.1330
 6390TIP3    H143365   3.665   0.757  10.713  1.4114 -2.6623 -2.2427
 6390TIP3    H243366   3.782   0.853  10.721 -1.4066  0.8148  0.9881
 6391TIP3   OH243367   0.630   5.883   9.453 -0.6881 -0.9198 -0.1697
 6391TIP3    H143368   0.651   5.858   9.543  2.0421 -1.5679 -0.8972
 6391TIP3    H243369   0.564   5.952   9.462 -0.1823 -0.6613  2.3347
 6392TIP3   OH243370   0.844   5.163  11.380  0.2904 -0.1914 -0.6889
 6392TIP3    H143371   0.865   5.240  11.327 -0.0727  1.1706  1.0118
 6392TIP3    H243372   0.760   5.186  11.421  1.8587  0.1700  2.6780
 6393TIP3   OH243373   3.213   0.681  11.351  0.0646 -0.2099  0.3526
 6393TIP3    H143374   3.172   0.607  11.394 -0.2778 -0.6442 -0.6772
 6393TIP3    H243375   3.156   0.699  11.275  1.0041  0.0859 -0.2962
 6394TIP3   OH243376   5.074   4.346   9.833 -0.1633 -0.0036  0.5375
 6394TIP3    H143377   5.080   4.437   9.861  1.5609  0.8703 -2.2752
 6394TIP3    H243378   5.156   4.306   9.861 -1.0926 -0.8953  2.1530
 6395TIP3   OH243379   5.867   2.026  11.533  0.1736 -0.0596  0.4213
 6395TIP3    H143380   5.804   2.001  11.599 -1.0659  2.6713  0.4170
 6395TIP3    H243381   5.821   2.014  11.450  1.2486 -2.1855  0.0798
 6396TIP3   OH243382   4.699   2.208  19.252 -0.6989  0.2453 -0.3134
 6396TIP3    H143383   4.618   2.248  19.283 -0.4903  0.9991 -0.7282
 6396TIP3    H243384   4.684   2.114  19.261 -1.3019  0.4025  0.4011
 6397TIP3   OH243385   5.056   4.613  10.305 -0.1483 -0.7005 -0.4596
 6397TIP3    H143386   5.009   4.690  10.337 -0.0119 -1.2272  1.0955
 6397TIP3    H243387   4.988   4.549  10.285 -0.4114  0.3689 -3.5654
 6398TIP3   OH243388   5.827   0.560  10.100 -0.2411  0.4821  0.0457
 6398TIP3    H143389   5.899   0.623  10.098  0.1641  0.0884  1.4307
 6398TIP3    H243390   5.769   0.588  10.029  0.8130  1.3471 -0.5101
 6399TIP3   OH243391   0.665   6.364   9.333 -0.1724 -0.1576 -0.1536
 6399TIP3    H143392   0.749   6.318   9.324 -0.3862 -0.4972 -0.4675
 6399TIP3    H243393   0.666   6.430   9.265 -0.8033 -1.1846 -1.2007
 6400TIP3   OH243394   0.685   1.877  10.617 -0.5563 -0.3612 -0.0439
 6400TIP3    H143395   0.590   1.875  10.609 -0.5192 -2.9063 -0.9759
 6400TIP3    H243396   0.705   1.808  10.681  0.7150 -1.4693 -1.5588
 6401TIP3   OH243397   0.028   4.061  12.345 -0.1011 -0.2821  0.3933
 6401TIP3    H143398  -0.064   4.038  12.335 -0.4745  1.3627 -0.3044
 6401TIP3    H243399   0.032   4.154  12.320  1.7021 -0.2689  0.6316
 6402TIP3   OH243400   4.730   1.900   9.358  0.0523 -0.3142  0.2060
 6402TIP3    H143401   4.754   1.868   9.272 -2.0134 -2.0037  0.1703
 6402TIP3    H243402   4.677   1.830   9.396 -1.0310  1.3178  1.9044
 6403TIP3   OH243403   5.701   2.404  10.854 -0.3017 -0.7316  0.0055
 6403TIP3    H143404   5.784   2.362  10.876  0.8203  0.7253 -1.1840
 6403TIP3    H243405   5.700   2.483  10.908  0.6269  0.8458 -2.1370
 6404TIP3   OH243406   2.146   5.518   8.928  0.4872  0.1647 -0.0722
 6404TIP3    H143407   2.184   5.577   8.862  0.1671  1.4755  0.8687
 6404TIP3    H243408   2.066   5.562   8.956 -0.0413 -0.9927  0.2999
 6405TIP3   OH243409   0.236   3.921  10.875 -0.0748 -0.3527  0.3616
 6405TIP3    H143410   0.171   3.903  10.942 -0.1025 -4.6981 -0.5342
 6405TIP3    H243411   0.185   3.932  10.795  0.1497  0.5751  0.3369
 6406TIP3   OH243412   6.191   2.269   9.730 -0.4469 -0.6152  0.3065
 6406TIP3    H143413   6.217   2.360   9.714 -1.5551 -0.4403 -0.6677
 6406TIP3    H243414   6.248   2.217   9.674 -0.1964 -0.4791  0.4349
 6407TIP3   OH243415   0.299   6.614   9.317 -0.2819  0.0569  0.0745
 6407TIP3    H143416   0.343   6.557   9.254 -2.6132  0.3225 -1.9497
 6407TIP3    H243417   0.336   6.589   9.401  1.5322 -1.7486 -1.1455
 6408TIP3   OH243418   2.285   6.372  10.070  0.4161  0.3893 -0.3783
 6408TIP3    H143419   2.280   6.382  10.165 -0.3152 -1.9270 -0.1110
 6408TIP3    H243420   2.374   6.341  10.054  0.3270  0.1239 -0.3650
 6409TIP3   OH243421   0.304   4.914   9.586 -0.2135 -0.3827 -1.0000
 6409TIP3    H143422   0.232   4.853   9.601  0.0936 -0.1332  2.2463
 6409TIP3    H243423   0.263   4.993   9.552 -1.0329 -1.2345 -2.0563
 6410TIP3   OH243424   2.433   1.433  11.496  0.0206  0.3487 -0.7292
 6410TIP3    H143425   2.478   1.477  11.424  1.3332  0.1815 -0.0421
 6410TIP3    H243426   2.463   1.342  11.492 -0.8917  0.0352 -0.7381
 6411TIP3   OH243427   0.133   0.152  11.717  0.1557  0.1453  0.3563
 6411TIP3    H143428   0.212   0.148  11.662 -0.9350 -0.2169 -1.2651
 6411TIP3    H243429   0.062   0.169  11.655 -1.4079 -2.2554  1.3408
 6412TIP3   OH243430   6.390   0.228  10.949  0.7200  0.3840 -0.3795
 6412TIP3    H143431   6.422   0.153  10.899  0.7113 -0.0661  0.2805
 6412TIP3    H243432   6.465   0.287  10.955  1.3435 -0.4857  0.8235
 6413TIP3   OH243433   0.305   2.167  11.492  0.8027  0.0924  0.0875
 6413TIP3    H143434   0.265   2.226  11.556  0.8343  0.4480 -0.2168
 6413TIP3    H243435   0.314   2.220  11.413  1.8892  0.0206  0.1555
 6414TIP3   OH243436   0.664   1.298   9.653 -0.0826  0.5897 -0.0118
 6414TIP3    H143437   0.606   1.373   9.643 -0.7892  0.4434  2.3119
 6414TIP3    H243438   0.752   1.336   9.654 -0.0835  0.8718 -2.9786
 6415TIP3   OH243439   4.545   1.849  10.831 -0.3489 -0.0912 -0.3912
 6415TIP3    H143440   4.500   1.874  10.911 -0.2199  0.1443 -0.3911
 6415TIP3    H243441   4.590   1.767  10.854  1.6391  1.1691  0.5208
 6416TIP3   OH243442   1.667   3.667   9.231  0.3977 -0.0970  0.0507
 6416TIP3    H143443   1.594   3.682   9.290  0.3244 -1.7197  0.4242
 6416TIP3    H243444   1.658   3.576   9.204  1.6820 -0.0258 -0.7349
 6417TIP3   OH243445   4.318   4.559  10.483  0.8057 -0.4959 -0.2958
 6417TIP3    H143446   4.361   4.637  10.517  1.5969 -1.3869  0.8389
 6417TIP3    H243447   4.303   4.504  10.560 -5.0485  0.8606 -0.0358
 6418TIP3   OH243448   0.867   4.385  11.908 -0.3268 -0.3002 -0.0423
 6418TIP3    H143449   0.833   4.474  11.899  1.9294  0.7354  0.7028
 6418TIP3    H243450   0.843   4.359  11.996  0.0567  0.1094  0.1939
 6419TIP3   OH243451   1.081   1.241  11.871  0.4065 -0.1621 -0.4501
 6419TIP3    H143452   1.026   1.311  11.837  0.8385  0.8067  0.7695
 6419TIP3    H243453   1.128   1.209  11.794 -0.3253  0.3991 -1.1532
 6420TIP3   OH243454   6.368   0.382   8.851  0.1703 -0.0143 -0.0840
 6420TIP3    H143455   6.284   0.426   8.845  0.2697  0.1752 -0.0679
 6420TIP3    H243456   6.366   0.316   8.781  0.9621  1.5601 -1.6557
 6421TIP3   OH243457   4.569   5.262   9.905  0.2198  0.5753  0.1404
 6421TIP3    H143458   4.486   5.275   9.860 -0.3914  0.7878  1.3130
 6421TIP3    H243459   4.623   5.337   9.877 -0.1579  0.7278 -0.1967
 6422TIP3   OH243460   0.170   0.236   9.665 -0.5787 -0.4294 -0.3269
 6422TIP3    H143461   0.108   0.303   9.636 -0.5523  0.1081  0.8161
 6422TIP3    H243462   0.129   0.153   9.642 -0.4144 -0.0481 -2.1749
 6423TIP3   OH243463   4.821   3.969  10.089  0.4575  0.6456  0.1995
 6423TIP3    H143464   4.828   4.030  10.016 -1.0125  1.3836  0.6388
 6423TIP3    H243465   4.892   3.906  10.075 -0.2966  0.2706 -2.3147
 6424TIP3   OH243466   1.366   0.411  12.561 -0.0097  0.2854 -0.1627
 6424TIP3    H143467   1.321   0.338  12.520  0.4886 -0.5346  0.7042
 6424TIP3    H243468   1.299   0.456  12.612 -0.0457 -0.4432  0.4624
 6425TIP3   OH243469   3.073   5.275  11.957 -0.0852 -0.0123 -0.0253
 6425TIP3    H143470   3.061   5.183  11.979  0.8959 -0.3732 -0.9428
 6425TIP3    H243471   2.991   5.317  11.983 -0.2028 -0.9719  1.2402
 6426TIP3   OH243472   1.996   6.257  10.408 -0.1447  0.3513 -0.0486
 6426TIP3    H143473   1.917   6.283  10.360 -0.6339  0.7183  0.9432
 6426TIP3    H243474   2.044   6.202  10.346 -0.8867  0.6103 -0.8729
 6427TIP3   OH243475   1.076   4.338  11.251 -0.3955 -0.0315 -0.2245
 6427TIP3    H143476   1.120   4.253  11.253  0.1778  0.2309 -1.0972
 6427TIP3    H243477   1.007   4.331  11.317 -0.5726 -1.2920 -0.5220
 6428TIP3   OH243478   1.062   5.800   8.793  0.1292 -0.2731 -0.3038
 6428TIP3    H143479   1.094   5.888   8.814 -0.0583 -0.1156 -0.6761
 6428TIP3    H243480   0.978   5.794   8.838  0.9526 -0.9299  1.2324
 6429TIP3   OH243481   2.492   4.623   9.229 -0.4296 -0.0785 -0.1297
 6429TIP3    H143482   2.457   4.534   9.222 -0.1443 -0.1628 -0.5126
 6429TIP3    H243483   2.587   4.610   9.232 -0.3842  0.2202 -0.3020
 6430TIP3   OH243484   2.337   2.193   9.257  0.0573 -0.5702  0.6670
 6430TIP3    H143485   2.376   2.267   9.210 -0.4487 -0.1271  0.9342
 6430TIP3    H243486   2.274   2.157   9.194  2.3049 -2.6136 -0.6009
 6431TIP3   OH243487   2.855   1.763   9.971  0.4016  0.1002  0.5365
 6431TIP3    H143488   2.830   1.675   9.998  1.6333 -0.4335  0.0557
 6431TIP3    H243489   2.935   1.782  10.020  0.0598  1.0331  0.7657
 6432TIP3   OH243490   0.066   3.179  11.637 -0.1033  0.3391  0.3132
 6432TIP3    H143491   0.088   3.087  11.648 -1.9815 -0.4099 -1.5495
 6432TIP3    H243492   0.028   3.185  11.549  3.6019  3.6645 -1.3667
 6433TIP3   OH243493   2.033   6.680  10.554 -0.5001  0.0311  0.3968
 6433TIP3    H143494   2.126   6.660  10.559 -0.0139  1.6687 -1.1079
 6433TIP3    H243495   2.002   6.628  10.480 -1.0862 -1.4040  1.5974
 6434TIP3   OH243496   6.329   3.778   9.889  0.1313 -0.1687 -0.2824
 6434TIP3    H143497   6.310   3.686   9.908  0.8693 -0.1558  0.5536
 6434TIP3    H243498   6.424   3.781   9.877  0.1203  0.5003 -0.2464
 6435TIP3   OH243499   0.088   3.948  11.495  0.1624 -0.1858 -0.1578
 6435TIP3    H143500   0.060   3.943  11.587  2.0256 -1.4414  0.3963
 6435TIP3    H243501   0.176   3.984  11.499  0.3852 -0.5485 -1.4313
 6436TIP3   OH243502   1.917   3.920  11.684 -0.0226 -0.1150 -0.2315
 6436TIP3    H143503   1.859   3.864  11.735 -2.2367  0.1627 -2.2693
 6436TIP3    H243504   2.005   3.893  11.710 -1.0247 -1.7744  1.7333
 6437TIP3   OH243505   2.770   4.567   9.360 -0.2610  0.1417  0.7017
 6437TIP3    H143506   2.780   4.647   9.413 -0.9863  0.2493  0.6865
 6437TIP3    H243507   2.843   4.512   9.386  0.2639  0.8248  0.6961
 6438TIP3   OH243508   4.007   6.227   9.610  0.1154  0.2037 -0.4234
 6438TIP3    H143509   4.023   6.234   9.704 -0.1089  1.5171 -0.4576
 6438TIP3    H243510   4.054   6.302   9.572  0.3006 -0.3690 -1.3773
 6439TIP3   OH243511   2.738   2.929   9.911  1.0801 -0.0563 -0.2730
 6439TIP3    H143512   2.679   2.866   9.952  1.5935 -0.2068  0.2495
 6439TIP3    H243513   2.704   3.015   9.936  0.5539 -0.1261 -0.7355
 6440TIP3   OH243514   1.843   3.742   8.930 -0.2891 -0.5548 -0.1630
 6440TIP3    H143515   1.915   3.755   8.992 -1.2468  0.4837  0.7788
 6440TIP3    H243516   1.838   3.647   8.918  0.6142 -0.6945  0.5151
 6441TIP3   OH243517   5.727   2.871   9.776 -0.1330  0.2636 -0.1311
 6441TIP3    H143518   5.700   2.806   9.841 -1.5695  0.6658 -0.2924
 6441TIP3    H243519   5.744   2.819   9.697  2.0281 -0.2761  0.6164
 6442TIP3   OH243520   4.854   2.709  10.531 -0.1391  0.0573 -0.1097
 6442TIP3    H143521   4.906   2.730  10.608  1.1042  0.1454 -0.9443
 6442TIP3    H243522   4.884   2.622  10.504 -2.6100 -1.3059  1.1371
 6443TIP3   OH243523   3.676   0.734  10.366 -0.5869  0.3061  0.1895
 6443TIP3    H143524   3.626   0.738  10.448 -1.9212 -2.2468 -0.3864
 6443TIP3    H243525   3.613   0.755  10.298  0.1028  0.8022 -0.3034
 6444TIP3   OH243526   2.202   3.593   9.536 -0.0385  0.3435  0.0028
 6444TIP3    H143527   2.281   3.612   9.485 -0.4004 -0.3344 -0.8247
 6444TIP3    H243528   2.130   3.612   9.476 -0.4659 -0.9588  0.0817
 6445TIP3   OH243529   2.874   3.031   8.983  0.2148  0.0278 -0.2106
 6445TIP3    H143530   2.867   2.969   8.910 -2.1249 -1.8877  1.4400
 6445TIP3    H243531   2.792   3.080   8.981 -0.2170 -0.5490  1.4625
 6446TIP3   OH243532   1.553   1.916   9.048  0.2842  0.0681  0.1077
 6446TIP3    H143533   1.625   1.861   9.079 -1.0772 -1.2538  1.0897
 6446TIP3    H243534   1.548   1.988   9.112  0.3921 -0.1407  0.3506
 6447TIP3   OH243535   4.776   2.412  12.313  0.3926  0.1289 -0.2446
 6447TIP3    H143536   4.824   2.367  12.244  3.0269  1.1854  0.7655
 6447TIP3    H243537   4.759   2.344  12.378 -0.1907 -0.4216 -0.9574
 6448TIP3   OH243538   4.446   2.909   9.297  0.1729 -0.8343  0.0157
 6448TIP3    H143539   4.522   2.965   9.281 -0.4328 -0.2225 -0.7881
 6448TIP3    H243540   4.385   2.966   9.344 -0.5006 -0.7759 -0.9200
 6449TIP3   OH243541   5.464   0.610   9.965  0.2891 -0.6780  0.3392
 6449TIP3    H143542   5.546   0.586   9.922  0.2051 -0.2378 -0.0705
 6449TIP3    H243543   5.478   0.588  10.057 -0.1276 -3.2053 -0.1220
 6450TIP3   OH243544   6.283   3.006  10.221  0.2039 -0.0561 -0.0664
 6450TIP3    H143545   6.317   3.010  10.310 -0.2501  0.9155  0.0685
 6450TIP3    H243546   6.357   3.033  10.166  0.7131 -1.3487 -0.0707
 6451TIP3   OH243547   0.297   6.011  11.505  0.1817 -0.6938  0.3756
 6451TIP3    H143548   0.373   5.986  11.557  0.7435 -0.9580 -0.5433
 6451TIP3    H243549   0.274   6.098  11.535  1.2561 -0.3440  0.2202
 6452TIP3   OH243550   2.593   6.532  10.068 -0.1086  0.1750 -0.1671
 6452TIP3    H143551   2.553   6.542  10.154 -1.6082  2.6642 -1.0299
 6452TIP3    H243552   2.562   6.447  10.037 -1.9344  0.4995  0.6282
 6453TIP3   OH243553   6.580   4.462  10.841 -0.2597 -0.0036  0.0032
 6453TIP3    H143554   6.603   4.555  10.830  1.1016 -0.1304  1.4669
 6453TIP3    H243555   6.516   4.463  10.912 -1.2688 -0.0994 -0.8743
 6454TIP3   OH243556   4.144   6.434   9.484 -0.4679 -0.5187  0.9754
 6454TIP3    H143557   4.180   6.383   9.411  1.3212  1.4828  0.3581
 6454TIP3    H243558   4.091   6.502   9.442  0.9826  0.9667  1.4099
 6455TIP3   OH243559   4.271   1.488  10.362 -0.0933  0.4599  0.2926
 6455TIP3    H143560   4.350   1.457  10.406 -0.2910  0.7459  0.8614
 6455TIP3    H243561   4.269   1.439  10.280 -0.1713 -0.7181  0.9733
 6456TIP3   OH243562   5.914   3.045   9.695 -0.0580 -0.2642 -0.2418
 6456TIP3    H143563   5.978   3.048   9.766  0.6113  1.5999 -0.8647
 6456TIP3    H243564   5.862   2.966   9.713  0.2152  0.0266  2.1770
 6457TIP3   OH243565   0.255   3.735   9.270  0.1888  0.1649 -0.1759
 6457TIP3    H143566   0.254   3.692   9.355 -1.3127 -0.2967 -0.3855
 6457TIP3    H243567   0.332   3.701   9.226 -0.4544 -1.6239  0.0177
 6458TIP3   OH243568   0.335   1.755  12.463 -0.0021 -0.3683  0.1121
 6458TIP3    H143569   0.266   1.820  12.469 -1.1670 -1.5745  0.1123
 6458TIP3    H243570   0.295   1.682  12.416  1.1551 -1.2524  0.4632
 6459TIP3   OH243571   1.574   0.267  12.342  0.0994 -0.0914  0.1873
 6459TIP3    H143572   1.483   0.291  12.362 -0.5197 -0.3459 -2.0869
 6459TIP3    H243573   1.590   0.188  12.393 -1.0928 -0.2670  0.3102
 6460TIP3   OH243574   3.795   0.462  10.736 -0.4766  0.6926 -0.0484
 6460TIP3    H143575   3.755   0.549  10.745  1.2032  1.7081 -1.6628
 6460TIP3    H243576   3.879   0.469  10.781  0.2634  0.3689 -1.3267
 6461TIP3   OH243577   0.337   2.761  10.321 -0.5130 -0.3752 -0.0702
 6461TIP3    H143578   0.407   2.823  10.339 -1.1053  0.1452  0.5163
 6461TIP3    H243579   0.323   2.715  10.404 -0.5548 -0.7875 -0.3058
 6462TIP3   OH243580   0.271   1.065   8.743 -0.3786 -0.6554  0.0894
 6462TIP3    H143581   0.349   1.010   8.735  0.0040  0.0117 -1.0200
 6462TIP3    H243582   0.229   1.036   8.824  0.7030 -1.4296  0.3938
 6463TIP3   OH243583   2.387   5.228   9.030 -0.5298 -0.4026  0.3450
 6463TIP3    H143584   2.475   5.238   8.994 -0.5387 -2.5359 -0.4052
 6463TIP3    H243585   2.399   5.174   9.108 -1.0487  0.3152  0.9324
 6464TIP3   OH243586   2.748   3.883   8.981  0.0026 -0.5868 -0.5176
 6464TIP3    H143587   2.808   3.952   8.954 -1.1682  0.0872 -1.5455
 6464TIP3    H243588   2.673   3.930   9.017 -0.3569 -1.3676 -0.2291
 6465TIP3   OH243589   4.472   5.998  10.830 -0.0363 -0.0770  0.0910
 6465TIP3    H143590   4.390   5.958  10.800 -0.4550  0.2505  0.7884
 6465TIP3    H243591   4.495   6.060  10.761  0.4217 -1.2307 -0.8268
 6466TIP3   OH243592   5.732   6.257   9.615 -0.4197  0.1464  0.5387
 6466TIP3    H143593   5.694   6.177   9.650 -0.5401  0.1914  0.5120
 6466TIP3    H243594   5.814   6.269   9.664 -1.6705  1.4251  2.4581
 6467TIP3   OH243595   4.134   3.861  10.593  0.1256  0.2950 -0.2693
 6467TIP3    H143596   4.171   3.776  10.616  0.4025  0.4668 -0.0777
 6467TIP3    H243597   4.062   3.841  10.534  0.4123 -0.0520 -0.5008
 6468TIP3   OH243598   2.931   0.377  10.024  0.1957  0.5412 -0.1292
 6468TIP3    H143599   2.953   0.357   9.933  0.6476  0.2677  0.0330
 6468TIP3    H243600   2.955   0.469  10.036 -1.1447  0.9813 -0.6599
 6469TIP3   OH243601   2.039   5.612   9.355 -0.5718  1.3745 -0.7375
 6469TIP3    H143602   2.029   5.525   9.393  2.4847  1.1588 -0.1873
 6469TIP3    H243603   2.000   5.671   9.420 -0.5101  0.5823  0.0387
 6470TIP3   OH243604   4.130   1.208   9.894 -0.2128  0.0971  0.2669
 6470TIP3    H143605   4.153   1.176   9.807 -0.2903 -0.4944  0.4617
 6470TIP3    H243606   4.101   1.298   9.880 -0.9113 -0.2327 -0.4179
 6471TIP3   OH243607   3.093   5.479  10.557  0.1231 -0.6163  0.5608
 6471TIP3    H143608   3.005   5.507  10.582  0.1133  1.8466 -1.6845
 6471TIP3    H243609   3.151   5.528  10.616 -0.0074  0.1643  0.0636
 6472TIP3   OH243610   4.809   0.581   8.702  0.8747 -0.3160 -0.7021
 6472TIP3    H143611   4.748   0.551   8.635 -0.4254 -0.0703  0.3389
 6472TIP3    H243612   4.825   0.504   8.756  1.5849 -0.4015 -1.0181
 6473TIP3   OH243613   1.760   1.965  12.652 -0.0274  0.0914  0.6653
 6473TIP3    H143614   1.748   1.908  12.728  0.6196  0.8644  1.3735
 6473TIP3    H243615   1.817   2.035  12.684  1.5205 -0.3639 -0.9275
 6474TIP3   OH243616   0.563   5.241  11.174  0.3363  0.1123  0.3118
 6474TIP3    H143617   0.553   5.302  11.248 -0.7238  0.6397 -0.2326
 6474TIP3    H243618   0.530   5.158  11.208 -0.6775  0.4827  0.3023
 6475TIP3   OH243619   1.933   6.528  11.602  0.6420  0.7246  0.3121
 6475TIP3    H143620   1.941   6.473  11.680  0.7842  0.4059  0.0747
 6475TIP3    H243621   1.896   6.610  11.634  0.3638  0.4657  0.6551
 6476TIP3   OH243622   4.355   4.760  11.346  0.3043 -0.4696  0.3999
 6476TIP3    H143623   4.376   4.776  11.254 -0.7972 -1.1893  0.0137
 6476TIP3    H243624   4.408   4.824  11.394  1.0272 -0.2089 -0.7155
 6477TIP3   OH243625   4.572   3.261  10.577 -0.6869 -0.5970 -0.3485
 6477TIP3    H143626   4.638   3.318  10.536 -0.6671  0.0282  0.5232
 6477TIP3    H243627   4.522   3.226  10.503  1.1486 -1.7996 -1.1003
 6478TIP3   OH243628   6.138   5.616  10.373  0.4771  0.3420  0.3952
 6478TIP3    H143629   6.230   5.589  10.377 -0.1803 -2.2172  0.2315
 6478TIP3    H243630   6.105   5.605  10.462  0.4788  1.9530  0.6130
 6479TIP3   OH243631   1.145   3.256  10.759  0.2965  0.6549 -0.1620
 6479TIP3    H143632   1.138   3.215  10.673  1.1396 -0.1525  0.1412
 6479TIP3    H243633   1.056   3.259  10.792  0.0588  0.3015 -0.7605
 6480TIP3   OH243634   3.986   0.289  12.096  0.0766  0.2137 -0.0324
 6480TIP3    H143635   4.014   0.364  12.043 -0.7366 -0.6409 -1.7473
 6480TIP3    H243636   4.061   0.230  12.095  0.1236  0.2737 -0.0924
 6481TIP3   OH243637   6.489   2.193  11.906 -0.1816  0.4279 -1.0663
 6481TIP3    H143638   6.578   2.161  11.919 -0.8734 -1.7632 -1.3158
 6481TIP3    H243639   6.435   2.137  11.961 -1.3901  2.0296 -0.5530
 6482TIP3   OH243640   1.000   1.478  12.088 -0.4612  0.0705 -0.0032
 6482TIP3    H143641   0.975   1.570  12.078  0.8385  0.3576 -0.7676
 6482TIP3    H243642   0.922   1.436  12.123 -0.9799  1.5239  0.6488
 6483TIP3   OH243643   4.095   4.265   8.929  0.4469 -0.2809  0.5713
 6483TIP3    H143644   4.035   4.279   8.855  0.5624 -1.5776  0.2070
 6483TIP3    H243645   4.052   4.199   8.983  1.2457 -0.7609  0.6376
 6484TIP3   OH243646   0.592   0.237  10.881  0.4216 -0.2120  0.0061
 6484TIP3    H143647   0.582   0.246  10.976  0.5622  0.3890 -0.0307
 6484TIP3    H243648   0.557   0.151  10.861 -0.7438  0.1451  0.4437
 6485TIP3   OH243649   3.425   0.902  10.164 -0.1759 -0.4591 -0.5166
 6485TIP3    H143650   3.481   0.976  10.140  0.0406 -0.3860  0.1850
 6485TIP3    H243651   3.435   0.840  10.092  1.3518 -0.7422 -0.0961
 6486TIP3   OH243652   3.129   6.436   9.072  0.1357  0.2170  0.3341
 6486TIP3    H143653   3.111   6.363   9.012 -2.2831  2.2891 -1.6772
 6486TIP3    H243654   3.186   6.495   9.022 -1.8294  1.9266 -0.0113
 6487TIP3   OH243655   2.409   2.011   8.963 -0.0627  0.4604 -0.0616
 6487TIP3    H143656   2.328   2.057   8.980 -0.4031  0.5178 -1.7398
 6487TIP3    H243657   2.391   1.920   8.988 -0.4816  0.5753  0.0471
 6488TIP3   OH243658   5.017   5.105  11.557  0.3476  0.2376 -0.3004
 6488TIP3    H143659   4.980   5.018  11.577 -0.9561  0.8228 -0.0373
 6488TIP3    H243660   5.039   5.141  11.643 -0.9950  0.9452 -0.2283
 6489TIP3   OH243661   6.337   2.545   9.966 -0.0944 -0.7918 -0.1012
 6489TIP3    H143662   6.295   2.539   9.880 -1.6736 -0.0550  0.5663
 6489TIP3    H243663   6.365   2.456   9.986  1.3310 -0.7891 -1.8420
 6490TIP3   OH243664   1.132   0.156   9.344  0.1671  0.3809 -0.5509
 6490TIP3    H143665   1.177   0.126   9.423  0.6793  0.7801 -0.6893
 6490TIP3    H243666   1.063   0.091   9.330  0.3514  0.0661 -0.0271
 6491TIP3   OH243667   3.550   2.039   9.659 -0.7457  0.3209  0.2739
 6491TIP3    H143668   3.456   2.046   9.669 -0.7614  0.5153  0.0141
 6491TIP3    H243669   3.584   2.123   9.688 -0.7970  0.9073 -1.2539
 6492TIP3   OH243670   3.487   6.587  10.305 -0.6463  0.1144 -0.2227
 6492TIP3    H143671   3.509   6.556  10.217 -0.5637 -0.1488 -0.1123
 6492TIP3    H243672   3.535   6.528  10.363 -0.4060  0.5136 -0.0082
 6493TIP3   OH243673   6.120   4.116  10.909  0.2721 -0.1027 -0.4400
 6493TIP3    H143674   6.197   4.065  10.885  0.2937 -0.2219 -0.1068
 6493TIP3    H243675   6.048   4.075  10.861  0.6029  0.7680 -1.7715
 6494TIP3   OH243676   0.521   2.280  12.633  0.2444  0.0483 -0.5428
 6494TIP3    H143677   0.541   2.196  12.675 -0.3959  0.1614  0.0101
 6494TIP3    H243678   0.429   2.272  12.607  0.6024  0.0330 -1.8223
 6495TIP3   OH243679   3.741   1.672   9.543 -0.0397 -0.2577  0.1433
 6495TIP3    H143680   3.735   1.766   9.532 -0.6327 -0.4090 -0.9934
 6495TIP3    H243681   3.708   1.655   9.632 -1.6923  0.4422 -0.3063
 6496TIP3   OH243682   5.774   2.640  10.427  0.2011 -0.0366 -0.1904
 6496TIP3    H143683   5.815   2.676  10.348 -0.7919  1.7074  0.0324
 6496TIP3    H243684   5.829   2.565  10.450  1.0524 -0.0348 -2.0011
 6497TIP3   OH243685   2.971   0.263  10.822  0.1242 -0.4343 -0.4573
 6497TIP3    H143686   3.055   0.285  10.782 -0.1908  2.2837  0.1798
 6497TIP3    H243687   2.993   0.235  10.911  0.3338  2.7725  0.6279
 6498TIP3   OH243688   4.359   5.259   8.764 -0.1706 -0.3953  0.1098
 6498TIP3    H143689   4.431   5.248   8.826 -1.0706  1.6901  1.6255
 6498TIP3    H243690   4.399   5.303   8.689  0.0075  1.8073  1.4112
 6499TIP3   OH243691   4.763   0.383   9.825  0.3366  0.2652  0.9324
 6499TIP3    H143692   4.784   0.473   9.802 -0.0051  0.3281  0.8584
 6499TIP3    H243693   4.668   0.383   9.840  0.3803 -0.0174  1.2295
 6500TIP3   OH243694   0.434   3.312   9.416  0.8761 -0.0079  0.4230
 6500TIP3    H143695   0.407   3.400   9.442  1.5118 -0.1502  1.6285
 6500TIP3    H243696   0.389   3.254   9.477  0.9652 -0.4789  0.0442
 6501TIP3   OH243697   2.582   4.872   9.700 -0.1703  0.7409 -0.0934
 6501TIP3    H143698   2.528   4.947   9.728 -1.7171  0.2541 -1.6539
 6501TIP3    H243699   2.520   4.800   9.692  1.0041 -0.2502 -0.4364
 6502TIP3   OH243700   6.191   6.587  10.098  0.1127 -0.3536 -0.0842
 6502TIP3    H143701   6.139   6.639  10.159  1.2063 -0.9142  1.3996
 6502TIP3    H243702   6.171   6.623  10.012 -0.9769  0.9159  0.6650
 6503TIP3   OH243703   6.612   5.360   9.543 -0.7100 -0.0776  0.4794
 6503TIP3    H143704   6.581   5.372   9.633  1.1812 -1.6899  1.4094
 6503TIP3    H243705   6.664   5.439   9.525 -2.4998  1.0833  0.0885
 6504TIP3   OH243706   0.086   1.109   9.053  0.9172 -0.1976 -0.4617
 6504TIP3    H143707   0.168   1.060   9.046  1.0542  0.1054 -1.1622
 6504TIP3    H243708   0.022   1.047   9.086  0.8689 -1.1257 -2.1752
 6505TIP3   OH243709   3.066   1.208  11.799  0.4514  0.0584  0.2614
 6505TIP3    H143710   3.015   1.193  11.878  0.3887 -0.8713  0.0597
 6505TIP3    H243711   3.116   1.288  11.817 -0.5303  0.5867  0.7313
 6506TIP3   OH243712   6.687   3.991  11.738  0.1107 -0.3451  0.1735
 6506TIP3    H143713   6.739   4.048  11.795  0.6020 -2.6890  2.2679
 6506TIP3    H243714   6.619   3.955  11.794 -1.8778  0.2025 -1.7535
 6507TIP3   OH243715   0.673   6.268  11.571  0.3688 -0.2613 -0.0521
 6507TIP3    H143716   0.629   6.188  11.603 -1.1140 -0.0600 -1.4706
 6507TIP3    H243717   0.634   6.338  11.623  1.3595 -0.3837  0.8928
 6508TIP3   OH243718   5.331   0.257   9.980  0.8004 -0.1955  0.3111
 6508TIP3    H143719   5.285   0.318   9.922 -0.8604  0.3007  2.0574
 6508TIP3    H243720   5.418   0.249   9.941  0.6418  2.2165 -0.7480
 6509TIP3   OH243721   0.856   5.254  10.577 -0.1848 -0.2515  0.1109
 6509TIP3    H143722   0.907   5.332  10.557  0.5760 -0.3048  1.7229
 6509TIP3    H243723   0.908   5.207  10.642 -0.7792 -1.9489 -0.5649
 6510TIP3   OH243724   3.436   5.646   8.631 -0.3735 -0.2882 -0.0111
 6510TIP3    H143725   3.424   5.669   8.723  1.2237  1.3249 -0.1713
 6510TIP3    H243726   3.374   5.702   8.584  0.0744  0.1768 -0.0473
 6511TIP3   OH243727   5.883   1.672   9.649 -0.2486  0.3960  0.2958
 6511TIP3    H143728   5.802   1.697   9.694 -1.1774 -1.3958 -0.2492
 6511TIP3    H243729   5.891   1.734   9.577 -1.8351 -0.0952 -0.3512
 6512TIP3   OH243730   3.939   3.752  10.431  0.7897  0.3484 -0.9264
 6512TIP3    H143731   3.870   3.695  10.465  1.2360 -0.3530 -1.1860
 6512TIP3    H243732   3.897   3.799  10.359  1.3331 -2.2799 -3.1111
 6513TIP3   OH243733   2.036   0.642  11.644 -0.0766  0.1516  0.1606
 6513TIP3    H143734   1.950   0.624  11.606  0.0348  0.0095 -0.0283
 6513TIP3    H243735   2.025   0.628  11.738  0.1375 -1.4416 -0.0239
 6514TIP3   OH243736   1.029   5.399  11.665 -0.6156 -0.2395 -0.6162
 6514TIP3    H143737   0.948   5.447  11.644  0.3100  1.6991  0.0403
 6514TIP3    H243738   1.090   5.467  11.693  0.4792 -1.9263  1.2933
 6515TIP3   OH243739   1.601   4.791  11.954 -0.0198  0.4003 -0.1598
 6515TIP3    H143740   1.543   4.867  11.966 -2.3525 -1.2465 -0.3476
 6515TIP3    H243741   1.634   4.772  12.042 -0.3373  0.9339  0.0803
 6516TIP3   OH243742   3.542   4.727  11.217  0.9106 -0.4308 -0.3060
 6516TIP3    H143743   3.475   4.739  11.150 -0.7171 -0.7134  1.2120
 6516TIP3    H243744   3.529   4.800  11.278  1.3751 -1.0051  0.5065
 6517TIP3   OH243745   3.590   3.328  10.924 -0.3945  0.1653 -0.0389
 6517TIP3    H143746   3.682   3.352  10.909 -0.5517  0.8470  0.0625
 6517TIP3    H243747   3.541   3.409  10.907 -1.1221 -0.5601 -1.5305
 6518TIP3   OH243748   2.651   4.441  11.195  0.2070 -0.3158  0.2105
 6518TIP3    H143749   2.575   4.430  11.251  0.1448  2.5686  0.8514
 6518TIP3    H243750   2.721   4.394  11.240 -0.8919 -2.0675  0.1736
 6519TIP3   OH243751   2.284   4.634   9.918 -0.8494 -0.0405 -0.0389
 6519TIP3    H143752   2.379   4.641   9.932 -0.7507  0.8581 -1.0508
 6519TIP3    H243753   2.274   4.553   9.868 -0.4348  0.7080 -1.3638
 6520TIP3   OH243754   5.012   5.500   8.760  0.7071 -0.2946 -0.8329
 6520TIP3    H143755   5.100   5.536   8.746  0.5179 -0.0174 -1.3757
 6520TIP3    H243756   5.026   5.409   8.782  1.1312 -0.2904 -1.0723
 6521TIP3   OH243757   2.709   1.740  11.514 -0.0578 -0.2998  0.0446
 6521TIP3    H143758   2.703   1.681  11.590  1.9497 -2.0369 -1.0496
 6521TIP3    H243759   2.794   1.782  11.523 -0.6982  1.1131 -0.1836
 6522TIP3   OH243760   6.181   3.560   8.764 -0.5412 -0.5889  0.3252
 6522TIP3    H143761   6.259   3.611   8.739 -0.5238 -1.2148 -1.0273
 6522TIP3    H243762   6.108   3.608   8.726 -0.6200 -1.0230 -0.0836
 6523TIP3   OH243763   1.029   3.199  10.508 -0.0140 -0.3800  0.5441
 6523TIP3    H143764   0.935   3.216  10.516 -0.0529 -0.2024 -0.2299
 6523TIP3    H243765   1.036   3.121  10.453  0.2934 -0.2406  0.3776
 6524TIP3   OH243766   3.295   0.534  10.187  0.3918 -0.0209 -0.3533
 6524TIP3    H143767   3.319   0.441  10.192  1.8875  0.3265 -0.4044
 6524TIP3    H243768   3.202   0.536  10.208  0.4975 -1.4539  0.4035
 6525TIP3   OH243769   3.926   2.937   9.098 -0.6156  1.0413 -0.1710
 6525TIP3    H143770   3.972   3.013   9.063  0.2203  0.2316 -0.8770
 6525TIP3    H243771   3.851   2.925   9.040  0.2271  0.2889 -1.1346
 6526TIP3   OH243772   4.139   1.493   9.236  0.5367 -0.1857 -0.1744
 6526TIP3    H143773   4.051   1.484   9.273  0.0446  0.3796 -1.1685
 6526TIP3    H243774   4.126   1.537   9.152  1.7773 -0.0362 -0.3163
 6527TIP3   OH243775   2.803   4.829   9.482 -0.0747  0.1146  0.4305
 6527TIP3    H143776   2.721   4.869   9.509 -0.9901 -0.3866 -1.4189
 6527TIP3    H243777   2.866   4.901   9.478 -1.4390  1.2756 -1.9061
 6528TIP3   OH243778   4.372   0.023  10.069 -0.5860  0.3853 -0.1442
 6528TIP3    H143779   4.362   0.005   9.976  0.1879  1.1665 -0.3971
 6528TIP3    H243780   4.435   0.095  10.073  0.5605 -0.6215  1.0490
 6529TIP3   OH243781   0.490   3.905   9.391  0.0557 -0.4969 -0.1941
 6529TIP3    H143782   0.506   3.819   9.351  0.3497 -0.4715 -0.1380
 6529TIP3    H243783   0.397   3.905   9.411 -0.1777 -0.3446 -1.2580
 6530TIP3   OH243784   2.781   5.208  10.656 -0.1713 -0.1426  0.1336
 6530TIP3    H143785   2.764   5.115  10.667 -1.7020  0.2083  1.1499
 6530TIP3    H243786   2.694   5.246  10.643  0.3072  1.2604  0.8113
 6531TIP3   OH243787   0.140   6.314  11.540 -0.1459  0.4137 -0.1961
 6531TIP3    H143788   0.176   6.370  11.609 -0.0711 -0.5283  0.5609
 6531TIP3    H243789   0.156   6.362  11.459  1.1536  0.8698  0.3001
 6532TIP3   OH243790   5.861   3.204  11.936  0.3310  0.0049  0.0598
 6532TIP3    H143791   5.810   3.158  12.003  1.1576 -1.6390 -0.3870
 6532TIP3    H243792   5.950   3.171  11.945  0.5252 -0.0749 -1.6698
 6533TIP3   OH243793   5.583   1.033  10.716  0.0783  0.5100 -0.1537
 6533TIP3    H143794   5.599   0.946  10.678 -0.9946 -0.3652  1.2799
 6533TIP3    H243795   5.625   1.094  10.656  0.0391 -0.9351 -1.7132
 6534TIP3   OH243796   3.285   4.678  11.923  0.1936  0.5302 -0.6920
 6534TIP3    H143797   3.330   4.667  11.839 -0.8583 -2.0183 -1.0369
 6534TIP3    H243798   3.352   4.659  11.988  0.5995  0.8039 -1.0204
 6535TIP3   OH243799   4.647   1.468  10.796  0.1575  0.4606 -0.1589
 6535TIP3    H143800   4.561   1.426  10.792  0.3291 -0.0831  1.0840
 6535TIP3    H243801   4.669   1.488  10.705 -2.2954  2.7940 -0.3604
 6536TIP3   OH243802   5.594   3.530   9.831  0.3521  0.6396 -0.3816
 6536TIP3    H143803   5.516   3.580   9.807 -0.9171 -0.7289  0.7019
 6536TIP3    H243804   5.613   3.476   9.755 -1.4121 -0.9648  0.2449
 6537TIP3   OH243805   4.679   5.588  10.187  0.0450 -0.6605  0.0858
 6537TIP3    H143806   4.610   5.605  10.123  0.1602 -1.9382 -0.4149
 6537TIP3    H243807   4.760   5.589  10.135  0.1379 -1.7183  0.1941
 6538TIP3   OH243808   0.525   4.939  11.582 -0.3938 -0.3972  0.5893
 6538TIP3    H143809   0.481   4.921  11.665 -0.6605 -1.2766  0.2655
 6538TIP3    H243810   0.613   4.966  11.607 -1.3310  2.3099  1.2977
 6539TIP3   OH243811   2.524   5.853   9.083 -0.8661  0.1434 -0.2042
 6539TIP3    H143812   2.457   5.920   9.077 -0.5128  0.7144  1.7769
 6539TIP3    H243813   2.478   5.776   9.116 -1.1517 -0.4650 -1.9175
 6540TIP3   OH243814   6.357   5.217  10.315  0.2808 -0.6479 -0.3528
 6540TIP3    H143815   6.284   5.190  10.369  0.8899 -1.0072  0.3130
 6540TIP3    H243816   6.386   5.136  10.272 -0.3048 -0.3408 -1.3744
 6541TIP3   OH243817   4.971   2.920   8.981  0.1531  0.2568 -0.3662
 6541TIP3    H143818   4.947   2.868   9.058  1.7434 -0.0097 -0.0150
 6541TIP3    H243819   5.000   2.855   8.917 -1.7240  0.4214 -1.4668
 6542TIP3   OH243820   4.933   5.966   9.708 -0.7352 -0.2604  0.6427
 6542TIP3    H143821   4.956   5.958   9.616 -1.9859  1.5105  0.1385
 6542TIP3    H243822   4.853   6.018   9.709 -0.1165  0.7722  2.7953
 6543TIP3   OH243823   4.216   0.364  10.484  0.0203 -0.2605  0.0173
 6543TIP3    H143824   4.192   0.365  10.577  2.1783 -1.4063  0.6458
 6543TIP3    H243825   4.245   0.274  10.467  0.1148  0.0457 -1.6736
 6544TIP3   OH243826   5.882   2.310  12.002  0.6021 -0.4307  0.1201
 6544TIP3    H143827   5.814   2.377  12.005  0.7689 -0.2703  0.4478
 6544TIP3    H243828   5.944   2.337  12.070  1.2450 -0.2979 -0.5124
 6545TIP3   OH243829   1.794   0.682  10.122  0.0209 -0.3262 -0.4734
 6545TIP3    H143830   1.826   0.759  10.170  1.4843 -0.4232 -1.2343
 6545TIP3    H243831   1.700   0.681  10.139  0.1672  0.8951  0.5954
 6546TIP3   OH243832   4.097   1.236  10.710 -0.1838  0.4457  0.6872
 6546TIP3    H143833   4.143   1.257  10.792 -0.3399  0.0275  0.8844
 6546TIP3    H243834   4.100   1.141  10.705 -1.4601  0.3806  0.9474
 6547TIP3   OH243835   4.305   0.210  10.813 -0.1333  0.0896  0.1611
 6547TIP3    H143836   4.267   0.297  10.799  0.1114  0.0134 -1.0226
 6547TIP3    H243837   4.252   0.173  10.884 -0.7624  0.8912  0.1293
 6548TIP3   OH243838   4.953   0.926   9.659  0.0217 -0.0986  0.1016
 6548TIP3    H143839   4.892   0.984   9.706  1.7368  3.7702 -1.9518
 6548TIP3    H243840   4.915   0.918   9.572  1.1194  0.1751 -0.4168
 6549TIP3   OH243841   2.557   1.436  12.268  0.0171  0.4422 -0.1775
 6549TIP3    H143842   2.592   1.357  12.308  2.5515  0.8588 -1.3298
 6549TIP3    H243843   2.537   1.412  12.178  0.3347  0.9636 -0.3975
 6550TIP3   OH243844   0.867   2.992   8.915  0.2055  0.0249  0.1364
 6550TIP3    H143845   0.815   2.972   8.993 -4.0300  1.5429 -1.9504
 6550TIP3    H243846   0.878   2.908   8.872 -1.1047 -0.3097  0.4026
 6551TIP3   OH243847   0.269   0.196   9.949  0.0896  0.2163  0.2886
 6551TIP3    H143848   0.337   0.227   9.889 -0.9194  0.5560 -0.7023
 6551TIP3    H243849   0.262   0.102   9.931 -0.3349  0.3511 -0.2502
 6552TIP3   OH243850   3.479   5.160  10.261  0.1426 -0.3322  0.3072
 6552TIP3    H143851   3.389   5.191  10.261  0.2301 -0.0344 -0.8631
 6552TIP3    H243852   3.472   5.066  10.279 -0.3899 -0.3020  0.2676
 6553TIP3   OH243853   4.408   2.298  11.072  0.2392 -0.2391  0.3301
 6553TIP3    H143854   4.378   2.289  10.982 -0.2014  0.6561  0.3785
 6553TIP3    H243855   4.341   2.255  11.124 -0.9226  1.5635  0.4221
 6554TIP3   OH243856   2.498   3.363   9.552  0.0730  0.0001 -0.3464
 6554TIP3    H143857   2.490   3.376   9.458 -1.7897  0.2880 -0.1803
 6554TIP3    H243858   2.592   3.352   9.567  0.6812  2.3656 -1.9184
 6555TIP3   OH243859   5.389   6.273   9.507 -0.2123 -0.5373 -0.1990
 6555TIP3    H143860   5.300   6.247   9.532 -0.6318  0.4964 -0.5762
 6555TIP3    H243861   5.382   6.296   9.414 -0.0160  1.4776  0.2415
 6556TIP3   OH243862   6.315   2.298   8.743 -0.4894  0.7576 -0.2814
 6556TIP3    H143863   6.278   2.372   8.695 -2.4787 -0.7308 -1.1894
 6556TIP3    H243864   6.385   2.266   8.688 -0.4179  1.2243 -0.4633
 6557TIP3   OH243865   4.830   4.596   9.011  0.5859  0.0188 -0.1170
 6557TIP3    H143866   4.920   4.610   9.039  0.7269  0.4402 -0.7552
 6557TIP3    H243867   4.815   4.503   9.023  0.3836  0.2879  2.0555
 6558TIP3   OH243868   1.672   6.329  11.722  0.2989 -0.0609  0.1216
 6558TIP3    H143869   1.581   6.329  11.750 -0.3751  1.9199 -1.8035
 6558TIP3    H243870   1.685   6.243  11.681 -0.1276 -1.0306  1.9298
 6559TIP3   OH243871   4.820   1.301   9.007 -0.2835  0.2554  0.6341
 6559TIP3    H143872   4.789   1.362   8.939  1.1009  0.3942  0.0879
 6559TIP3    H243873   4.904   1.269   8.973 -0.8932 -1.8263  1.0071
 6560TIP3   OH243874   4.924   0.841  10.637  0.2582  0.4318 -0.1166
 6560TIP3    H143875   5.001   0.897  10.624  0.4020  0.6227  1.3671
 6560TIP3    H243876   4.957   0.752  10.623  0.9715  0.4473  1.3098
 6561TIP3   OH243877   2.521   0.298   9.619  0.4236  0.2542 -0.4534
 6561TIP3    H143878   2.609   0.264   9.632  1.1465  1.6724 -1.4633
 6561TIP3    H243879   2.510   0.363   9.689  0.0641 -0.1263 -0.1537
 6562TIP3   OH243880   0.828   0.437   9.373  0.0067 -0.1638 -0.5113
 6562TIP3    H143881   0.788   0.516   9.338  1.0961 -0.5516 -2.7893
 6562TIP3    H243882   0.754   0.381   9.397 -0.7951  0.4852 -1.4218
 6563TIP3   OH243883   6.232   1.868  11.872  0.0065  0.0662 -0.4327
 6563TIP3    H143884   6.231   1.909  11.786 -1.1378  1.2534  0.1096
 6563TIP3    H243885   6.211   1.939  11.933 -2.6356 -1.3536  0.4974
 6564TIP3   OH243886   1.117   2.126   9.289  0.0575  0.5424 -0.5786
 6564TIP3    H143887   1.135   2.166   9.203 -0.4529  2.6864  0.2417
 6564TIP3    H243888   1.168   2.179   9.350 -0.7452 -0.0176  0.6021
 6565TIP3   OH243889   0.412   0.521   9.683  0.0267  0.1798 -0.0092
 6565TIP3    H143890   0.431   0.608   9.650 -3.2072  1.0107 -0.0682
 6565TIP3    H243891   0.379   0.473   9.607  1.1891 -0.9448  0.1539
 6566TIP3   OH243892   1.328   0.778   9.325 -0.3219  0.1056 -0.3699
 6566TIP3    H143893   1.272   0.837   9.274  1.4972  0.6343 -1.8917
 6566TIP3    H243894   1.319   0.693   9.281  0.5660  0.3564 -1.0709
 6567TIP3   OH243895   0.727   1.023   9.886  0.2948 -0.3441  0.0010
 6567TIP3    H143896   0.768   0.955   9.939  2.6257  0.7116 -0.2805
 6567TIP3    H243897   0.719   0.984   9.799 -0.3897 -0.9488  0.3291
 6568TIP3   OH243898   5.476   6.260  10.179  0.0786 -0.1184  0.0722
 6568TIP3    H143899   5.559   6.215  10.164 -0.9450 -2.1181  0.0344
 6568TIP3    H243900   5.433   6.261  10.094  0.6541  2.3177 -0.2640
 6569TIP3   OH243901   0.089   2.516  11.475  0.1827  0.2462 -0.4152
 6569TIP3    H143902   0.157   2.571  11.436  0.4825 -0.6696 -1.2382
 6569TIP3    H243903   0.136   2.440  11.510 -0.3635 -0.2311 -0.6798
 6570TIP3   OH243904   2.846   4.064  11.492 -0.0117 -0.4250 -0.9645
 6570TIP3    H143905   2.903   4.021  11.428 -0.9364 -3.3244 -0.0175
 6570TIP3    H243906   2.898   4.069  11.572 -0.1759 -0.5201 -0.8504
 6571TIP3   OH243907   3.138   1.720  10.802  1.2977 -0.4287 -0.3228
 6571TIP3    H143908   3.136   1.680  10.715  0.1570 -1.7162  0.2594
 6571TIP3    H243909   3.186   1.658  10.856  0.7689 -0.3198  0.2825
 6572TIP3   OH243910   3.861   1.659  10.238 -0.2058  0.1393  0.7389
 6572TIP3    H143911   3.767   1.646  10.231 -0.3175  1.0857  0.3905
 6572TIP3    H243912   3.871   1.745  10.279  0.5078 -0.0265  0.9349
 6573TIP3   OH243913   0.199   0.764  11.569 -0.2645 -0.2897 -0.2498
 6573TIP3    H143914   0.245   0.848  11.574  0.1735 -0.4829 -0.9017
 6573TIP3    H243915   0.123   0.775  11.627  1.0011 -0.2374  1.4737
 6574TIP3   OH243916   0.238   3.487  11.257 -0.0547 -0.5804  0.1160
 6574TIP3    H143917   0.292   3.546  11.204  0.1357  0.3388  1.2848
 6574TIP3    H243918   0.161   3.470  11.203 -0.5706  1.5337  0.0736
 6575TIP3   OH243919   4.123   1.295  11.092  0.0256  0.5803  0.5467
 6575TIP3    H143920   4.099   1.203  11.086 -0.2072  0.6416  0.5402
 6575TIP3    H243921   4.045   1.343  11.063  0.7409  0.7320 -1.2756
 6576TIP3   OH243922   4.720   2.564   8.849 -0.4800  0.9892 -0.1406
 6576TIP3    H143923   4.694   2.495   8.909 -0.6524  1.1122 -0.0746
 6576TIP3    H243924   4.671   2.546   8.769 -0.2753  0.8439 -0.2344
 6577TIP3   OH243925   3.986   5.300  11.517 -0.5694  0.6054  0.3145
 6577TIP3    H143926   4.070   5.308  11.563 -0.5680 -3.2732  1.2950
 6577TIP3    H243927   3.921   5.293  11.586 -0.9837 -1.8052 -0.2407
 6578TIP3   OH243928   3.481   2.814  10.354 -0.1639  0.4776 -0.1689
 6578TIP3    H143929   3.547   2.750  10.379  0.8909  2.1399  1.5737
 6578TIP3    H243930   3.531   2.885  10.314 -0.6251  2.4087  2.4593
 6579TIP3   OH243931   1.109   5.355   9.343 -0.0528  0.4231  0.0509
 6579TIP3    H143932   1.122   5.341   9.249 -0.7631 -0.3184  0.0569
 6579TIP3    H243933   1.036   5.416   9.348 -1.5908 -1.3615  0.1423
 6580TIP3   OH243934   4.601   5.638   8.836  0.6015  0.2161 -0.2236
 6580TIP3    H143935   4.587   5.731   8.855  1.4012  0.2377  0.3060
 6580TIP3    H243936   4.598   5.596   8.922 -0.8403 -0.4195 -0.5500
 6581TIP3   OH243937   0.385   4.226  11.226  0.3741  0.0459  0.2875
 6581TIP3    H143938   0.478   4.249  11.220  0.1274  0.7086 -2.1713
 6581TIP3    H243939   0.355   4.228  11.135 -1.5658 -2.2862  0.7922
 6582TIP3   OH243940   0.825   5.867  11.543 -0.4462  0.0963  0.0335
 6582TIP3    H143941   0.867   5.831  11.621 -0.3534 -1.3598 -0.6578
 6582TIP3    H243942   0.893   5.865  11.476 -1.1292 -0.7285 -0.6534
 6583TIP3   OH243943   5.057   3.805  10.065  0.2311  0.0231 -0.3626
 6583TIP3    H143944   5.140   3.848  10.084  1.3982 -2.1879 -0.0798
 6583TIP3    H243945   5.082   3.721  10.027 -1.8345 -1.1687  0.7025
 6584TIP3   OH243946   6.363   4.557  10.095  0.4492  0.9664 -0.1716
 6584TIP3    H143947   6.385   4.613  10.021  0.4341  0.4561 -0.5685
 6584TIP3    H243948   6.448   4.538  10.136  0.4558  1.2631 -0.0436
 6585TIP3   OH243949   5.796   4.243  11.670  0.0966 -0.5956 -0.0472
 6585TIP3    H143950   5.735   4.308  11.704 -3.1146 -2.8470 -0.9955
 6585TIP3    H243951   5.824   4.194  11.748  0.6396  0.3738  0.3860
 6586TIP3   OH243952   4.525   2.542  11.399  0.2875  0.2148 -0.1142
 6586TIP3    H143953   4.453   2.479  11.402 -1.2422  1.7678 -1.8417
 6586TIP3    H243954   4.552   2.552  11.490 -0.4682 -1.7317  0.3770
 6587TIP3   OH243955   1.672   0.471  10.519 -0.2202 -0.3235  0.1478
 6587TIP3    H143956   1.750   0.526  10.518  0.0508 -0.6583  1.2283
 6587TIP3    H243957   1.658   0.450  10.612 -2.7668  1.3622  0.2523
 6588TIP3   OH243958   3.279   1.154  10.636 -0.3255 -0.1231 -0.3347
 6588TIP3    H143959   3.302   1.160  10.543  0.7552 -2.6329 -0.2934
 6588TIP3    H243960   3.232   1.071  10.644  1.3212 -0.9333  1.6632
 6589TIP3   OH243961   1.781   4.553   9.613 -0.5564 -0.0328  0.3555
 6589TIP3    H143962   1.803   4.619   9.547 -2.0100 -0.9454 -1.1157
 6589TIP3    H243963   1.712   4.594   9.665 -0.2935  0.2303  0.4938
 6590TIP3   OH243964   1.162   3.445   9.010  0.2940  0.4572 -0.2307
 6590TIP3    H143965   1.119   3.363   8.985 -0.2897  0.2076  1.4288
 6590TIP3    H243966   1.253   3.419   9.028  0.4075  0.4110 -0.8434
 6591TIP3   OH243967   6.634   0.898   9.135  0.0521  0.7130 -0.1763
 6591TIP3    H143968   6.597   0.967   9.189  0.7362  0.9197  0.0417
 6591TIP3    H243969   6.580   0.821   9.154 -0.5916  1.1319 -0.2744
 6592TIP3   OH243970   1.588   5.969   8.923  0.2359  0.0342 -0.2912
 6592TIP3    H143971   1.676   5.990   8.891  0.0990  1.2960  0.1140
 6592TIP3    H243972   1.569   5.883   8.886  1.1187  0.3176 -1.4586
 6593TIP3   OH243973   0.007   0.819   9.597  0.3683  0.3111 -0.5617
 6593TIP3    H143974  -0.085   0.830   9.570  0.4779 -0.2140 -1.2054
 6593TIP3    H243975   0.004   0.815   9.692 -0.1912  1.0242 -0.5386
 6594TIP3   OH243976   3.688   5.703   9.913  0.3583 -0.4280 -0.7216
 6594TIP3    H143977   3.670   5.615   9.947  0.0710 -0.3149 -0.5703
 6594TIP3    H243978   3.602   5.746   9.912  0.7082  0.3629  0.6505
 6595TIP3   OH243979   4.359   4.011  12.544 -0.2720  0.2006 -0.0707
 6595TIP3    H143980   4.454   4.003  12.547 -0.2085  1.2621  1.4051
 6595TIP3    H243981   4.339   4.024  12.451  1.0048 -0.0194 -0.3937
 6596TIP3   OH243982   1.661   0.975  11.990 -0.1542 -0.4256 -0.1163
 6596TIP3    H143983   1.644   0.897  11.936 -1.0010 -0.6424  0.4319
 6596TIP3    H243984   1.698   0.940  12.071  0.4495 -0.1637 -0.2797
 6597TIP3   OH243985   4.709   4.497  11.257 -0.4279 -0.1619  0.4448
 6597TIP3    H143986   4.632   4.486  11.312 -1.7224  0.6390 -1.1154
 6597TIP3    H243987   4.713   4.417  11.204 -0.9194  0.3055 -0.3170
 6598TIP3   OH243988   3.273   6.486   9.381  0.2670  0.0346 -0.2769
 6598TIP3    H143989   3.242   6.395   9.381 -1.8848  0.7197 -0.4630
 6598TIP3    H243990   3.317   6.496   9.465 -3.8195  0.1024  2.1201
 6599TIP3   OH243991   0.861   3.435  10.868  0.0600 -0.2996 -0.7317
 6599TIP3    H143992   0.780   3.472  10.831 -1.3933  0.2036  2.5438
 6599TIP3    H243993   0.855   3.341  10.850 -1.1285 -0.2232 -0.8301
 6600TIP3   OH243994   5.544   3.711   9.542 -0.0631 -0.1399  0.0416
 6600TIP3    H143995   5.615   3.776   9.543 -0.4385  0.3029 -1.2673
 6600TIP3    H243996   5.512   3.709   9.632  1.7634 -0.5281  0.7270
 6601TIP3   OH243997   2.673   2.590   9.713 -0.2356  0.0213  0.0598
 6601TIP3    H143998   2.603   2.621   9.770  0.0271 -0.4238  0.6408
 6601TIP3    H243999   2.719   2.669   9.686  1.2876  0.1500  2.6360
 6602TIP3   OH244000   2.802   3.436   9.553  0.2214 -0.0304 -0.3223
 6602TIP3    H144001   2.827   3.528   9.545 -2.1370  0.8374  1.1733
 6602TIP3    H244002   2.809   3.401   9.465  2.3181  1.2404 -0.7095
 6603TIP3   OH244003   5.108   3.142  10.050 -0.1251  0.0891 -0.6305
 6603TIP3    H144004   5.163   3.063  10.047  1.3447  1.0588 -0.2820
 6603TIP3    H244005   5.075   3.145  10.140 -1.8298 -1.1475 -1.1471
 6604TIP3   OH244006   5.209   1.596  10.972  0.1360 -0.1550 -0.0666
 6604TIP3    H144007   5.296   1.604  10.932 -0.0319  1.5452 -0.1612
 6604TIP3    H244008   5.156   1.553  10.905  0.3655  0.8005 -0.8867
 6605TIP3   OH244009   0.403   4.832   9.263 -0.2419  0.6408 -0.0280
 6605TIP3    H144010   0.426   4.776   9.189  1.8371  1.6443 -0.2131
 6605TIP3    H244011   0.315   4.803   9.288  1.3575 -4.1354  1.2270
 6606TIP3   OH244012   3.562   0.373  10.329  0.0974 -0.4175 -0.2312
 6606TIP3    H144013   3.584   0.442  10.266 -0.4225 -0.5836 -0.6115
 6606TIP3    H244014   3.637   0.367  10.387 -0.4934  1.5912  0.8120
 6607TIP3   OH244015   1.321   1.049   8.859  0.1318 -0.3444 -0.2590
 6607TIP3    H144016   1.264   1.087   8.926  1.4916  0.9721  0.2141
 6607TIP3    H244017   1.296   0.957   8.855 -0.3319 -0.3505  1.7017
 6608TIP3   OH244018   2.840   4.368   9.764 -0.6365 -0.5088  0.0183
 6608TIP3    H144019   2.775   4.426   9.805 -0.0616  1.8100 -2.0657
 6608TIP3    H244020   2.908   4.358   9.831 -1.8535 -0.7656  1.2740
 6609TIP3   OH244021   3.188   4.229   9.815  0.3354 -0.2703  0.3363
 6609TIP3    H144022   3.176   4.135   9.831 -3.0732 -0.1603 -0.7097
 6609TIP3    H244023   3.224   4.234   9.726  0.0866 -0.6126  0.2113
 6610TIP3   OH244024   3.493   1.096  18.259 -0.0710  0.4608 -0.0214
 6610TIP3    H144025   3.398   1.090  18.271  0.1151  0.1042  1.4611
 6610TIP3    H244026   3.509   1.051  18.176 -1.2650  1.2135 -0.6975
 6611TIP3   OH244027   0.437   2.244   9.907  0.1880 -0.1690 -0.3165
 6611TIP3    H144028   0.384   2.191   9.847 -2.9449 -0.1452  2.1797
 6611TIP3    H244029   0.430   2.333   9.873  1.2128 -0.5721 -1.6737
 6612TIP3   OH244030   1.206   2.495  10.387  0.0273  0.8638  0.2627
 6612TIP3    H144031   1.186   2.406  10.416  0.2244  1.6854  3.2396
 6612TIP3    H244032   1.278   2.484  10.325 -0.6696 -1.1020 -0.2901
 6613TIP3   OH244033   2.113   0.066  11.304  0.0415  0.2012 -0.2410
 6613TIP3    H144034   2.205   0.047  11.288 -0.3346 -3.2318  0.8946
 6613TIP3    H244035   2.078  -0.014  11.341 -4.0993  0.3277 -3.1608
 6614TIP3   OH244036   1.779   2.408  11.672 -0.6384 -0.8169 -0.2471
 6614TIP3    H144037   1.737   2.397  11.758 -0.3748 -0.1523 -0.0286
 6614TIP3    H244038   1.776   2.502  11.655  0.1203 -0.8408 -0.5554
 6615TIP3   OH244039   6.429   5.154  11.320  0.1694  0.1766  0.1922
 6615TIP3    H144040   6.500   5.115  11.270  0.6379 -1.5293  2.0858
 6615TIP3    H244041   6.350   5.108  11.291  0.1370  0.5130 -0.2809
 6616TIP3   OH244042   2.279   0.774  11.568 -0.1047  0.4783 -0.5870
 6616TIP3    H144043   2.189   0.742  11.564 -0.6580  1.7828  0.3773
 6616TIP3    H244044   2.328   0.704  11.610 -0.1122 -1.2443 -3.2194
 6617TIP3   OH244045   2.804   2.006  11.271  0.5522  0.5346  0.1886
 6617TIP3    H144046   2.865   2.054  11.327 -0.5481  1.3051  0.7663
 6617TIP3    H244047   2.813   2.049  11.185  1.1742  0.3158  0.1385
 6618TIP3   OH244048   6.710   0.091   9.500  0.5240 -0.2231  0.1129
 6618TIP3    H144049   6.656   0.169   9.517  1.2452 -0.0406  1.7700
 6618TIP3    H244050   6.691   0.068   9.409 -1.4050  0.5680  0.2592
 6619TIP3   OH244051   1.247   5.511   9.559  0.0339  0.3974  0.1150
 6619TIP3    H144052   1.162   5.556   9.553  0.5139  1.1795 -1.4797
 6619TIP3    H244053   1.227   5.420   9.537 -0.4993  0.4133  0.5008
 6620TIP3   OH244054   0.979   0.293   8.869 -0.3992 -0.0924 -0.0429
 6620TIP3    H144055   0.997   0.332   8.783 -0.1681 -1.7314 -0.7692
 6620TIP3    H244056   1.040   0.338   8.928  0.1079  0.3844 -0.9037
 6621TIP3   OH244057   1.052   5.970  12.709  0.5784  0.0352  0.0665
 6621TIP3    H144058   1.117   5.925  12.656 -0.4823 -0.0919 -1.1670
 6621TIP3    H244059   1.009   5.900  12.758 -0.4844 -0.2438 -1.2063
 6622TIP3   OH244060   0.885   6.558  11.040  0.4108 -0.2468  0.5155
 6622TIP3    H144061   0.951   6.591  11.101  0.9144 -0.2417 -0.0239
 6622TIP3    H244062   0.860   6.635  10.988 -0.4429 -0.1215  1.0939
 6623TIP3   OH244063   6.406   0.999   9.972  0.3884 -0.5686 -0.3112
 6623TIP3    H144064   6.474   1.049   9.926  1.0228 -0.4382  0.7316
 6623TIP3    H244065   6.430   1.006  10.064 -0.2830 -1.6723 -0.0382
 6624TIP3   OH244066   0.430   6.261   9.489 -0.1682  0.1083  0.7764
 6624TIP3    H144067   0.517   6.301   9.488 -0.1320  0.1598  2.3917
 6624TIP3    H244068   0.422   6.217   9.404  2.1331 -1.3302  1.2076
 6625TIP3   OH244069   5.484   6.472  10.367 -0.2131 -0.3913  0.0888
 6625TIP3    H144070   5.506   6.402  10.305  0.3623  0.2920 -0.4918
 6625TIP3    H244071   5.480   6.551  10.313  1.1461  0.3601  1.0359
 6626TIP3   OH244072   2.573   1.610   9.485 -0.0593  0.1309  0.0783
 6626TIP3    H144073   2.567   1.683   9.547 -0.9206 -0.4576  0.7005
 6626TIP3    H244074   2.665   1.582   9.490  0.8207  2.3604 -1.5865
 6627TIP3   OH244075   5.241   1.267   8.735  0.3111  0.1908  0.0428
 6627TIP3    H144076   5.207   1.354   8.713  1.3756  0.3562 -1.0571
 6627TIP3    H244077   5.205   1.249   8.822 -1.0908  1.1059 -0.2998
 6628TIP3   OH244078   0.306   0.585   9.939  0.3565  0.3981  0.3126
 6628TIP3    H144079   0.334   0.557   9.852 -1.2547 -1.9157  0.4605
 6628TIP3    H244080   0.268   0.672   9.926  0.4283  0.2174 -1.2335
 6629TIP3   OH244081   4.672   4.149  11.808 -0.1135 -0.1731 -0.0663
 6629TIP3    H144082   4.734   4.129  11.878 -1.0131 -0.2335  0.7462
 6629TIP3    H244083   4.592   4.174  11.854 -0.9238 -0.8398 -1.0719
 6630TIP3   OH244084   4.616   2.454   9.070  0.2107  0.4736 -0.5487
 6630TIP3    H144085   4.585   2.537   9.106 -2.0638 -0.2330 -0.7093
 6630TIP3    H244086   4.686   2.427   9.129 -0.7787  1.2560  1.0670
 6631TIP3   OH244087   2.856   6.442   9.461  0.3673  0.1611 -0.1845
 6631TIP3    H144088   2.913   6.494   9.404 -0.3380  0.3312 -0.7378
 6631TIP3    H244089   2.858   6.354   9.424  0.1996  0.1871 -0.2556
 6632TIP3   OH244090   3.496   5.995   8.772 -0.6098 -0.3607 -0.1663
 6632TIP3    H144091   3.457   5.964   8.690  1.0718  0.6942 -1.4441
 6632TIP3    H244092   3.588   6.013   8.750 -0.5238  1.6968  1.4715
 6633TIP3   OH244093   5.232   2.217   8.950 -0.2759 -0.0036 -0.5654
 6633TIP3    H144094   5.265   2.127   8.942 -1.1917 -0.6786  2.1688
 6633TIP3    H244095   5.138   2.209   8.931 -0.4272  0.2907  0.0501
 6634TIP3   OH244096   2.615   1.764  10.931 -0.0337  0.2080 -0.4678
 6634TIP3    H144097   2.597   1.721  11.014  0.0483 -1.4713 -1.2691
 6634TIP3    H244098   2.559   1.719  10.868  0.1279  1.2359 -1.3827
 6635TIP3   OH244099   3.534   3.592  10.909  0.6516 -0.1361 -0.1660
 6635TIP3    H144100   3.532   3.658  10.840  0.7294  0.0974  0.0532
 6635TIP3    H244101   3.504   3.638  10.987  0.0686 -0.5301 -0.1527
 6636TIP3   OH244102   5.993   0.412   9.623 -0.0035  0.0656 -0.6083
 6636TIP3    H144103   5.917   0.374   9.667 -0.0095 -0.1567 -0.8093
 6636TIP3    H244104   5.957   0.482   9.569 -0.0744 -0.0923 -0.7653
 6637TIP3   OH244105   2.580   4.088   9.075  0.6418  0.8449 -0.6536
 6637TIP3    H144106   2.556   4.088   9.167 -0.4989 -0.0821 -0.9346
 6637TIP3    H244107   2.502   4.058   9.029  1.5850  0.0769 -1.8243
 6638TIP3   OH244108   4.525   1.606  10.103 -0.5680  0.0269  0.4146
 6638TIP3    H144109   4.479   1.586  10.022  0.1577  1.2821 -0.3413
 6638TIP3    H244110   4.478   1.682  10.139  0.5756  1.0322 -0.1300
 6639TIP3   OH244111   6.259   2.080  12.058  0.3509  0.5946 -0.6688
 6639TIP3    H144112   6.174   2.097  12.017 -0.4212 -0.2269  0.5377
 6639TIP3    H244113   6.276   2.156  12.113  0.3953  0.7451 -0.8875
 6640TIP3   OH244114   4.811   4.855  11.856  0.2262 -0.1776 -0.2210
 6640TIP3    H144115   4.768   4.912  11.919 -0.0435  1.6011 -1.9068
 6640TIP3    H244116   4.904   4.877  11.864  0.2144 -0.0950 -0.3146
 6641TIP3   OH244117   5.582   6.173   9.200  0.9537  0.2423  0.5847
 6641TIP3    H144118   5.631   6.254   9.217  0.5122  0.6201  0.1079
 6641TIP3    H244119   5.647   6.103   9.209  1.1246  0.5582  1.9900
 6642TIP3   OH244120   5.743   0.269  11.214 -0.3113  0.0637 -0.4357
 6642TIP3    H144121   5.655   0.239  11.232  0.1138 -1.0905 -0.2081
 6642TIP3    H244122   5.774   0.212  11.144  1.3060 -1.6165  1.5139
 6643TIP3   OH244123   3.097   6.558  10.116 -0.4812  0.1102  0.1027
 6643TIP3    H144124   3.048   6.550  10.034 -0.3422 -0.5135  0.0782
 6643TIP3    H244125   3.032   6.584  10.181 -0.4734  1.3058 -0.3329
 6644TIP3   OH244126   0.587   1.723  11.948 -0.0331  0.2388 -0.5198
 6644TIP3    H144127   0.515   1.663  11.929  0.7336 -0.0751 -2.7894
 6644TIP3    H244128   0.555   1.809  11.920  0.4928  0.0615 -1.7579
 6645TIP3   OH244129   1.774   4.875  10.222 -0.2678 -0.1289 -0.4265
 6645TIP3    H144130   1.807   4.944  10.164  0.2717 -0.8365 -0.9837
 6645TIP3    H244131   1.771   4.916  10.309 -1.4620  1.0600 -1.0072
 6646TIP3   OH244132   5.178   5.131   9.492  0.0268  0.0163 -0.4826
 6646TIP3    H144133   5.117   5.201   9.472  0.9566  0.6840 -1.0630
 6646TIP3    H244134   5.260   5.158   9.451  1.0601 -0.2441  1.3092
 6647TIP3   OH244135   4.464   5.398  10.908  0.3168  0.4935 -0.0091
 6647TIP3    H144136   4.437   5.307  10.924  0.1685  0.2693 -1.4218
 6647TIP3    H244137   4.555   5.392  10.880  0.4368  0.8244  0.3032
 6648TIP3   OH244138   2.331   1.693  11.936  0.6778  0.6545  0.1434
 6648TIP3    H144139   2.351   1.648  11.854 -0.7501 -0.5270  0.3964
 6648TIP3    H244140   2.322   1.785  11.911  1.9349  0.5727 -0.6985
 6649TIP3   OH244141   6.560   2.424  11.514  0.3225  0.3561  0.2470
 6649TIP3    H144142   6.641   2.467  11.485  0.5895  0.2273  0.7817
 6649TIP3    H244143   6.568   2.420  11.609 -0.5817  0.8763  0.3577
 6650TIP3   OH244144   6.321   4.098   9.779 -0.3428  0.0717 -0.4900
 6650TIP3    H144145   6.265   4.175   9.764  0.5705  0.8791  0.1346
 6650TIP3    H244146   6.359   4.080   9.693  0.7377  1.3863 -0.3333
 6651TIP3   OH244147   1.059   1.145   9.464 -0.1071  0.5487  0.0142
 6651TIP3    H144148   1.016   1.223   9.428 -2.0628  0.2940  1.6256
 6651TIP3    H244149   1.073   1.166   9.556 -0.4621 -0.8882  0.4279
 6652TIP3   OH244150   2.699   4.521   9.942  0.0790  0.7975 -0.6908
 6652TIP3    H144151   2.638   4.541  10.013  0.1132 -1.8953  0.2240
 6652TIP3    H244152   2.750   4.601   9.930 -1.0338  1.8448  1.2088
 6653TIP3   OH244153   5.563   3.788   9.240  0.1521 -0.5731 -0.0406
 6653TIP3    H144154   5.611   3.706   9.251  2.2783  0.6264  0.1637
 6653TIP3    H244155   5.566   3.805   9.146  2.1857  0.5863  0.1662
 6654TIP3   OH244156   0.536   3.449   9.080 -0.6304  0.1109 -0.0770
 6654TIP3    H144157   0.551   3.431   8.987  2.0865 -0.6806  0.4202
 6654TIP3    H244158   0.532   3.362   9.120  2.2609  0.3648  1.0024
 6655TIP3   OH244159   4.786   6.361  10.491  0.0325  0.0493  0.1457
 6655TIP3    H144160   4.837   6.436  10.520 -0.6738  0.3596  0.6207
 6655TIP3    H244161   4.846   6.311  10.435  0.7862  0.4949  0.5392
 6656TIP3   OH244162   1.994   2.731   8.795  0.3579 -0.1806 -0.1708
 6656TIP3    H144163   2.044   2.716   8.714  0.7197 -0.4384  0.0949
 6656TIP3    H244164   1.970   2.643   8.824  1.2989 -0.1863  0.6600
 6657TIP3   OH244165   2.955   3.859  11.734  0.0500  0.5147  0.3346
 6657TIP3    H144166   2.928   3.939  11.779 -1.7782  0.1695 -0.0569
 6657TIP3    H244167   3.050   3.866  11.726  0.0057  2.2691  0.9983
 6658TIP3   OH244168   0.796   2.389   9.388  0.0547 -0.2888  0.5348
 6658TIP3    H144169   0.777   2.322   9.323  0.9932  0.2212 -0.2939
 6658TIP3    H244170   0.891   2.400   9.384 -0.1378  1.6113  0.1059
 6659TIP3   OH244171   3.522   2.252  11.497 -0.4063  0.0370  0.2834
 6659TIP3    H144172   3.525   2.332  11.445 -2.2175  0.7818  1.2306
 6659TIP3    H244173   3.457   2.270  11.565 -0.7599 -2.1842  0.6182
 6660TIP3   OH244174   4.731   1.099   9.765  0.0276 -0.4619  0.3125
 6660TIP3    H144175   4.735   1.111   9.670 -0.1276  1.3710  0.5094
 6660TIP3    H244176   4.780   1.173   9.801  0.5113 -1.3971  1.6682
 6661TIP3   OH244177   1.834   2.764   9.727  0.0580  0.3102  0.5640
 6661TIP3    H144178   1.857   2.830   9.792 -0.9084  2.2519 -0.9527
 6661TIP3    H244179   1.895   2.780   9.655 -2.2192  1.8010 -1.1715
 6662TIP3   OH244180   0.155   2.370  11.941  0.5789  0.6621  0.0904
 6662TIP3    H144181   0.246   2.399  11.937  0.6073  0.4275 -1.6546
 6662TIP3    H244182   0.106   2.450  11.961  1.0064  1.1689 -0.8382
 6663TIP3   OH244183   1.091   4.926  10.288  0.2597 -0.0126  0.5036
 6663TIP3    H144184   1.042   5.002  10.320 -0.1311  0.1039 -0.3294
 6663TIP3    H244185   1.171   4.963  10.252  0.3975 -0.0717  0.7512
 6664TIP3   OH244186   5.340   1.480  11.746 -0.2606  0.1313  0.5568
 6664TIP3    H144187   5.274   1.525  11.695 -0.5698  0.0038  0.8422
 6664TIP3    H244188   5.293   1.445  11.822 -0.0523 -0.7971  0.2681
 6665TIP3   OH244189   2.800   4.558  11.649 -0.0036 -0.1611 -0.3141
 6665TIP3    H144190   2.760   4.605  11.722 -1.1124 -0.5263 -0.6598
 6665TIP3    H244191   2.849   4.486  11.691  1.9200  1.3879  0.2321
 6666TIP3   OH244192   0.647   2.955  10.926  0.4687 -0.1211  0.4770
 6666TIP3    H144193   0.706   3.001  10.986  1.6410  1.7299 -1.9114
 6666TIP3    H244194   0.565   3.005  10.929  0.8189  0.4965 -0.0836
 6667TIP3   OH244195   0.030   2.121  11.981 -0.3966  0.8634 -0.0359
 6667TIP3    H144196   0.062   2.084  12.064  0.6736  1.3777 -0.1967
 6667TIP3    H244197   0.071   2.207  11.976 -0.6772  0.9515 -0.9665
 6668TIP3   OH244198   1.003   6.442  12.417 -0.1113  0.4931  0.1477
 6668TIP3    H144199   0.913   6.420  12.439 -0.4935  1.3405 -0.5163
 6668TIP3    H244200   0.997   6.527  12.374  1.0475  0.7415  0.4420
 6669TIP3   OH244201   1.487   0.877  10.050 -0.4843 -0.0908  0.4894
 6669TIP3    H144202   1.426   0.923   9.991 -0.6228 -0.5243  0.2918
 6669TIP3    H244203   1.525   0.947  10.103  1.6743  0.7376 -1.8975
 6670TIP3   OH244204   1.545   1.567  12.313  0.4151  0.3509 -0.1317
 6670TIP3    H144205   1.557   1.480  12.276 -4.2038 -0.1821 -0.9952
 6670TIP3    H244206   1.538   1.552  12.408 -2.3820 -0.7367 -0.4040
 6671TIP3   OH244207   1.021   5.693   9.834 -0.0099 -0.1919 -0.2063
 6671TIP3    H144208   1.085   5.741   9.887  0.0550 -2.0230  1.4652
 6671TIP3    H244209   0.939   5.702   9.882 -0.0413 -1.5427  0.0239
 6672TIP3   OH244210   2.802   5.770   9.951  0.3233  0.0747 -0.0638
 6672TIP3    H144211   2.809   5.682   9.988 -0.3805  0.7904  1.9318
 6672TIP3    H244212   2.892   5.801   9.945  0.5753 -0.7507 -0.7573
 6673TIP3   OH244213   6.000   0.334  10.044  0.0590  0.6084  0.5493
 6673TIP3    H144214   6.015   0.355  10.136 -0.0167 -1.4026  1.0786
 6673TIP3    H244215   5.920   0.382  10.021  0.3714  1.5508  1.3726
 6674TIP3   OH244216   5.938   0.279   9.239 -0.3021  0.4891  0.1882
 6674TIP3    H144217   6.001   0.286   9.311 -2.2258  0.1591  2.0043
 6674TIP3    H244218   5.950   0.359   9.189  3.4901 -0.8022 -1.2865
 6675TIP3   OH244219   1.400   0.170  11.388  0.3156 -0.3001  0.0617
 6675TIP3    H144220   1.351   0.170  11.470  1.9847  0.7253  1.1031
 6675TIP3    H244221   1.372   0.250  11.343 -0.2383 -0.6169 -0.1735
 6676TIP3   OH244222   0.239   0.152   9.371 -0.2354  0.0057  0.2146
 6676TIP3    H144223   0.236   0.131   9.464 -0.9677  0.2078  0.2372
 6676TIP3    H244224   0.278   0.074   9.330  2.5524  0.8877  0.9618
 6677TIP3   OH244225   0.604   3.436  10.734  0.0215  0.2015  0.1233
 6677TIP3    H144226   0.574   3.350  10.704  0.5458  0.1193 -0.1751
 6677TIP3    H244227   0.593   3.493  10.658 -2.5523  0.9746  0.9867
 6678TIP3   OH244228   0.476   4.066  10.940 -0.6162  0.7313 -0.3410
 6678TIP3    H144229   0.399   4.118  10.960 -1.0963  0.1566 -0.6549
 6678TIP3    H244230   0.522   4.115  10.872 -0.1246  1.6084  0.5991
 6679TIP3   OH244231   3.428   6.344   9.102  0.3151 -0.7034 -0.1950
 6679TIP3    H144232   3.335   6.321   9.111 -0.0056  0.4665 -0.3670
 6679TIP3    H244233   3.455   6.305   9.019  0.2147 -1.7770  0.2631
 6680TIP3   OH244234   1.157   1.898   9.998  0.0062 -0.3888  0.3638
 6680TIP3    H144235   1.091   1.867  10.059 -0.6685  1.0260  0.4062
 6680TIP3    H244236   1.112   1.901   9.913 -0.6436  2.3138  0.6975
 6681TIP3   OH244237   6.639   6.161   9.626 -0.3199  0.1790 -0.1038
 6681TIP3    H144238   6.591   6.119   9.555  1.9539 -3.8603  0.4176
 6681TIP3    H244239   6.731   6.150   9.602  0.5294 -0.9845  3.1302
 6682TIP3   OH244240   4.624   2.169  11.218 -0.0883 -0.1570  0.1614
 6682TIP3    H144241   4.545   2.215  11.189 -0.1272  0.0460  0.5846
 6682TIP3    H244242   4.693   2.199  11.158 -0.2817 -0.1523 -0.0576
 6683TIP3   OH244243   2.198   5.847   8.990  0.1294  0.1580  0.0760
 6683TIP3    H144244   2.107   5.818   8.988 -0.2805  1.3359  0.4986
 6683TIP3    H244245   2.234   5.808   9.069 -0.2333  0.3025  0.3135
 6684TIP3   OH244246   6.666   3.141   9.056 -0.0815  0.0787 -0.6726
 6684TIP3    H144247   6.629   3.216   9.009 -2.1867  0.0951  0.8899
 6684TIP3    H244248   6.666   3.070   8.992 -0.7681  0.6696 -1.3432
 6685TIP3   OH244249   4.064   1.028   9.389 -0.7880 -0.8038  0.4577
 6685TIP3    H144250   3.970   1.041   9.400 -0.7982  0.4186 -0.8127
 6685TIP3    H244251   4.080   1.048   9.297  0.9472  0.5360  1.0186
 6686TIP3   OH244252   3.933   2.948   9.933 -0.4121 -0.3750 -0.1153
 6686TIP3    H144253   3.926   2.996  10.016 -0.2319  0.2523 -0.4609
 6686TIP3    H244254   3.850   2.902   9.926 -0.9291  0.5359 -0.1710
 6687TIP3   OH244255   5.195   3.344  10.913 -0.4860  0.3552  0.3317
 6687TIP3    H144256   5.126   3.371  10.973 -0.2330 -0.8550  1.1959
 6687TIP3    H244257   5.169   3.256  10.884 -0.3806  0.7336 -1.0040
 6688TIP3   OH244258   0.668   1.459  12.051 -0.7303  0.2150 -0.2786
 6688TIP3    H144259   0.714   1.480  12.133 -1.3495  0.7068 -0.0497
 6688TIP3    H244260   0.641   1.544  12.016 -0.3022  0.0290 -1.1051
 6689TIP3   OH244261   0.522   1.118  10.419 -0.3075 -0.2633  0.0634
 6689TIP3    H144262   0.533   1.186  10.353 -1.0360  0.5199  0.7278
 6689TIP3    H244263   0.610   1.104  10.455 -0.4743  2.0978  1.6235
 6690TIP3   OH244264   5.583   0.551   8.740 -0.2072 -0.0010 -0.4280
 6690TIP3    H144265   5.501   0.529   8.696 -1.0013  0.2503  0.8908
 6690TIP3    H244266   5.574   0.644   8.761  0.8157  0.2606 -1.0874
 6691TIP3   OH244267   4.587   0.027   9.134  0.5293  0.3290  0.6673
 6691TIP3    H144268   4.511   0.052   9.186  0.2827 -0.2078  0.5765
 6691TIP3    H244269   4.565  -0.059   9.099  0.8093  0.5471 -0.0824
 6692TIP3   OH244270   3.960   4.032   9.343  0.0292 -0.0947 -0.9770
 6692TIP3    H144271   4.040   4.055   9.391  1.2782 -2.2369 -1.9201
 6692TIP3    H244272   3.890   4.043   9.408  1.5228 -1.7746  1.0787
 6693TIP3   OH244273   4.629   1.916   9.721  0.2364  0.6895  0.7917
 6693TIP3    H144274   4.665   1.947   9.804 -0.1165  2.2671  0.3930
 6693TIP3    H244275   4.555   1.974   9.704  1.4969  1.7114 -1.6084
 6694TIP3   OH244276   4.618   2.581  10.331  0.4781 -0.3627 -0.1070
 6694TIP3    H144277   4.578   2.653  10.282  0.7609 -0.8200 -1.0332
 6694TIP3    H244278   4.709   2.579  10.301  1.2895  0.7281  2.0565
 6695TIP3   OH244279   2.123   0.918   9.658  0.3828 -0.4344 -0.0163
 6695TIP3    H144280   2.064   0.871   9.716 -0.5159 -0.7506 -1.1466
 6695TIP3    H244281   2.087   1.007   9.652  0.4080 -0.4332 -0.1726
 6696TIP3   OH244282   1.708   1.963   9.557 -0.2465 -0.1075  0.4410
 6696TIP3    H144283   1.641   1.900   9.535  1.1631 -1.4848 -0.0926
 6696TIP3    H244284   1.759   1.975   9.477  1.3968 -0.7205  1.3318
 6697TIP3   OH244285   0.155   3.017  11.129 -0.2567 -0.1374 -0.5423
 6697TIP3    H144286   0.226   3.078  11.150 -0.9793  1.3272 -2.1314
 6697TIP3    H244287   0.144   2.966  11.209  1.5843  0.5845  0.2494
 6698TIP3   OH244288   4.672   1.471  10.281 -0.2519 -0.3288 -0.4913
 6698TIP3    H144289   4.629   1.527  10.216  1.4240  0.0133 -1.3352
 6698TIP3    H244290   4.641   1.383  10.260 -4.8544  0.2569  2.3068
 6699TIP3   OH244291   0.852   4.988  12.260 -0.1650 -1.2101 -0.0047
 6699TIP3    H144292   0.814   4.902  12.274  0.7433 -1.3770  1.7379
 6699TIP3    H244293   0.930   4.972  12.206  0.7284 -1.6933  1.3819
 6700TIP3   OH244294   1.655   3.096   8.880  0.1787 -0.6136  0.2540
 6700TIP3    H144295   1.747   3.069   8.878 -0.1261 -2.1867 -4.0352
 6700TIP3    H244296   1.606   3.014   8.882 -1.0258  0.0556 -0.4968
 6701TIP3   OH244297   3.584   1.595   8.926 -0.1011 -0.1180  0.0679
 6701TIP3    H144298   3.557   1.680   8.961 -0.0477 -0.5922  1.3059
 6701TIP3    H244299   3.595   1.540   9.003  0.0139 -1.2119 -0.7091
 6702TIP3   OH244300   4.930   6.278  11.233 -0.0968  0.4215  0.3622
 6702TIP3    H144301   4.982   6.330  11.170  0.5688 -0.9200 -0.2318
 6702TIP3    H244302   4.984   6.276  11.312  0.4417 -0.3656 -0.0157
 6703TIP3   OH244303   2.769   0.588  11.933  0.1464 -0.3273  0.0570
 6703TIP3    H144304   2.862   0.593  11.912 -0.1666 -2.4371 -2.2274
 6703TIP3    H244305   2.766   0.541  12.017  1.1313 -1.9907 -0.7860
 6704TIP3   OH244306   1.250   4.277   9.069 -0.2490 -0.2333 -0.2383
 6704TIP3    H144307   1.159   4.265   9.042  0.1603 -0.7058 -1.4340
 6704TIP3    H244308   1.251   4.365   9.107 -1.0895 -0.0021 -0.7132
 6705TIP3   OH244309   6.463   6.314   9.775 -0.3295 -0.5095 -0.9847
 6705TIP3    H144310   6.530   6.258   9.737  0.3655 -0.7922  0.5625
 6705TIP3    H244311   6.491   6.403   9.753 -1.0454 -0.7075 -2.8234
 6706TIP3   OH244312   0.492   1.531  12.543  0.2380 -0.0247 -0.0491
 6706TIP3    H144313   0.445   1.613  12.525 -0.9017 -0.9242 -1.3090
 6706TIP3    H244314   0.425   1.464  12.543  1.3043 -1.1242 -0.1589
 6707TIP3   OH244315   5.721   5.053  11.623  0.5947  0.6614  0.0154
 6707TIP3    H144316   5.753   4.996  11.553  0.1463  0.6127 -0.1539
 6707TIP3    H244317   5.632   5.076  11.596  0.8891  1.7282 -0.0989
 6708TIP3   OH244318   6.421   0.240   9.371 -0.0625 -0.2579 -0.0344
 6708TIP3    H144319   6.387   0.273   9.288  2.0427  0.5604 -0.6362
 6708TIP3    H244320   6.464   0.158   9.349 -1.3960 -1.1695  0.6718
 6709TIP3   OH244321   6.555   2.138   8.957 -0.6025 -0.3570 -0.3620
 6709TIP3    H144322   6.555   2.233   8.965 -0.1142 -0.3152 -0.8285
 6709TIP3    H244323   6.645   2.112   8.978  0.0160 -0.4764 -2.8834
 6710TIP3   OH244324   6.430   2.515   9.271 -0.3091 -0.3706 -0.5582
 6710TIP3    H144325   6.455   2.557   9.188 -1.3853 -0.5715 -1.0061
 6710TIP3    H244326   6.452   2.423   9.258  1.0514 -0.1532  0.0203
 6711TIP3   OH244327   6.061   5.113  11.882 -0.6469  0.0413  0.0280
 6711TIP3    H144328   6.018   5.075  11.959 -1.3267  1.2590  0.2809
 6711TIP3    H244329   6.151   5.081  11.887 -0.0642  1.7896  2.5670
 6712TIP3   OH244330   4.376   5.603   8.693  0.1538 -0.5642 -0.2355
 6712TIP3    H144331   4.442   5.632   8.755 -0.2278 -1.4296  0.6096
 6712TIP3    H244332   4.422   5.542   8.634  0.3985 -0.1386 -0.4893
 6713TIP3   OH244333   0.477   5.711  11.297  0.1496  0.5984  0.4478
 6713TIP3    H144334   0.463   5.737  11.206  0.4942  1.5984  0.6688
 6713TIP3    H244335   0.447   5.620  11.300 -2.8964  1.4618  0.0537
 6714TIP3   OH244336   2.720   4.148  10.282 -0.0190  0.1015 -0.1836
 6714TIP3    H144337   2.657   4.076  10.278  1.7174 -1.5086 -0.2778
 6714TIP3    H244338   2.717   4.186  10.194  0.2386 -0.9850 -0.6870
 6715TIP3   OH244339   4.012   0.828   9.008  0.2198 -0.7220  0.4346
 6715TIP3    H144340   4.088   0.814   8.953  1.3634 -0.0940  1.7737
 6715TIP3    H244341   4.022   0.919   9.039 -2.4237  0.2887 -1.3301
 6716TIP3   OH244342   6.003   5.067  10.085  0.7089  0.4001 -0.1243
 6716TIP3    H144343   5.992   5.048   9.992 -2.7565  1.9417 -0.1858
 6716TIP3    H244344   6.020   5.161  10.088 -0.3412  0.5790  0.8033
 6717TIP3   OH244345   0.136   2.653  11.712  0.3452 -0.0441  0.0832
 6717TIP3    H144346   0.199   2.703  11.661  1.3659 -1.1961  0.1701
 6717TIP3    H244347   0.102   2.587  11.651  1.0755 -0.9961  0.6726
 6718TIP3   OH244348   5.804   3.067  10.216 -0.3463 -0.2360 -0.5339
 6718TIP3    H144349   5.738   2.998  10.206 -0.4412 -0.0540 -1.2078
 6718TIP3    H244350   5.757   3.148  10.196  0.2074 -0.1561 -1.5666
 6719TIP3   OH244351   2.259   6.057   8.832 -0.4770  0.0306 -0.0040
 6719TIP3    H144352   2.230   6.020   8.749  2.2514 -1.6509 -0.3177
 6719TIP3    H244353   2.231   5.992   8.897  1.7001 -1.2045 -0.2257
 6720TIP3   OH244354   2.070   1.366  11.934 -0.1243 -0.3811 -0.5656
 6720TIP3    H144355   2.139   1.299  11.927  1.7331  1.5951 -2.9991
 6720TIP3    H244356   1.988   1.317  11.922  0.9487 -2.5481  0.4163
 6721TIP3   OH244357   4.341   5.282   9.756 -0.3092  0.3397  0.4698
 6721TIP3    H144358   4.252   5.272   9.791 -0.8954 -0.2053 -1.0869
 6721TIP3    H244359   4.331   5.344   9.683  0.2074 -1.2089 -0.9724
 6722TIP3   OH244360   4.588   4.524  10.386  0.2086 -0.4440 -0.0074
 6722TIP3    H144361   4.576   4.608  10.431  0.2278 -0.0095 -0.7829
 6722TIP3    H244362   4.527   4.527  10.313  0.7225 -0.7979 -0.4615
 6723TIP3   OH244363   5.787   1.512  10.505  0.2860 -0.9893 -0.1680
 6723TIP3    H144364   5.811   1.530  10.596  2.1662 -0.0541 -0.7924
 6723TIP3    H244365   5.847   1.442  10.478 -1.3787 -2.4454 -0.2309
 6724TIP3   OH244366   2.827   5.946  10.328 -0.3800 -0.7017 -0.2685
 6724TIP3    H144367   2.860   5.986  10.247 -0.2660  0.8199  0.4908
 6724TIP3    H244368   2.886   5.979  10.396 -0.9293 -1.3659  0.5427
 6725TIP3   OH244369   4.371   3.023  10.050 -0.9353 -0.3249 -0.2910
 6725TIP3    H144370   4.358   3.110  10.086  1.4393 -0.1016  0.2211
 6725TIP3    H244371   4.414   3.038   9.965 -1.9158 -0.9862 -0.9315
 6726TIP3   OH244372   3.097   3.048  10.255  0.6215 -0.5969  0.0546
 6726TIP3    H144373   3.173   3.105  10.241  0.4078 -0.3546 -0.1533
 6726TIP3    H244374   3.131   2.960  10.244  0.4161 -0.4378 -2.5291
 6727TIP3   OH244375   5.213   0.061  10.988 -0.5863  0.0788  0.4785
 6727TIP3    H144376   5.216   0.118  10.911  1.1823  0.3593  0.7145
 6727TIP3    H244377   5.272  -0.012  10.966 -0.6507 -0.2246  1.2725
 6728TIP3   OH244378   1.891   6.116   9.818  0.5135  0.3379  0.4019
 6728TIP3    H144379   1.894   6.194   9.763  0.2148  0.3470  0.3980
 6728TIP3    H244380   1.950   6.136   9.892  1.1615  0.2011 -0.0657
 6729TIP3   OH244381   3.348   3.249  11.831  0.8220  0.2731 -0.4696
 6729TIP3    H144382   3.321   3.259  11.922 -1.6297 -1.5840 -0.8849
 6729TIP3    H244383   3.266   3.244  11.782  2.0615  0.2147 -2.6716
 6730TIP3   OH244384   1.247   0.873  10.296 -0.2087  0.6494  0.6168
 6730TIP3    H144385   1.215   0.947  10.245  0.1685  1.5208  1.6288
 6730TIP3    H244386   1.342   0.887  10.302 -0.1261  0.0669  0.7899
 6731TIP3   OH244387   5.293   3.826   9.357  0.1269 -0.4455  0.2554
 6731TIP3    H144388   5.307   3.790   9.445  0.2461  1.2057  0.9428
 6731TIP3    H244389   5.372   3.804   9.309  0.5218 -0.4366  0.8926
 6732TIP3   OH244390   6.626   0.405  10.340 -0.2423 -0.1508  0.0482
 6732TIP3    H144391   6.551   0.438  10.390  1.0036  1.1384  1.1385
 6732TIP3    H244392   6.586   0.350  10.273 -2.1128 -0.2530  1.1475
 6733TIP3   OH244393   5.345   3.080   9.763 -0.1588  0.1365  0.1797
 6733TIP3    H144394   5.439   3.098   9.750 -0.2472 -1.1310 -3.2750
 6733TIP3    H244395   5.343   2.996   9.807  0.5742 -1.8980 -3.2547
 6734TIP3   OH244396   3.866   3.398   9.008  0.2938 -0.1737  1.1236
 6734TIP3    H144397   3.872   3.422   9.101 -0.8374  0.0994  1.1416
 6734TIP3    H244398   3.772   3.400   8.989  0.5537  0.4835 -0.2197
 6735TIP3   OH244399   5.078   6.053   9.022 -0.1728  0.4872 -0.3614
 6735TIP3    H144400   5.150   6.115   9.030 -1.1931  1.6543  0.1289
 6735TIP3    H244401   5.101   5.982   9.082  1.0987  0.2634 -1.0695
 6736TIP3   OH244402   6.290   4.935  11.653 -0.0011 -0.3637  0.0691
 6736TIP3    H144403   6.313   4.859  11.706 -0.3302 -1.3276 -1.1040
 6736TIP3    H244404   6.212   4.907  11.604  0.4784  0.3508 -1.1581
 6737TIP3   OH244405   5.431   5.080  10.829  0.4606  0.3702  0.2880
 6737TIP3    H144406   5.435   5.109  10.738  2.9242  1.0468  0.5389
 6737TIP3    H244407   5.522   5.073  10.856 -0.2006 -0.4323  2.5356
 6738TIP3   OH244408   0.393   2.113   9.458 -0.1860 -0.3870 -0.6739
 6738TIP3    H144409   0.386   2.023   9.491  2.0213 -0.5791 -0.5767
 6738TIP3    H244410   0.469   2.149   9.505 -1.5369  1.8437 -0.0623
 6739TIP3   OH244411   0.755   1.635   9.210  0.5614  0.2706 -0.6629
 6739TIP3    H144412   0.689   1.622   9.142 -0.7656  1.3857  0.3128
 6739TIP3    H244413   0.761   1.551   9.255 -2.3347  0.7593  0.9452
 6740TIP3   OH244414   3.239   3.883  11.661 -0.6985 -0.3394 -0.3665
 6740TIP3    H144415   3.267   3.793  11.645 -1.3213 -0.4937 -0.6180
 6740TIP3    H244416   3.284   3.935  11.594  1.8931 -0.0153  1.4410
 6741TIP3   OH244417   1.846   1.579  11.809 -0.2061  0.1554 -0.2501
 6741TIP3    H144418   1.924   1.541  11.769  0.2003  0.0328  0.6316
 6741TIP3    H244419   1.854   1.559  11.902 -0.5994  1.3255  0.0572
 6742TIP3   OH244420   2.314   2.226  10.613  0.0897  1.0471 -0.5985
 6742TIP3    H144421   2.236   2.266  10.574 -0.2380 -0.8546 -2.0048
 6742TIP3    H244422   2.378   2.224  10.542  0.4748  0.0984 -0.2362
 6743TIP3   OH244423   1.604   3.596   9.974  0.4379 -0.0150  0.4517
 6743TIP3    H144424   1.692   3.561   9.961  0.3393 -0.2561  0.4202
 6743TIP3    H244425   1.612   3.689   9.956  0.4608 -0.2096 -0.6703
 6744TIP3   OH244426   4.657   0.581   9.006 -0.4489  0.3392 -0.0619
 6744TIP3    H144427   4.593   0.545   8.946 -1.5264 -0.4254  1.4911
 6744TIP3    H244428   4.646   0.676   8.999 -1.5152  0.2266 -0.0891
 6745TIP3   OH244429   3.088   3.197  11.736  0.2379  0.1699  0.4844
 6745TIP3    H144430   3.041   3.241  11.807 -1.3272  1.6541 -1.3691
 6745TIP3    H244431   3.066   3.247  11.658  0.7657 -2.2125 -1.3039
 6746TIP3   OH244432   1.502   1.871  10.969  0.1312 -0.0621 -0.1627
 6746TIP3    H144433   1.504   1.875  11.065 -0.2408 -0.0684 -0.1543
 6746TIP3    H244434   1.503   1.778  10.948 -2.4928 -0.1678 -0.0952
 6747TIP3   OH244435   1.772   1.710  12.237  0.1917  0.1878 -0.1009
 6747TIP3    H144436   1.705   1.672  12.294  0.2981  1.1773  0.7086
 6747TIP3    H244437   1.804   1.787  12.285  0.5865  0.8034 -1.3099
 6748TIP3   OH244438   1.337   2.618   9.410  0.0767 -0.7020  0.2164
 6748TIP3    H144439   1.397   2.570   9.467 -0.4076 -0.5453  0.8680
 6748TIP3    H244440   1.334   2.567   9.330  0.2427 -1.2896  0.5821
 6749TIP3   OH244441   6.474   0.866   9.498  0.2409 -0.1998  0.3845
 6749TIP3    H144442   6.412   0.885   9.569 -0.6828  0.1482 -0.4929
 6749TIP3    H244443   6.484   0.950   9.452  0.2497 -0.5993 -0.3482
 6750TIP3   OH244444   3.683   4.126  11.186 -0.4310  0.1518 -0.0178
 6750TIP3    H144445   3.664   4.191  11.119 -1.5103  0.0264  0.1522
 6750TIP3    H244446   3.749   4.069  11.146 -3.4642 -2.0106 -2.3906
 6751TIP3   OH244447   4.536   5.453   9.060  0.2641 -0.2960  0.4448
 6751TIP3    H144448   4.536   5.360   9.036  0.6905 -0.2990  0.4476
 6751TIP3    H244449   4.550   5.454   9.154 -0.6128 -0.2553  0.5814
 6752TIP3   OH244450   5.734   1.898   9.294  0.1926 -0.1262  0.7954
 6752TIP3    H144451   5.677   1.823   9.313 -0.3910  0.0250 -0.2770
 6752TIP3    H244452   5.674   1.973   9.291  0.5547  0.1479  0.3911
 6753TIP3   OH244453   5.698   4.636   9.952  0.8255 -0.2982 -0.0403
 6753TIP3    H144454   5.687   4.682   9.869  2.6078  0.2697 -0.0050
 6753TIP3    H244455   5.779   4.672   9.989  0.9527 -1.7271  1.1615
 6754TIP3   OH244456   4.989   5.915  10.869 -0.8043 -0.1300 -0.1082
 6754TIP3    H144457   5.062   5.864  10.906 -1.1321 -0.8540 -0.4369
 6754TIP3    H244458   4.924   5.849  10.844 -0.9815  0.4016 -1.1179
 6755TIP3   OH244459   6.190   4.814  10.150  0.0206  0.0141 -0.2803
 6755TIP3    H144460   6.262   4.769  10.194  0.1818  1.7340  1.3132
 6755TIP3    H244461   6.141   4.857  10.220 -2.0394 -0.3311 -1.4207
 6756TIP3   OH244462   6.654   4.198  10.983  0.1096  0.4806 -0.4494
 6756TIP3    H144463   6.712   4.126  11.007  1.6920  2.2574  1.4834
 6756TIP3    H244464   6.703   4.249  10.918  0.5205  1.6574  0.7377
 6757TIP3   OH244465   0.815   1.761   9.585  0.0753 -0.1607  0.4727
 6757TIP3    H144466   0.885   1.782   9.524 -0.8801 -1.0596 -1.0048
 6757TIP3    H244467   0.758   1.838   9.585  0.3682  0.0553  0.6617
 6758TIP3   OH244468   4.279   6.210   9.072  0.5364  0.7098 -0.2495
 6758TIP3    H144469   4.316   6.228   8.986  0.3333  2.6956  0.0252
 6758TIP3    H244470   4.247   6.295   9.102 -1.7173 -0.3916  0.7037
 6759TIP3   OH244471   6.316   0.699  10.996  0.3897 -0.2776 -0.0174
 6759TIP3    H144472   6.366   0.749  11.061  0.5691 -1.0432  0.4472
 6759TIP3    H244473   6.226   0.729  11.007  0.3831 -0.5517  0.7513
 6760TIP3   OH244474   6.370   1.578  11.323 -0.2044 -0.3966 -0.2522
 6760TIP3    H144475   6.278   1.602  11.308 -0.7175 -1.9120  0.2387
 6760TIP3    H244476   6.416   1.610  11.246 -1.3088 -0.3801 -0.9326
 6761TIP3   OH244477   4.993   3.193  10.335 -0.7636  0.3887  1.3361
 6761TIP3    H144478   4.909   3.212  10.291  0.1305 -1.8312 -1.6922
 6761TIP3    H244479   4.983   3.104  10.368  1.0771 -0.9768 -1.3817
 6762TIP3   OH244480   1.745   5.319   9.204 -0.0415 -0.0245  0.4279
 6762TIP3    H144481   1.727   5.410   9.183 -1.6061  0.1438  2.2407
 6762TIP3    H244482   1.799   5.288   9.132 -0.6250  1.9380 -0.9304
 6763TIP3   OH244483   2.102   6.240   8.972  0.0791 -0.0696 -0.0069
 6763TIP3    H144484   2.150   6.262   9.052 -0.2948 -1.8846  0.7867
 6763TIP3    H244485   2.170   6.224   8.907  0.5153 -1.0587  0.6643
 6764TIP3   OH244486   3.321   4.985   9.268 -0.4136  0.4185 -0.0606
 6764TIP3    H144487   3.381   4.922   9.307 -1.7194 -0.6921  0.2171
 6764TIP3    H244488   3.351   4.996   9.178 -0.9461 -1.6335 -0.5194
 6765TIP3   OH244489   2.886   5.553  11.199 -0.4134  0.1180 -0.0811
 6765TIP3    H144490   2.885   5.558  11.295  2.4246 -2.1870  0.1882
 6765TIP3    H244491   2.870   5.461  11.180 -0.0405  0.3929 -1.8198
 6766TIP3   OH244492   0.101   2.062   9.001  1.2057  0.1687  0.2703
 6766TIP3    H144493   0.166   2.063   9.071  0.1149  2.5737  1.3766
 6766TIP3    H244494   0.121   2.140   8.949 -1.9442  2.2957  1.9255
 6767TIP3   OH244495   0.113   4.530   9.926  0.1822 -0.3518 -0.4428
 6767TIP3    H144496   0.043   4.500   9.983 -0.8432  2.7390  0.1379
 6767TIP3    H244497   0.192   4.526   9.981 -0.3522  0.2115  0.3940
 6768TIP3   OH244498   6.120   4.629   9.966 -0.3255 -0.5906  0.6077
 6768TIP3    H144499   6.112   4.707  10.021  0.8199  0.4218 -0.5836
 6768TIP3    H244500   6.185   4.574  10.010 -0.3972 -0.4048  0.9429
 6769TIP3   OH244501   0.407   1.867  10.600 -0.0702 -0.3207  0.4649
 6769TIP3    H144502   0.400   1.913  10.683 -0.2493 -0.5213  0.5613
 6769TIP3    H244503   0.331   1.897  10.549  0.1681 -0.0202  0.2871
 6770TIP3   OH244504   6.233   0.449   9.761  0.6143  0.2699 -0.2997
 6770TIP3    H144505   6.287   0.487   9.692  1.3769 -1.8796 -0.9767
 6770TIP3    H244506   6.149   0.431   9.718  0.2763  1.1081  0.0010
 6771TIP3   OH244507   4.911   1.608   9.219  0.3162  0.4808 -0.2167
 6771TIP3    H144508   4.937   1.647   9.303  0.2446  0.2504 -0.0869
 6771TIP3    H244509   4.982   1.546   9.199  0.9613  1.4100 -0.9339
 6772TIP3   OH244510   1.005   5.368   9.876  0.0761  0.5266 -0.3023
 6772TIP3    H144511   1.093   5.405   9.872 -0.2857  1.3023 -2.9273
 6772TIP3    H244512   0.970   5.378   9.787 -1.4014 -2.8614 -0.2869
 6773TIP3   OH244513   0.582   1.047   9.628  0.6769 -0.3281  0.4601
 6773TIP3    H144514   0.624   1.012   9.549  0.6663  0.2778  0.1783
 6773TIP3    H244515   0.612   1.138   9.632  0.4996 -0.2920  1.0343
 6774TIP3   OH244516   2.007   1.363  11.278 -0.1735  0.1999  0.5497
 6774TIP3    H144517   2.046   1.350  11.191  0.6905  0.0897  0.9394
 6774TIP3    H244518   1.922   1.321  11.273  0.3432 -0.8130  0.1040
 6775TIP3   OH244519   6.672   4.269  11.561  0.0620 -0.6934 -0.6131
 6775TIP3    H144520   6.694   4.180  11.588  0.4684 -0.6826 -0.9073
 6775TIP3    H244521   6.741   4.324  11.598  0.1645 -0.5784 -0.9677
 6776TIP3   OH244522   3.935   2.546   9.199 -0.5809  0.8161 -0.3084
 6776TIP3    H144523   4.019   2.585   9.173 -0.5627  1.2909  0.4237
 6776TIP3    H244524   3.932   2.463   9.152 -0.4286  1.5080 -1.5940
 6777TIP3   OH244525   5.311   4.860   9.440 -0.3780  0.4448  0.0407
 6777TIP3    H144526   5.247   4.931   9.439 -1.0314 -0.0995  1.2420
 6777TIP3    H244527   5.299   4.819   9.525 -1.2109 -2.1822 -1.2502
 6778TIP3   OH244528   1.181   2.520   8.775  0.4416 -0.0549  0.3170
 6778TIP3    H144529   1.204   2.568   8.696  0.0977 -2.1722 -1.1471
 6778TIP3    H244530   1.106   2.466   8.750 -0.2674 -0.1036  2.3642
 6779TIP3   OH244531   2.128   4.773  11.211  0.3011 -0.1686  0.0855
 6779TIP3    H144532   2.194   4.714  11.174  0.5478  0.0608  0.1588
 6779TIP3    H244533   2.152   4.859  11.177 -1.5106 -0.4342 -2.0721
 6780TIP3   OH244534   0.037   4.589  10.235  0.6680  0.0618 -0.9064
 6780TIP3    H144535   0.003   4.512  10.190  0.2807  0.7203 -1.7791
 6780TIP3    H244536   0.131   4.573  10.244  0.2529 -1.6166  1.1965
 6781TIP3   OH244537   5.218   4.844   9.144  0.2130  0.4464 -0.7448
 6781TIP3    H144538   5.236   4.839   9.238 -1.3205  0.1603 -0.4294
 6781TIP3    H244539   5.303   4.837   9.102  0.7649 -1.4699  0.5624
 6782TIP3   OH244540   4.005   0.378   8.710 -0.0378 -0.2244  0.2364
 6782TIP3    H144541   4.035   0.287   8.703 -0.1954 -0.3559  1.2055
 6782TIP3    H244542   3.954   0.392   8.630  1.4672 -0.4068 -0.8076
 6783TIP3   OH244543   1.675   3.337  11.763 -0.1069 -0.2372  0.1274
 6783TIP3    H144544   1.659   3.371  11.674  1.9612 -0.0201 -0.2106
 6783TIP3    H244545   1.744   3.394  11.798  0.3260 -1.3981  1.2228
 6784TIP3   OH244546   2.109   2.061   9.581 -0.0567 -0.2636 -0.0814
 6784TIP3    H144547   2.044   2.094   9.518 -0.8483 -0.7222  0.4706
 6784TIP3    H244548   2.169   2.134   9.594 -0.8261  0.3990 -0.1330
 6785TIP3   OH244549   3.545   3.860   9.331  0.0210  0.3483  0.2365
 6785TIP3    H144550   3.542   3.945   9.287  0.3830 -0.1086 -0.6992
 6785TIP3    H244551   3.636   3.833   9.325 -0.6731 -1.8536 -2.9693
 6786TIP3   OH244552   4.468   1.103   9.505 -0.1658 -0.9919  0.2261
 6786TIP3    H144553   4.560   1.111   9.531 -0.3760 -1.7732  1.2619
 6786TIP3    H244554   4.435   1.193   9.508  0.0775 -0.9296  1.7782
 6787TIP3   OH244555   6.206   0.618   9.512 -0.0157  0.4040  0.3187
 6787TIP3    H144556   6.196   0.694   9.455  2.4392 -0.2276 -1.0820
 6787TIP3    H244557   6.299   0.617   9.535 -0.6112 -0.2669  3.1508
 6788TIP3   OH244558   3.321   3.531  10.432 -0.5497  0.3384  0.2488
 6788TIP3    H144559   3.350   3.439  10.427 -0.0543  0.5604 -2.8531
 6788TIP3    H244560   3.396   3.581  10.399 -1.8965  1.5646 -1.0683
 6789TIP3   OH244561   3.646   1.922   9.446 -0.2656  0.2311 -0.0134
 6789TIP3    H144562   3.598   1.933   9.528 -1.8458  1.0310 -0.9940
 6789TIP3    H244563   3.689   2.007   9.432 -2.3293  1.1142 -1.3901
 6790TIP3   OH244564   6.668   3.285  10.469 -0.6749 -0.0049 -0.2781
 6790TIP3    H144565   6.577   3.278  10.497 -0.3472 -0.7453  0.6470
 6790TIP3    H244566   6.719   3.258  10.545  0.2591 -1.7656 -1.4475
 6791TIP3   OH244567   0.119   3.160  10.654  0.1994 -0.3824  0.0342
 6791TIP3    H144568   0.198   3.214  10.654  0.5582 -0.8980 -0.5146
 6791TIP3    H244569   0.133   3.097  10.724 -0.9611  1.2547  1.8560
 6792TIP3   OH244570   6.430   2.076  12.360  0.7145  0.0091 -0.0844
 6792TIP3    H144571   6.402   2.141  12.295  1.7414 -1.5099 -2.1731
 6792TIP3    H244572   6.512   2.110  12.394  0.8535  0.1899 -0.5873
 6793TIP3   OH244573   4.540   3.557   8.869 -0.5234  0.0966 -0.0514
 6793TIP3    H144574   4.591   3.589   8.794  0.6327  2.6218  1.6709
 6793TIP3    H244575   4.454   3.598   8.858 -0.7172 -0.4470 -0.5744
 6794TIP3   OH244576   3.326   2.706   8.919 -0.1253  0.2663 -0.3703
 6794TIP3    H144577   3.299   2.641   8.984  2.2488 -0.0148  0.4754
 6794TIP3    H244578   3.288   2.788   8.950 -0.5074 -0.1816  0.3763
 6795TIP3   OH244579   5.428   4.733  11.332 -0.7938  0.2587 -0.1328
 6795TIP3    H144580   5.443   4.787  11.254  0.7193  2.3523  1.4824
 6795TIP3    H244581   5.502   4.673  11.333 -0.2313  0.9343  0.1945
 6796TIP3   OH244582   0.129   5.341  11.209 -0.0742 -0.2546  0.1220
 6796TIP3    H144583   0.128   5.249  11.184 -1.6989  0.2090 -1.7881
 6796TIP3    H244584   0.047   5.354  11.256 -0.7083  0.5566 -1.1596
 6797TIP3   OH244585   0.764   0.241  11.526  0.1143 -0.4966 -0.1561
 6797TIP3    H144586   0.795   0.241  11.616 -0.4270  0.6543  0.0410
 6797TIP3    H244587   0.677   0.280  11.530  0.4333  0.3864 -1.2875
 6798TIP3   OH244588   2.039   3.290  11.876 -0.4482 -0.2530 -0.6773
 6798TIP3    H144589   2.122   3.258  11.912 -0.8374 -0.4066  0.1035
 6798TIP3    H244590   2.000   3.340  11.948 -0.7684  0.3065 -1.2317
 6799TIP3   OH244591   5.047   3.236   9.300 -0.0173  0.1142  0.0032
 6799TIP3    H144592   4.978   3.294   9.268 -0.8970 -2.0076 -2.3656
 6799TIP3    H244593   5.000   3.165   9.343  0.8722 -0.0480  0.7242
 6800TIP3   OH244594   6.606   6.065   9.927 -0.7134 -0.4523 -0.4403
 6800TIP3    H144595   6.580   6.093  10.015 -0.7484  0.1721 -0.6470
 6800TIP3    H244596   6.581   5.972   9.923  1.5122 -1.2097  1.0794
 6801TIP3   OH244597   2.732   2.355   8.971  0.2913 -0.5262  0.0214
 6801TIP3    H144598   2.767   2.317   8.891  0.4141  1.3882 -0.8795
 6801TIP3    H244599   2.757   2.293   9.040  2.3729 -0.9785 -1.0696
 6802TIP3   OH244600   4.751   5.889  11.548 -0.4126 -0.1709  0.9033
 6802TIP3    H144601   4.706   5.891  11.464 -1.3320 -0.9784  1.3468
 6802TIP3    H244602   4.840   5.861  11.527 -0.7316 -0.7156  0.2229
 6803TIP3   OH244603   1.902   1.792  10.834 -0.4921 -0.7166 -0.0759
 6803TIP3    H144604   1.980   1.814  10.884  0.8248 -1.6054 -1.6636
 6803TIP3    H244605   1.918   1.704  10.801 -1.6307 -0.4379 -1.4497
 6804TIP3   OH244606   2.772   1.416   9.704  0.6746  0.2028 -1.2012
 6804TIP3    H144607   2.727   1.484   9.755  0.3758 -1.1575  0.4355
 6804TIP3    H244608   2.703   1.374   9.654  0.8037  0.8310 -1.9275
 6805TIP3   OH244609   5.569   3.554  10.118  0.0049 -0.7591  0.0631
 6805TIP3    H144610   5.664   3.551  10.119  0.1212  1.3927 -0.2802
 6805TIP3    H244611   5.545   3.556  10.026 -0.2637  0.4376  0.1432
 6806TIP3   OH244612   2.997   2.489   9.340 -0.6057 -0.2300  0.0216
 6806TIP3    H144613   3.057   2.463   9.410 -0.7610 -0.0284  0.2268
 6806TIP3    H244614   3.012   2.583   9.328 -1.3404 -0.0441  0.5125
 6807TIP3   OH244615   3.679   6.373   9.534 -0.0790  0.4920 -0.0103
 6807TIP3    H144616   3.666   6.466   9.555  0.0268  0.1710  1.6361
 6807TIP3    H244617   3.713   6.335   9.615 -1.4247 -1.2687 -0.2090
 6808TIP3   OH244618   0.392   4.183   9.361 -0.3976 -0.2628  1.0103
 6808TIP3    H144619   0.464   4.138   9.406  0.5939 -0.2468 -0.5038
 6808TIP3    H244620   0.337   4.113   9.327  0.4997 -0.3506 -0.3191
 6809TIP3   OH244621   2.468   3.381   9.285 -0.1182  0.3075  0.4027
 6809TIP3    H144622   2.534   3.359   9.219  0.2819  1.1419  0.5068
 6809TIP3    H244623   2.393   3.326   9.263 -0.5087  1.5322 -1.6180
 6810TIP3   OH244624   0.707   2.616  11.814 -0.1126  0.2654  0.1055
 6810TIP3    H144625   0.772   2.625  11.883 -0.2386  1.4958  0.0708
 6810TIP3    H244626   0.750   2.560  11.749  0.2908 -0.2634  0.8067
 6811TIP3   OH244627   0.732   3.418  11.544 -0.3487 -0.6854  0.4628
 6811TIP3    H144628   0.734   3.324  11.566 -1.7658 -0.8242  0.0632
 6811TIP3    H244629   0.640   3.442  11.551  0.1437  1.0151  1.8534
 6812TIP3   OH244630   5.472   2.047   8.969 -0.4447 -0.2295 -0.0043
 6812TIP3    H144631   5.446   2.023   9.058 -0.2184  0.5500  0.2773
 6812TIP3    H244632   5.510   1.966   8.933 -0.0604 -0.4151  0.7843
 6813TIP3   OH244633   1.802   0.377   8.987 -0.4080 -0.0150  0.3621
 6813TIP3    H144634   1.830   0.286   8.976  0.4398  0.2520  0.2024
 6813TIP3    H244635   1.783   0.385   9.080  0.7295 -0.0408  0.6150
 6814TIP3   OH244636   5.803   0.345   9.810 -0.4483  0.0170 -0.0298
 6814TIP3    H144637   5.856   0.266   9.818  0.5468  0.7350  0.8600
 6814TIP3    H244638   5.716   0.314   9.785  0.2208 -1.2508 -0.8833
 6815TIP3   OH244639   6.016   5.805   9.875  0.6341 -0.2712  0.0644
 6815TIP3    H144640   5.995   5.770   9.962 -1.4090  0.4000 -0.1106
 6815TIP3    H244641   6.093   5.860   9.889  1.8333 -2.0902  0.9672
 6816TIP3   OH244642   2.701   6.552  12.088 -0.2214  0.1094 -0.4123
 6816TIP3    H144643   2.773   6.595  12.134 -0.2650 -1.4565  1.2368
 6816TIP3    H244644   2.723   6.561  11.995  1.8730  0.0806  0.0315
 6817TIP3   OH244645   1.573   1.872   9.892 -0.2815 -0.2012  0.1335
 6817TIP3    H144646   1.521   1.799   9.927  0.6092 -0.7464  0.3373
 6817TIP3    H244647   1.657   1.833   9.868 -0.3690  0.4303 -1.3275
 6818TIP3   OH244648   2.375   2.854   9.154  0.1423  0.7319 -0.5485
 6818TIP3    H144649   2.463   2.818   9.143 -0.7998 -1.4992 -1.4197
 6818TIP3    H244650   2.338   2.806   9.227 -0.9347  0.3544 -1.3100
 6819TIP3   OH244651   2.830   0.477  12.181  0.2143  0.5991  0.1472
 6819TIP3    H144652   2.741   0.454  12.153  0.4250  1.1405 -1.0459
 6819TIP3    H244653   2.864   0.398  12.223 -0.6224  0.1971  0.0829
 6820TIP3   OH244654   2.117   6.665   9.458 -0.2750 -0.3583 -0.0895
 6820TIP3    H144655   2.200   6.635   9.496  1.0215  1.2024 -1.5566
 6820TIP3    H244656   2.060   6.679   9.534  0.9872 -0.8790  1.0002
 6821TIP3   OH244657   4.607   4.675  11.956  0.0489 -0.6546 -0.3449
 6821TIP3    H144658   4.545   4.604  11.971  0.3938 -0.9847 -0.4618
 6821TIP3    H244659   4.556   4.755  11.966 -0.0727 -0.8853  1.0982
 6822TIP3   OH244660   0.812   1.214   9.127  0.4279  0.2968  0.2850
 6822TIP3    H144661   0.784   1.137   9.078  0.5131  0.3185  0.2043
 6822TIP3    H244662   0.907   1.214   9.120  0.7230 -1.3336  2.8200
 6823TIP3   OH244663   1.136   3.076  12.031  0.4517 -0.7315 -0.3424
 6823TIP3    H144664   1.221   3.089  11.990  0.9962 -1.1348  0.6274
 6823TIP3    H244665   1.085   3.028  11.965  0.2034  1.4214 -1.8163
 6824TIP3   OH244666   6.592   0.300  19.615 -0.4231 -0.7895  0.2872
 6824TIP3    H144667   6.629   0.377  19.658 -0.2534 -1.3443  1.1519
 6824TIP3    H244668   6.592   0.232  19.682 -2.1469 -1.0754  0.0402
 6825TIP3   OH244669   3.871   0.484  11.425  0.1913  0.0019  0.4284
 6825TIP3    H144670   3.876   0.404  11.374  0.7923 -0.7184  1.5837
 6825TIP3    H244671   3.906   0.552  11.367  1.1678 -0.8426  0.0020
 6826TIP3   OH244672   0.894   3.081  10.143 -0.0808  0.1951  0.5573
 6826TIP3    H144673   0.879   2.989  10.164 -1.0960  0.4325  0.9170
 6826TIP3    H244674   0.949   3.079  10.065 -3.1000 -0.8110 -1.7510
 6827TIP3   OH244675   0.836   6.263  12.078  0.5988 -0.1041  0.4430
 6827TIP3    H144676   0.923   6.225  12.086  0.5931  0.0492  1.4657
 6827TIP3    H244677   0.847   6.354  12.108  0.5397  0.6287 -1.6152
 6828TIP3   OH244678   4.890   5.042  11.076 -0.3105  0.4898  0.1622
 6828TIP3    H144679   4.850   4.956  11.088  0.0653  0.4516  1.3284
 6828TIP3    H244680   4.984   5.027  11.090 -0.2291  1.0721  0.2820
 6829TIP3   OH244681   1.082   5.905  11.443 -0.5680  0.0542  0.0224
 6829TIP3    H144682   1.139   5.942  11.375  0.6527 -2.1188 -0.2089
 6829TIP3    H244683   1.091   5.965  11.517  1.6659  0.0554 -0.1896
 6830TIP3   OH244684   0.660   2.510  11.148  0.2678 -0.0126 -0.4590
 6830TIP3    H144685   0.673   2.416  11.163 -0.1719 -0.1596 -0.9399
 6830TIP3    H244686   0.735   2.552  11.189  0.2062 -0.5393  0.2129
 6831TIP3   OH244687   3.211   0.925   9.567  0.2537  0.3439  0.1552
 6831TIP3    H144688   3.304   0.933   9.547  0.1726  0.4346 -0.1867
 6831TIP3    H244689   3.207   0.932   9.663  0.4471  1.9742  0.0847
 6832TIP3   OH244690   3.000   1.844  11.615  0.4796 -0.5108  0.1211
 6832TIP3    H144691   3.050   1.835  11.697  1.0558 -2.3486 -0.3897
 6832TIP3    H244692   3.048   1.911  11.566  0.2721  0.4376  1.1467
 6833TIP3   OH244693   0.151   4.701  11.288 -0.0446  0.2129 -0.2645
 6833TIP3    H144694   0.145   4.794  11.266  0.0009  0.4192  0.5879
 6833TIP3    H244695   0.238   4.691  11.326  0.0194 -0.2175 -0.5212
 6834TIP3   OH244696   2.824   2.367  11.500  0.4139 -0.4529 -0.5514
 6834TIP3    H144697   2.890   2.312  11.459  1.7767 -0.1837  1.1571
 6834TIP3    H244698   2.753   2.307  11.523  0.0778 -0.7717 -2.2763
 6835TIP3   OH244699   2.402   3.108   8.858  0.1015 -0.3648 -0.1125
 6835TIP3    H144700   2.442   3.094   8.772 -1.9173  1.5422 -1.4672
 6835TIP3    H244701   2.332   3.042   8.862 -0.7838  0.4987 -0.6681
 6836TIP3   OH244702   0.741   5.939  12.296  0.4436 -0.0947 -0.2846
 6836TIP3    H144703   0.813   5.883  12.264  0.3202 -0.4642  0.0837
 6836TIP3    H244704   0.726   5.910  12.386  0.9397  1.0974  0.2065
 6837TIP3   OH244705   2.647   1.093  10.789 -0.6885  0.2332 -0.4481
 6837TIP3    H144706   2.722   1.081  10.848 -1.8586  0.3698  1.1247
 6837TIP3    H244707   2.679   1.063  10.704  0.9312 -0.3674  0.3235
 6838TIP3   OH244708   0.436   3.140  10.875  0.6782  0.2323  0.3181
 6838TIP3    H144709   0.396   3.073  10.819 -0.3859 -0.0255  1.3490
 6838TIP3    H244710   0.379   3.216  10.866 -0.6547 -0.4228  2.4892
 6839TIP3   OH244711   3.710   6.392   9.179 -0.1465 -0.3409  0.4313
 6839TIP3    H144712   3.685   6.308   9.218 -1.8510  0.8031  2.0317
 6839TIP3    H244713   3.659   6.397   9.098  0.9218 -1.3654 -0.3142
 6840TIP3   OH244714   3.790   6.247  11.652  0.1075 -0.5200 -0.1577
 6840TIP3    H144715   3.717   6.185  11.655  0.0967 -0.6273 -1.7299
 6840TIP3    H244716   3.850   6.210  11.587  0.9361  0.2472  0.1522
 6841TIP3   OH244717   6.181   5.941  10.539  0.3671 -0.3220 -0.0341
 6841TIP3    H144718   6.154   6.032  10.550  1.6792 -0.2271  3.5491
 6841TIP3    H244719   6.099   5.891  10.535 -0.5128  0.6401  3.1076
 6842TIP3   OH244720   2.112   4.005  10.623 -0.4471  0.3179 -0.0797
 6842TIP3    H144721   2.097   3.914  10.649  0.4174  0.0786 -0.3824
 6842TIP3    H244722   2.198   4.026  10.660  0.1142  0.4615 -1.4141
 6843TIP3   OH244723   4.320   0.809  10.761 -0.3897  0.0580 -0.2537
 6843TIP3    H144724   4.364   0.739  10.809 -0.3975  0.2321  0.0064
 6843TIP3    H244725   4.308   0.773  10.673  0.9066  0.2612 -0.5409
 6844TIP3   OH244726   1.364   0.684  11.343 -0.3139  0.7784  0.2406
 6844TIP3    H144727   1.429   0.678  11.273 -0.9582  0.7020 -0.3658
 6844TIP3    H244728   1.332   0.594  11.354 -1.9354  1.1262 -1.0684
 6845TIP3   OH244729   4.323   5.998   9.259  0.2989  0.6237 -0.4906
 6845TIP3    H144730   4.268   6.039   9.326 -0.4322  1.0437 -1.3208
 6845TIP3    H244731   4.321   6.060   9.185  1.3626  0.3319 -0.7776
 6846TIP3   OH244732   1.935   6.429   9.997 -0.0101 -0.3256 -0.0687
 6846TIP3    H144733   2.002   6.497   9.993 -1.9351  1.6509 -1.1091
 6846TIP3    H244734   1.983   6.347   9.989  2.4278  0.8730  1.2613
 6847TIP3   OH244735   3.601   1.664   9.966 -0.8682 -0.4585  0.2410
 6847TIP3    H144736   3.642   1.748   9.946 -0.8634 -0.3372  0.7633
 6847TIP3    H244737   3.581   1.626   9.880 -0.9198  0.0984  0.0048
 6848TIP3   OH244738   4.354   5.008   9.748 -0.3671 -0.0428 -0.2258
 6848TIP3    H144739   4.337   5.102   9.756  1.3241  0.1305  3.1860
 6848TIP3    H244740   4.430   5.002   9.690 -0.9615  0.5915 -1.0943
 6849TIP3   OH244741   5.133   2.152  10.153 -0.0953  0.0082 -0.1899
 6849TIP3    H144742   5.210   2.102  10.180  0.4165  0.4944 -0.7129
 6849TIP3    H244743   5.169   2.230  10.110 -0.8705  0.6988  0.3743
 6850TIP3   OH244744   3.315   1.387  10.200  0.5629  0.5224 -0.5097
 6850TIP3    H144745   3.408   1.401  10.181  0.1374  1.8158 -1.8877
 6850TIP3    H244746   3.278   1.356  10.117 -0.2680  0.2445 -0.0450
 6851TIP3   OH244747   6.012   2.658  11.226 -0.1188  0.0592  0.1133
 6851TIP3    H144748   6.056   2.718  11.166 -0.8857 -1.3798 -1.9618
 6851TIP3    H244749   5.982   2.586  11.171 -1.0043 -1.2586  2.2112
 6852TIP3   OH244750   0.946   6.507  10.733  0.1707  0.1869  0.0377
 6852TIP3    H144751   1.031   6.471  10.757  0.1012 -1.5289 -1.9956
 6852TIP3    H244752   0.900   6.517  10.816  1.0044 -2.4225  0.9046
 6853TIP3   OH244753   4.710   3.636  12.009  0.0646  0.1489 -0.1492
 6853TIP3    H144754   4.665   3.572  12.064 -1.4999  1.1183 -0.2486
 6853TIP3    H244755   4.762   3.687  12.070 -0.7562  0.4724  0.2900
 6854TIP3   OH244756   6.261   6.506  10.905  0.1015 -0.3030  0.2196
 6854TIP3    H144757   6.222   6.548  10.982 -0.7120 -0.2635 -0.2073
 6854TIP3    H244758   6.189   6.496  10.843  0.6422 -0.7873 -0.3536
 6855TIP3   OH244759   2.509   3.997  10.286  0.3082 -0.2855 -0.4816
 6855TIP3    H144760   2.479   4.038  10.205 -0.3470  1.3954  0.5571
 6855TIP3    H244761   2.460   3.915  10.291 -0.2826 -0.0012 -1.3570
 6856TIP3   OH244762   5.187   1.660  11.250 -0.2741  0.2995 -0.0811
 6856TIP3    H144763   5.240   1.607  11.190 -0.4248 -0.2695  0.2846
 6856TIP3    H244764   5.097   1.639  11.227 -0.4160  2.5212 -1.8366
 6857TIP3   OH244765   6.188   4.732   9.659  0.4319  0.0957 -0.3724
 6857TIP3    H144766   6.212   4.764   9.746  0.5130  1.0624 -0.7388
 6857TIP3    H244767   6.269   4.693   9.625  0.4382 -0.1536 -0.0763
 6858TIP3   OH244768   0.176   5.038  10.238  0.4626 -0.1305  0.1078
 6858TIP3    H144769   0.152   5.045  10.330 -1.3510  0.0630 -0.3537
 6858TIP3    H244770   0.181   5.129  10.208  2.8962 -0.0826  0.3981
 6859TIP3   OH244771   3.218   3.189   9.831 -0.2561  0.2812 -0.0659
 6859TIP3    H144772   3.275   3.177   9.755 -0.8421  2.0295 -0.8331
 6859TIP3    H244773   3.248   3.272   9.869 -2.5548  1.5271 -0.7931
 6860TIP3   OH244774   0.241   4.529  11.095  0.0591  0.4794 -0.0025
 6860TIP3    H144775   0.298   4.585  11.147  1.1458 -0.2841 -0.3252
 6860TIP3    H244776   0.159   4.526  11.144  0.1930  1.8269  0.3313
 6861TIP3   OH244777   5.489   4.180  10.029 -0.4219  0.3639 -0.1977
 6861TIP3    H144778   5.536   4.109  10.073 -2.1227 -2.1183 -2.1110
 6861TIP3    H244779   5.558   4.241  10.003  1.5454 -1.9634 -0.8857
 6862TIP3   OH244780   3.693   1.932  10.501  0.2557  0.3681  0.3833
 6862TIP3    H144781   3.786   1.909  10.497  0.2617  0.5227 -0.4168
 6862TIP3    H244782   3.647   1.849  10.484  0.1844 -0.2205  2.9869
 6863TIP3   OH244783   1.952   1.210  10.390 -0.5473  0.1512 -0.7008
 6863TIP3    H144784   1.890   1.163  10.447 -1.0254  1.2244 -0.3182
 6863TIP3    H244785   2.029   1.153  10.387 -1.4948 -1.1733 -1.1069
 6864TIP3   OH244786   3.195   3.674   9.995 -0.4052 -0.4105 -0.3420
 6864TIP3    H144787   3.107   3.658  10.029  0.2463 -1.1063  1.0889
 6864TIP3    H244788   3.236   3.732  10.059  0.9092 -1.8860  0.2343
 6865TIP3   OH244789   0.326   3.935  11.205  0.2095  0.1536  0.3441
 6865TIP3    H144790   0.414   3.896  11.196  0.5327  0.5005  1.7605
 6865TIP3    H244791   0.342   4.029  11.211 -0.0246  0.1038  2.6863
 6866TIP3   OH244792   5.901   3.737   9.572 -0.1883  0.0240 -0.2610
 6866TIP3    H144793   5.847   3.766   9.645 -1.5259 -0.7825 -0.8866
 6866TIP3    H244794   5.960   3.810   9.555  1.5309 -0.4707  2.8609
 6867TIP3   OH244795   4.960   0.722   8.922  0.3940 -0.5315  0.2182
 6867TIP3    H144796   4.976   0.765   8.838  0.2911  0.4955  0.7113
 6867TIP3    H244797   4.945   0.630   8.899 -1.3022  0.0116 -1.0638
 6868TIP3   OH244798   2.797   6.498  11.582 -0.6209 -0.8053 -1.0203
 6868TIP3    H144799   2.740   6.464  11.513 -3.1332  3.3993 -1.3517
 6868TIP3    H244800   2.861   6.552  11.536 -0.7143 -0.0316 -0.2685
 6869TIP3   OH244801   5.717   0.655   9.840  0.7749  0.2676  0.1859
 6869TIP3    H144802   5.714   0.748   9.818 -0.0893 -0.1002 -1.4025
 6869TIP3    H244803   5.801   0.625   9.804  0.5064  0.1899 -0.3809
 6870TIP3   OH244804   2.408   4.387  10.255  0.1755  0.2426 -0.4715
 6870TIP3    H144805   2.422   4.318  10.189 -1.2636 -0.3638 -0.1812
 6870TIP3    H244806   2.445   4.351  10.335  2.6289  1.2936 -1.0516
 6871TIP3   OH244807   2.307   3.540  10.583 -0.2000 -0.2836 -0.1479
 6871TIP3    H144808   2.348   3.455  10.567 -1.3624 -0.6161 -1.5883
 6871TIP3    H244809   2.281   3.570  10.496  0.5266  1.7536  0.2804
 6872TIP3   OH244810   6.018   4.796  11.722 -0.4453  0.3885 -0.2018
 6872TIP3    H144811   6.035   4.713  11.768 -1.4803  1.3158  2.0105
 6872TIP3    H244812   5.968   4.848  11.785  0.4955  2.8593 -1.3687
 6873TIP3   OH244813   2.113   5.233  10.765  0.0712  0.0595  0.0143
 6873TIP3    H144814   2.103   5.139  10.759 -2.3935  0.1834  1.2590
 6873TIP3    H244815   2.161   5.247  10.847  1.5155 -0.1087 -0.7660
 6874TIP3   OH244816   3.008   4.610  11.472 -0.1237  0.1797 -0.2186
 6874TIP3    H144817   3.012   4.702  11.499  1.2638 -0.0925  0.6217
 6874TIP3    H244818   2.917   4.585  11.485 -0.2428  1.0744  0.7976
 6875TIP3   OH244819   6.550   1.036  10.558 -0.0722  0.2039 -0.1574
 6875TIP3    H144820   6.600   1.097  10.504  0.0961  0.4447  0.2723
 6875TIP3    H244821   6.556   0.953  10.511  0.2618  0.3596 -0.3955
 6876TIP3   OH244822   5.409   4.819  11.580  0.0228  0.1291  0.0499
 6876TIP3    H144823   5.341   4.756  11.603  1.4740 -1.0474  1.3472
 6876TIP3    H244824   5.426   4.805  11.487 -0.5689 -0.5060  0.0371
 6877TIP3   OH244825   6.625   4.207  10.323  0.0123  0.0143 -0.0145
 6877TIP3    H144826   6.554   4.144  10.337 -0.6428  0.6708 -0.2878
 6877TIP3    H244827   6.588   4.291  10.351  0.0900  0.6606 -1.7431
 6878TIP3   OH244828   4.845   5.180   9.825 -0.0881  0.2196  0.0577
 6878TIP3    H144829   4.896   5.244   9.874 -0.3200  0.6687 -0.2814
 6878TIP3    H244830   4.764   5.170   9.875  0.0083  0.0831  0.1866
 6879TIP3   OH244831   0.414   4.065   9.883  0.1015  0.0517  0.4858
 6879TIP3    H144832   0.456   4.142   9.844  2.1754 -1.1267  0.2631
 6879TIP3    H244833   0.485   4.017   9.924 -1.3383 -1.1477  1.7036
 6880TIP3   OH244834   4.936   0.393  11.201 -0.6035 -0.2223  0.9887
 6880TIP3    H144835   4.968   0.439  11.278  0.3128 -1.0794  1.1465
 6880TIP3    H244836   4.927   0.460  11.134  0.7701  0.1832  1.1897
 6881TIP3   OH244837   1.703   4.194  10.776  0.5000  0.5386 -0.2540
 6881TIP3    H144838   1.651   4.208  10.697  0.5806  2.1340 -0.0550
 6881TIP3    H244839   1.794   4.195  10.745  0.5361 -3.0022 -0.7225
 6882TIP3   OH244840   4.325   6.465  10.179 -0.1352 -0.1758 -0.6814
 6882TIP3    H144841   4.382   6.474  10.255  1.8590 -1.8575 -1.8496
 6882TIP3    H244842   4.313   6.555  10.147  1.1235  0.3057  0.1411
 6883TIP3   OH244843   3.135   6.558   9.753  0.0203 -0.0334  0.3334
 6883TIP3    H144844   3.155   6.618   9.681  0.0213 -0.5829 -0.1391
 6883TIP3    H244845   3.203   6.574   9.818 -0.5374  1.1523  0.6491
 6884TIP3   OH244846   2.481   0.961  10.949  0.0267  0.0290  0.0254
 6884TIP3    H144847   2.543   0.889  10.938 -0.7302 -0.3062 -2.6328
 6884TIP3    H244848   2.515   1.030  10.893  0.4018  1.6030  2.0750
 6885TIP3   OH244849   0.616   2.639  10.850  0.4215 -0.3083 -0.1534
 6885TIP3    H144850   0.639   2.547  10.860  0.2690 -0.2874  0.4108
 6885TIP3    H244851   0.677   2.672  10.784  1.3902 -0.4775  0.6328
 6886TIP3   OH244852   0.822   6.410   9.946  0.5224 -0.1592 -0.2011
 6886TIP3    H144853   0.831   6.316   9.957  0.0394 -0.1289  0.4364
 6886TIP3    H244854   0.807   6.444  10.034 -0.7463  0.3555 -0.6016
 6887TIP3   OH244855   3.198   5.608  11.456  0.8358  0.4178 -0.1551
 6887TIP3    H144856   3.257   5.680  11.434  0.0924  1.0480 -0.1323
 6887TIP3    H244857   3.123   5.651  11.499  0.1584 -0.3054 -0.5917
 6888TIP3   OH244858   1.349   4.681  10.044 -0.0490 -0.5232 -0.1033
 6888TIP3    H144859   1.285   4.676  10.115 -0.3950 -0.5423 -0.4167
 6888TIP3    H244860   1.350   4.593  10.007 -1.7692  0.1189 -1.7842
 6889TIP3   OH244861   0.207   1.426  10.790  0.0930 -0.5457  0.0546
 6889TIP3    H144862   0.194   1.375  10.869  3.8831 -0.1210  1.1630
 6889TIP3    H244863   0.179   1.369  10.719  0.9456 -2.8235  1.4543
 6890TIP3   OH244864   0.507   3.824   8.886  0.6093  0.4945 -0.1309
 6890TIP3    H144865   0.450   3.806   8.811 -1.1087  0.7445  1.0524
 6890TIP3    H244866   0.571   3.753   8.885 -1.1662 -1.1946 -0.1624
 6891TIP3   OH244867   2.612   1.339   9.231  0.1421  0.0017  0.2661
 6891TIP3    H144868   2.562   1.302   9.159 -0.8819  0.1117  0.8975
 6891TIP3    H244869   2.600   1.277   9.303  1.3134 -0.2108  0.2948
 6892TIP3   OH244870   1.105   1.354   9.663 -0.0010  0.5605 -0.4076
 6892TIP3    H144871   1.070   1.322   9.746 -0.2568 -1.8312 -1.3365
 6892TIP3    H244872   1.031   1.401   9.623 -0.4608  0.1509 -0.0556
 6893TIP3   OH244873   2.271   5.747   9.231  0.0762 -0.1573 -0.0252
 6893TIP3    H144874   2.305   5.793   9.309  0.5160  0.3615 -0.5123
 6893TIP3    H244875   2.188   5.710   9.259 -0.7247  1.6715  0.1523
 6894TIP3   OH244876   4.885   2.633   9.661 -0.0106  0.0368  0.5033
 6894TIP3    H144877   4.874   2.691   9.585 -0.6509 -0.6602  0.0453
 6894TIP3    H244878   4.947   2.567   9.632 -1.3318 -1.0620  0.0579
 6895TIP3   OH244879   6.534   0.304   9.839 -0.0351  0.2732  0.1647
 6895TIP3    H144880   6.461   0.326   9.896 -0.6252  2.4533 -1.3074
 6895TIP3    H244881   6.602   0.271   9.898 -1.9252 -1.1651  1.6341
 6896TIP3   OH244882   0.705   0.889  10.968 -0.2925 -0.1689 -0.3427
 6896TIP3    H144883   0.681   0.864  11.057  0.1237 -0.3966 -0.2938
 6896TIP3    H244884   0.649   0.964  10.949  0.1730  0.3865  0.4010
 6897TIP3   OH244885   6.132   0.476  10.272 -0.9366 -0.5554 -0.0012
 6897TIP3    H144886   6.109   0.516  10.356  2.3233  0.5935  0.4960
 6897TIP3    H244887   6.204   0.416  10.293  2.3341  2.1909 -2.2158
 6898TIP3   OH244888   3.382   4.806  10.984 -0.1806  0.1212  0.6123
 6898TIP3    H144889   3.356   4.715  10.970 -1.3099  0.5227  0.0740
 6898TIP3    H244890   3.414   4.836  10.899  1.4069 -0.1247  1.0732
 6899TIP3   OH244891   2.152   3.070   9.903 -0.1140 -0.0994  0.0830
 6899TIP3    H144892   2.225   3.105   9.853 -0.4564  0.2147 -0.2047
 6899TIP3    H244893   2.107   3.147   9.937  0.5806 -0.3195  1.5648
 6900TIP3   OH244894   4.384   0.211   9.197 -0.4259 -0.3048 -0.4644
 6900TIP3    H144895   4.313   0.246   9.143  0.4151  2.4799  0.0944
 6900TIP3    H244896   4.453   0.277   9.191  0.4628 -0.8522  2.4050
 6901TIP3   OH244897   1.336   3.034   9.945 -0.6043 -0.0889 -0.0037
 6901TIP3    H144898   1.406   3.093   9.972 -1.5680  2.6805 -2.9890
 6901TIP3    H244899   1.376   2.978   9.879 -0.0990 -1.8895  1.7242
 6902TIP3   OH244900   1.341   4.600  10.508 -0.3984 -0.2210 -0.2125
 6902TIP3    H144901   1.289   4.536  10.556  1.9294 -1.2594  1.1104
 6902TIP3    H244902   1.347   4.675  10.567 -0.9075  0.1637 -0.6387
 6903TIP3   OH244903   1.389   5.966  11.776  0.1275 -0.5816 -0.3061
 6903TIP3    H144904   1.405   6.060  11.782 -2.2201 -0.0585 -0.9999
 6903TIP3    H244905   1.345   5.955  11.691 -0.2255 -2.2077  0.0542
 6904TIP3   OH244906   1.866   1.307  10.878 -0.3155 -0.3017 -0.0015
 6904TIP3    H144907   1.801   1.283  10.813 -0.1205  0.3665 -0.4539
 6904TIP3    H244908   1.834   1.389  10.916  0.0263 -0.2138  0.1046
 6905TIP3   OH244909   3.293   3.290  10.967  0.3386 -0.0403 -0.2435
 6905TIP3    H144910   3.263   3.203  10.991 -0.6483  0.0502 -1.0487
 6905TIP3    H244911   3.339   3.278  10.884  2.0273 -0.0800  0.6671
 6906TIP3   OH244912   3.174   0.963  11.612 -0.1990 -0.3292  0.8823
 6906TIP3    H144913   3.194   1.040  11.666 -2.5803  0.2240  1.0656
 6906TIP3    H244914   3.152   0.895  11.675  0.3861 -0.7250  0.6686
 6907TIP3   OH244915   0.503   5.686  10.490  0.7072 -0.4136 -0.2821
 6907TIP3    H144916   0.584   5.712  10.534  0.2219  1.9169 -0.6312
 6907TIP3    H244917   0.520   5.703  10.397  0.6426 -2.3298 -0.6899
 6908TIP3   OH244918   5.721   6.146  10.152  0.4436 -0.4911 -0.2802
 6908TIP3    H144919   5.757   6.200  10.222  0.0046 -0.4920 -0.0500
 6908TIP3    H244920   5.744   6.192  10.071  0.1333  0.0016 -0.0892
 6909TIP3   OH244921   2.002   2.516  12.305  0.2675 -0.2514 -0.1163
 6909TIP3    H144922   2.065   2.568  12.355  0.2852 -1.0080  0.6702
 6909TIP3    H244923   1.936   2.579  12.276  0.4364  0.2606  0.5861
 6910TIP3   OH244924   2.913   5.189   9.673  0.0251  0.0478 -0.1820
 6910TIP3    H144925   2.978   5.227   9.614 -1.1157  1.2362 -0.7424
 6910TIP3    H244926   2.846   5.154   9.614 -1.5264  1.9486  0.3371
 6911TIP3   OH244927   4.149   1.887  12.171  0.4021  0.2586  0.1112
 6911TIP3    H144928   4.155   1.792  12.173  1.7108  0.3404  1.5876
 6911TIP3    H244929   4.084   1.905  12.102 -2.1119 -1.7730  1.7285
 6912TIP3   OH244930   5.928   4.126  11.865 -0.6752 -0.1137  0.0123
 6912TIP3    H144931   5.970   4.059  11.919 -0.9357  0.6991  1.2416
 6912TIP3    H244932   5.967   4.208  11.894 -3.5914  0.7923  1.7386
 6913TIP3   OH244933   3.969   5.687   9.752 -0.4104  0.5764  0.3656
 6913TIP3    H144934   3.877   5.704   9.772 -0.5878  0.8850 -0.6195
 6913TIP3    H244935   3.967   5.620   9.683  0.1807 -0.8546  1.6779
 6914TIP3   OH244936   2.377   0.358  11.255 -0.1876  0.0921 -0.6894
 6914TIP3    H144937   2.468   0.333  11.241 -0.3858 -0.1161 -1.7309
 6914TIP3    H244938   2.371   0.446  11.219 -0.1662  0.5140  0.3207
 6915TIP3   OH244939   1.220   3.381  12.156  0.3470  0.0136 -0.7994
 6915TIP3    H144940   1.134   3.360  12.191 -0.0164  0.5386 -1.3590
 6915TIP3    H244941   1.278   3.314  12.193 -0.3543 -0.5437 -0.6859
 6916TIP3   OH244942   3.252   4.878  10.659 -0.0150  0.1759 -0.8700
 6916TIP3    H144943   3.326   4.885  10.599  1.1670  0.5356  0.5691
 6916TIP3    H244944   3.249   4.785  10.682  1.6764  0.5094  1.0195
 6917TIP3   OH244945   2.548   3.283  12.480  0.2899 -0.8211  0.0692
 6917TIP3    H144946   2.482   3.336  12.435  0.3493 -0.9748 -0.1989
 6917TIP3    H244947   2.510   3.195  12.485  1.1382 -1.3001 -1.5310
 6918TIP3   OH244948   4.575   0.552   9.434 -0.6077  0.1153  0.0851
 6918TIP3    H144949   4.520   0.510   9.501  0.1054 -1.5759 -0.3198
 6918TIP3    H244950   4.534   0.528   9.351  0.7130 -1.2553 -0.2254
 6919TIP3   OH244951   5.306   6.564  12.303 -0.5034 -0.1654 -0.3256
 6919TIP3    H144952   5.256   6.612  12.237 -0.4519 -0.1132 -0.3269
 6919TIP3    H244953   5.295   6.472  12.278 -0.2575 -0.1306 -0.5692
 6920TIP3   OH244954   0.479   5.619   9.789  0.2418  0.0503  0.6173
 6920TIP3    H144955   0.425   5.693   9.761  0.0436 -0.4024 -0.2693
 6920TIP3    H244956   0.416   5.556   9.824 -0.1303 -1.2283 -2.0322
 6921TIP3   OH244957   3.270   0.809   9.057 -0.2737  0.1525  0.4342
 6921TIP3    H144958   3.277   0.878   9.123 -0.2205  1.0548 -0.4845
 6921TIP3    H244959   3.351   0.816   9.006 -1.4586  1.3265 -1.4420
 6922TIP3   OH244960   6.589   5.371  11.331 -0.2804  0.2544  0.2341
 6922TIP3    H144961   6.540   5.451  11.313 -0.9000  0.2464  1.6834
 6922TIP3    H244962   6.522   5.302  11.330  0.0340 -0.0525  0.2809
 6923TIP3   OH244963   5.464   0.629  11.304  0.0737  0.0067  0.5483
 6923TIP3    H144964   5.523   0.627  11.228 -0.7396  1.7299 -0.1827
 6923TIP3    H244965   5.423   0.542  11.305  1.9426 -0.9254  0.5669
 6924TIP3   OH244966   6.205   0.822   9.905  0.6987 -0.4683 -0.4918
 6924TIP3    H144967   6.261   0.897   9.925  1.9399 -1.3383 -0.6298
 6924TIP3    H244968   6.191   0.779   9.989  0.8639 -0.6864 -0.5766
 6925TIP3   OH244969   2.196   1.213   9.507  0.5501  0.0284  0.0912
 6925TIP3    H144970   2.131   1.205   9.438 -0.5701 -0.4217  1.1617
 6925TIP3    H244971   2.220   1.306   9.507 -0.3450  0.2633 -0.1103
 6926TIP3   OH244972   1.886   4.134  10.519  0.3127 -0.3164  0.0448
 6926TIP3    H144973   1.916   4.220  10.491  0.8191 -1.0637 -1.8176
 6926TIP3    H244974   1.963   4.094  10.560 -0.1897  0.4384  1.8447
 6927TIP3   OH244975   3.571   5.029  11.107  0.0177 -0.3662  0.0338
 6927TIP3    H144976   3.535   4.947  11.072 -0.9996  0.0204  0.1279
 6927TIP3    H244977   3.632   5.059  11.040  0.3808 -1.1804 -0.0157
 6928TIP3   OH244978   3.112   4.511  10.275  0.1738  0.1920 -0.3715
 6928TIP3    H144979   3.081   4.492  10.187  2.0460  2.0360 -1.5208
 6928TIP3    H244980   3.073   4.595  10.297 -0.9657 -0.6335  0.9839
 6929TIP3   OH244981   1.863   5.260   8.947  0.5215  0.1724 -0.1181
 6929TIP3    H144982   1.888   5.314   8.872  0.0473 -1.3384 -1.4313
 6929TIP3    H244983   1.793   5.203   8.913 -0.1229 -0.1467  1.6501
 6930TIP3   OH244984   1.747   2.489   9.057  0.2716 -0.6149  0.1763
 6930TIP3    H144985   1.703   2.555   9.111  0.1214 -0.3603 -0.2536
 6930TIP3    H244986   1.838   2.518   9.053  0.2485 -0.5454  0.1553
 6931TIP3   OH244987   5.347   4.107   8.697  0.3038  0.2314  0.0444
 6931TIP3    H144988   5.322   4.160   8.622 -1.4614 -0.7930 -0.1492
 6931TIP3    H244989   5.433   4.141   8.724 -0.0760  2.1214 -0.9976
 6932TIP3   OH244990   2.209   0.789   9.108 -0.2020  0.0885 -0.1617
 6932TIP3    H144991   2.142   0.817   9.046 -1.1576 -0.6759  0.5029
 6932TIP3    H244992   2.179   0.703   9.139  2.2577 -1.4167 -1.6174
 6933TIP3   OH244993   3.712   4.340  12.199 -0.1588  0.0499 -0.0408
 6933TIP3    H144994   3.704   4.377  12.111 -1.0340 -0.1706 -0.0559
 6933TIP3    H244995   3.699   4.415  12.257 -1.3756 -0.1218 -0.0788
 6934TIP3   OH244996   2.845   2.788   9.629 -0.0111 -0.3117 -0.3939
 6934TIP3    H144997   2.868   2.869   9.675 -0.8556  0.0755 -0.6296
 6934TIP3    H244998   2.929   2.744   9.616  0.2288 -0.6465  1.8579
 6935TIP3   OH244999   4.484   5.379   9.349  0.4390 -0.1543 -0.2278
 6935TIP3    H145000   4.502   5.419   9.434  0.9441 -0.8831  0.0193
 6935TIP3    H245001   4.391   5.360   9.351  0.4724 -0.2910  0.2246
 6936TIP3   OH245002   3.535   6.255  10.940 -0.3158 -0.2568 -0.3818
 6936TIP3    H145003   3.469   6.193  10.908  0.2289 -0.9061 -0.2650
 6936TIP3    H245004   3.614   6.233  10.891 -0.0016  0.0679 -0.0247
 6937TIP3   OH245005   3.735   5.511  10.504  0.0415 -0.3898  0.1363
 6937TIP3    H145006   3.677   5.461  10.562 -1.6787  0.4684 -0.7840
 6937TIP3    H245007   3.710   5.484  10.416 -0.1174  1.1969 -0.3270
 6938TIP3   OH245008   5.877   1.471  11.191 -0.1970 -0.0546  0.2941
 6938TIP3    H145009   5.795   1.440  11.230  0.2234 -0.8214  0.6005
 6938TIP3    H245010   5.909   1.396  11.141 -0.7649  0.9323 -1.6144
 6939TIP3   OH245011   3.107   4.572  11.204 -0.2413 -0.0742 -0.0673
 6939TIP3    H145012   3.035   4.522  11.165  0.5306 -1.7356  0.5290
 6939TIP3    H245013   3.079   4.589  11.294 -0.3275  0.1765 -0.1433
 6940TIP3   OH245014   2.849   4.774  11.269 -0.3238  0.4231  0.7232
 6940TIP3    H145015   2.770   4.740  11.310 -1.4488  1.3276 -0.5962
 6940TIP3    H245016   2.884   4.701  11.218 -0.9112  0.3186  0.4655
 6941TIP3   OH245017   1.226   3.850   8.881 -0.2882 -0.0940  0.3053
 6941TIP3    H145018   1.279   3.776   8.909 -0.6273 -0.7654 -0.7633
 6941TIP3    H245019   1.287   3.906   8.833  0.0459  0.5140  1.4032
 6942TIP3   OH245020   1.685   5.904  11.026  0.0364 -0.0004 -0.3688
 6942TIP3    H145021   1.683   5.825  10.972  2.0809  0.9751 -1.9843
 6942TIP3    H245022   1.595   5.936  11.025 -0.4398 -1.2804 -1.2539
 6943TIP3   OH245023   2.001   4.208  10.035  0.1718  0.4145 -0.2556
 6943TIP3    H145024   2.044   4.245   9.958 -0.1775  0.3851 -0.4671
 6943TIP3    H245025   2.005   4.113  10.021 -1.6834  0.4343 -1.2471
 6944TIP3   OH245026   2.468   1.194   9.030 -0.1760 -0.5052  0.0074
 6944TIP3    H145027   2.401   1.168   8.966 -0.9700 -0.0251  0.6296
 6944TIP3    H245028   2.459   1.132   9.102  0.6335 -0.9654 -0.2691
 6945TIP3   OH245029   2.271   5.251  10.961  0.1950 -0.4240 -0.1413
 6945TIP3    H145030   2.262   5.317  11.029 -0.1342  0.9205 -1.4485
 6945TIP3    H245031   2.360   5.263  10.927 -0.7979  1.4441 -2.3838
 6946TIP3   OH245032   0.582   6.072  10.571  0.0645 -0.4814 -0.0751
 6946TIP3    H145033   0.580   6.038  10.660  0.1548 -1.6019 -0.4823
 6946TIP3    H245034   0.639   6.148  10.575 -2.6308  1.6288  1.5334
 6947TIP3   OH245035   0.506   1.527   9.597 -0.5951  0.5579  0.4171
 6947TIP3    H145036   0.496   1.611   9.552  0.1084  0.0885 -0.6778
 6947TIP3    H245037   0.439   1.471   9.558  0.4893 -0.0672 -0.6450
 6948TIP3   OH245038   3.145   0.918  10.685 -0.0368 -0.2918  0.1155
 6948TIP3    H145039   3.127   0.833  10.645  0.9503 -0.1691 -0.6296
 6948TIP3    H245040   3.156   0.899  10.778  0.1837 -0.9773 -0.0493
 6949TIP3   OH245041   1.405   3.871  10.268 -0.3176  0.1836 -0.3387
 6949TIP3    H145042   1.345   3.934  10.308  0.1239  0.3213  0.1042
 6949TIP3    H245043   1.475   3.925  10.231 -0.8265  0.0857 -1.5147
 6950TIP3   OH245044   2.463   5.376  12.092  0.3639  0.0578 -0.0926
 6950TIP3    H145045   2.426   5.427  12.021 -0.0956  0.5920  0.5242
 6950TIP3    H245046   2.452   5.430  12.170  1.9726  0.0129  0.2030
 6951TIP3   OH245047   5.988   1.697  10.667 -0.0594  0.1014 -0.6471
 6951TIP3    H145048   5.920   1.684  10.734  0.9999 -1.8544  0.1460
 6951TIP3    H245049   6.052   1.755  10.709  0.0778 -0.2517 -0.3614
 6952TIP3   OH245050   1.996   5.139   9.623  0.0923  0.3383 -0.2008
 6952TIP3    H145051   2.028   5.174   9.706  1.4576  1.3773 -1.1166
 6952TIP3    H245052   1.907   5.110   9.642  0.0944  1.2657  1.4379
 6953TIP3   OH245053   1.868   5.876   9.701  0.5030  0.6022 -0.0140
 6953TIP3    H145054   1.883   5.808   9.767 -2.8932 -2.0979 -1.7206
 6953TIP3    H245055   1.856   5.956   9.752 -0.9825 -1.1446  2.6537
 6954TIP3   OH245056   2.351   6.505  11.478  0.5338  0.0447 -0.1216
 6954TIP3    H145057   2.362   6.579  11.418  0.5389  0.0075 -0.1670
 6954TIP3    H245058   2.270   6.463  11.448  0.0602  0.5320  0.4315
 6955TIP3   OH245059   6.234   2.576  10.222 -0.3560  0.6141  0.4106
 6955TIP3    H145060   6.244   2.625  10.140 -1.9241  0.6033  0.1791
 6955TIP3    H245061   6.291   2.500  10.213  0.9467  1.5899  0.1389
 6956TIP3   OH245062   4.739   5.582  10.482 -0.6287 -0.1453 -0.0755
 6956TIP3    H145063   4.688   5.645  10.534  0.3937  0.4790  0.2025
 6956TIP3    H245064   4.696   5.582  10.396 -1.8421 -0.5711  0.5001
 6957TIP3   OH245065   1.956   0.405  10.124  0.4668  0.0081  0.0328
 6957TIP3    H145066   1.903   0.485  10.126 -1.6911 -1.3411 -0.0418
 6957TIP3    H245067   1.988   0.400  10.034 -1.6688 -0.5565 -0.7567
 6958TIP3   OH245068   2.244   1.955  11.802 -0.4052 -0.0290  0.2226
 6958TIP3    H145069   2.215   1.939  11.712  0.3314 -2.3009  0.3344
 6958TIP3    H245070   2.305   2.028  11.794 -0.6865  0.1007 -1.0393
 6959TIP3   OH245071   6.307   6.203   9.970 -0.3679 -0.4722 -0.4292
 6959TIP3    H145072   6.227   6.197   9.919 -0.1746  0.1994 -0.8170
 6959TIP3    H245073   6.376   6.220   9.906 -0.1825  0.8337  0.0927
 6960TIP3   OH245074   4.214   5.351  11.318  0.0758 -0.0530  0.2659
 6960TIP3    H145075   4.209   5.386  11.407 -0.0612 -0.8915  0.5942
 6960TIP3    H245076   4.225   5.256  11.329 -2.3201 -0.5005 -0.6003
 6961TIP3   OH245077   1.916   0.690  11.109  0.6761  0.5173 -0.0411
 6961TIP3    H145078   1.955   0.720  11.027 -0.3772  0.3038 -0.6440
 6961TIP3    H245079   1.835   0.741  11.117 -0.6412 -1.3912 -0.5681
 6962TIP3   OH245080   5.595   1.410  11.248 -0.0581  0.5503  0.0710
 6962TIP3    H145081   5.513   1.370  11.219  0.7102  0.3387 -1.9981
 6962TIP3    H245082   5.573   1.456  11.329 -1.8627 -0.7317  0.3533
 6963TIP3   OH245083   5.924   3.827  11.030  0.2786  0.0748 -0.0065
 6963TIP3    H145084   5.947   3.774  11.106 -0.4587  0.5720  0.5744
 6963TIP3    H245085   6.009   3.851  10.991  0.6552 -0.3302  0.5504
 6964TIP3   OH245086   0.817   0.012  11.388  0.6315 -0.7547 -0.4859
 6964TIP3    H145087   0.782   0.096  11.418  1.0386 -1.2924  1.6964
 6964TIP3    H245088   0.740  -0.036  11.357  0.3023  0.1686 -1.1264
 6965TIP3   OH245089   4.639   4.402  10.660 -0.1127 -0.5559 -0.5597
 6965TIP3    H145090   4.706   4.462  10.693 -0.3728 -0.2506 -0.5791
 6965TIP3    H245091   4.630   4.425  10.567 -0.9055  0.0373 -0.3457
 6966TIP3   OH245092   0.611   6.125  12.157  0.1920  0.6455  0.3344
 6966TIP3    H145093   0.660   6.050  12.194 -1.2340 -0.3639  0.2514
 6966TIP3    H245094   0.679   6.187  12.133  1.3620  0.0374  1.8259
 6967TIP3   OH245095   6.359   4.763  10.692  0.6740  0.0478 -0.3749
 6967TIP3    H145096   6.324   4.686  10.646  3.1295 -0.6304 -1.2605
 6967TIP3    H245097   6.336   4.749  10.783 -1.7930 -0.0419 -0.9412
 6968TIP3   OH245098   1.691   5.829  11.631  0.1144  0.5849 -0.1570
 6968TIP3    H145099   1.746   5.766  11.585 -0.2079  0.0750  0.1328
 6968TIP3    H245100   1.611   5.780  11.651 -1.3449  1.8825 -2.3954
 6969TIP3   OH245101   1.036   5.144  11.603 -0.0412  0.2566  0.2282
 6969TIP3    H145102   1.015   5.228  11.644 -2.3424 -0.1631  0.0045
 6969TIP3    H245103   1.005   5.153  11.513  0.2950 -0.6123  0.0164
 6970TIP3   OH245104   0.364   0.457   9.130  0.0017  0.4762  0.0934
 6970TIP3    H145105   0.411   0.385   9.171 -1.4474 -0.4904  0.1130
 6970TIP3    H245106   0.426   0.494   9.067  0.8037 -0.6924  0.1770
 6971TIP3   OH245107   2.930   6.693  12.157 -0.0784  0.1022  0.9583
 6971TIP3    H145108   2.971   6.690  12.070  0.9623  1.0919  1.3757
 6971TIP3    H245109   2.997   6.657  12.216  0.0379  1.2804  1.5904
 6972TIP3   OH245110   4.648   1.094   9.023  0.3011 -0.1580  0.0217
 6972TIP3    H145111   4.565   1.140   9.029  0.6207  0.5869 -0.8926
 6972TIP3    H245112   4.714   1.164   9.021  0.8328 -0.6555 -0.9372
 6973TIP3   OH245113   2.950   1.195  12.079  0.5182  0.1059  0.2223
 6973TIP3    H145114   2.932   1.289  12.075  1.2272  0.3109  1.3990
 6973TIP3    H245115   2.868   1.156  12.109  0.6869  0.5274  1.2522
 6974TIP3   OH245116   3.035   0.526  11.961 -0.6806 -0.1862 -0.5112
 6974TIP3    H145117   3.006   0.437  11.980  0.5168 -0.3267  0.8301
 6974TIP3    H245118   3.127   0.527  11.986 -0.7947  1.5671 -0.0079
 6975TIP3   OH245119   5.975   2.177   9.949 -0.0940  0.1290  0.2035
 6975TIP3    H145120   6.065   2.171   9.918 -0.2157  1.3666 -0.5008
 6975TIP3    H245121   5.922   2.171   9.869 -0.4845  1.9720  0.2574
 6976TIP3   OH245122   3.762   2.706  10.663  0.2114 -0.1461 -0.0240
 6976TIP3    H145123   3.744   2.723  10.756  1.9256  1.9179  0.0211
 6976TIP3    H245124   3.848   2.747  10.648 -0.1506 -0.1837 -2.5792
 6977TIP3   OH245125   6.150   5.177   9.568 -0.3914  0.0396 -0.1289
 6977TIP3    H145126   6.208   5.231   9.515  0.7519 -1.1556 -0.1335
 6977TIP3    H245127   6.195   5.167   9.652 -1.5452  0.7752  0.6154
 6978TIP3   OH245128   4.006   1.565  10.697 -0.0642  0.0694  0.1133
 6978TIP3    H145129   4.005   1.520  10.612 -1.2975 -0.7326  0.5285
 6978TIP3    H245130   4.093   1.605  10.701  0.9537 -1.9094 -0.4720
 6979TIP3   OH245131   1.005   3.907  10.097 -0.0771  0.8265  0.7865
 6979TIP3    H145132   0.922   3.952  10.104  0.4037  1.9918 -0.5337
 6979TIP3    H245133   1.067   3.974  10.066  1.0031 -0.3572  0.2599
 6980TIP3   OH245134   6.023   1.771   8.967 -0.1236 -0.5132 -0.0078
 6980TIP3    H145135   6.067   1.787   9.050  0.7282 -0.1500 -0.5248
 6980TIP3    H245136   6.093   1.762   8.903 -0.6917 -2.5054 -0.4260
 6981TIP3   OH245137   5.258   2.431  12.503  0.6226  0.3015  0.1267
 6981TIP3    H145138   5.292   2.414  12.415 -0.5409 -0.3971 -0.1975
 6981TIP3    H245139   5.174   2.473  12.489  0.1004 -0.4530  0.8873
 6982TIP3   OH245140   1.909   0.237  11.272  0.4363 -0.3368 -0.1110
 6982TIP3    H145141   1.986   0.184  11.294  0.0350 -0.5219  0.8598
 6982TIP3    H245142   1.942   0.327  11.272  0.7347 -0.4432 -0.0822
 6983TIP3   OH245143   4.270   3.518   9.838 -0.3737 -0.7184 -0.2451
 6983TIP3    H145144   4.217   3.595   9.817  0.5635  0.5758  1.7911
 6983TIP3    H245145   4.359   3.544   9.816  0.2199 -0.4209  2.1412
 6984TIP3   OH245146   0.898   4.610   9.728  0.3068  0.4288 -0.0726
 6984TIP3    H145147   0.937   4.565   9.653  1.0333  1.4030 -0.3021
 6984TIP3    H245148   0.883   4.700   9.697 -0.9977  0.4081  0.4095
 6985TIP3   OH245149   3.380   3.255  11.485  0.6980 -0.0704 -0.1009
 6985TIP3    H145150   3.325   3.332  11.497  0.0070 -0.4346 -0.8464
 6985TIP3    H245151   3.461   3.288  11.447  0.5350  0.3281 -0.1020
 6986TIP3   OH245152   0.040   2.906  11.657  0.2186 -0.2951  0.1674
 6986TIP3    H145153   0.067   2.820  11.687 -0.9804 -0.8204 -0.2126
 6986TIP3    H245154  -0.056   2.907  11.668  0.4515  2.3649  3.8795
 6987TIP3   OH245155   3.046   0.444  12.391 -0.0207 -0.6553 -0.2069
 6987TIP3    H145156   3.131   0.449  12.346  0.3196 -0.5326  0.4363
 6987TIP3    H245157   3.000   0.372  12.348  0.4134 -0.7316 -0.5554
 6988TIP3   OH245158   2.839   2.137  11.026 -0.6685  0.2540 -0.8679
 6988TIP3    H145159   2.766   2.117  10.967 -0.2551 -0.7341 -1.0819
 6988TIP3    H245160   2.824   2.227  11.054 -3.0391 -0.5238  0.6435
 6989TIP3   OH245161   0.093   1.482  10.464  0.3233  0.5179 -0.4943
 6989TIP3    H145162   0.083   1.403  10.517 -0.8474  0.7643 -0.3183
 6989TIP3    H245163   0.187   1.487  10.446  1.0366  1.1542  2.7036
 6990TIP3   OH245164   0.755   0.547  10.924  0.1091 -0.2879  0.3593
 6990TIP3    H145165   0.795   0.512  11.004 -0.0389  3.5504  2.3871
 6990TIP3    H245166   0.675   0.590  10.955 -0.0453  1.1755 -1.8976
 6991TIP3   OH245167   6.153   5.884   9.607 -0.8639 -0.3481  0.0904
 6991TIP3    H145168   6.224   5.916   9.663 -0.2573 -1.3150 -0.1054
 6991TIP3    H245169   6.190   5.808   9.562 -1.7500 -0.3425 -0.6768
 6992TIP3   OH245170   0.725   4.930  10.311  0.4367  0.0149 -0.6139
 6992TIP3    H145171   0.790   4.926  10.382  0.3282  0.5883 -0.4709
 6992TIP3    H245172   0.774   4.909  10.232  0.3469 -1.6480 -0.2541
 6993TIP3   OH245173   1.039   1.781   9.107  0.2990 -0.0483  0.4795
 6993TIP3    H145174   0.948   1.759   9.124  0.2411  1.0036  1.6808
 6993TIP3    H245175   1.089   1.713   9.152  0.2194 -2.5829 -2.8485
 6994TIP3   OH245176   1.827   6.363   9.004 -0.0351 -0.1999 -0.5849
 6994TIP3    H145177   1.877   6.351   9.084  1.5845  0.1217 -1.5047
 6994TIP3    H245178   1.891   6.354   8.934 -0.9919  1.5853 -1.7661
 6995TIP3   OH245179   3.376   6.336  10.067  0.2695  0.0411 -0.0495
 6995TIP3    H145180   3.391   6.399   9.997 -0.0431  0.4191  0.2200
 6995TIP3    H245181   3.450   6.349  10.127  1.1209 -1.0170 -0.8239
 6996TIP3   OH245182   0.024   2.251  10.579  0.3092  0.3027 -0.0501
 6996TIP3    H145183  -0.040   2.185  10.555 -0.5850  1.1762 -0.1209
 6996TIP3    H245184   0.051   2.291  10.497  1.3131 -0.3654 -0.0686
 6997TIP3   OH245185   4.819   4.799  10.060  0.2482 -0.4587  0.3312
 6997TIP3    H145186   4.724   4.808  10.059  0.3165  0.4260  0.4151
 6997TIP3    H245187   4.835   4.709  10.086 -0.5729 -0.7219 -0.0471
 6998TIP3   OH245188   2.459   5.491  10.706 -0.4030 -0.3597 -1.0132
 6998TIP3    H145189   2.480   5.447  10.789  1.1043 -0.5249 -1.4526
 6998TIP3    H245190   2.421   5.422  10.651  0.4166 -0.7258 -1.1293
 6999TIP3   OH245191   0.334   4.505  11.629 -0.1451 -0.2866  0.2431
 6999TIP3    H145192   0.418   4.479  11.666 -0.1949 -1.2215 -0.2780
 6999TIP3    H245193   0.335   4.473  11.539 -1.0368 -0.2700  0.2117
 7000TIP3   OH245194   3.982   3.274   9.260  0.2589  0.0347  0.4268
 7000TIP3    H145195   4.052   3.247   9.200  1.2340 -1.1792  2.0238
 7000TIP3    H245196   4.010   3.240   9.345 -3.5942 -3.0343  0.7323
 7001TIP3   OH245197   5.942   3.990  10.742  0.2236 -0.6849 -0.0202
 7001TIP3    H145198   5.978   3.909  10.706 -1.4647 -2.8104  2.7229
 7001TIP3    H245199   5.847   3.980  10.732 -0.0108  1.4725 -0.5134
 7002TIP3   OH245200   1.321   4.886   9.816  0.3568  0.2679  0.4138
 7002TIP3    H145201   1.343   4.834   9.894 -0.2110  0.1920  0.5297
 7002TIP3    H245202   1.309   4.821   9.747  0.0380  0.2722  0.4639
 7003TIP3   OH245203   3.706   4.990  10.229 -0.3187  0.3251  0.0824
 7003TIP3    H145204   3.786   5.021  10.186  0.3856  0.7648  1.6414
 7003TIP3    H245205   3.645   5.064  10.223 -0.8265 -0.1921 -1.5669
 7004TIP3   OH245206   4.276   6.311  10.802  0.1648  0.6062  0.1500
 7004TIP3    H145207   4.361   6.268  10.816  0.0591  0.3517 -0.0017
 7004TIP3    H245208   4.261   6.305  10.708  0.5605  1.7365 -0.0048
 7005TIP3   OH245209   5.118   2.564  10.240 -0.3158  1.2675 -0.1276
 7005TIP3    H145210   5.159   2.636  10.288  1.8683 -1.2103  2.1534
 7005TIP3    H245211   5.190   2.524  10.191 -1.1126 -0.1629 -0.1924
 7006TIP3   OH245212   1.185   5.472   9.017 -0.5839 -0.4809  0.3204
 7006TIP3    H145213   1.203   5.565   9.030 -0.4725 -0.3865 -0.4878
 7006TIP3    H245214   1.089   5.466   9.020 -0.7055 -0.0446 -1.4143
 7007TIP3   OH245215   0.932   5.627  10.228  0.4036 -0.1011 -0.5262
 7007TIP3    H145216   0.876   5.588  10.161  0.3071  0.3590 -0.7184
 7007TIP3    H245217   0.906   5.585  10.310 -0.1886  0.0783 -0.6223
 7008TIP3   OH245218   0.543   3.665   9.261  0.8035 -0.4833  0.0373
 7008TIP3    H145219   0.583   3.623   9.337 -1.0880 -1.5363  0.5193
 7008TIP3    H245220   0.541   3.596   9.194 -2.1198 -1.2411  0.7592
 7009TIP3   OH245221   3.849   1.407  11.925 -0.0748 -0.7486 -0.2166
 7009TIP3    H145222   3.932   1.360  11.912 -0.2105 -0.8436 -0.8014
 7009TIP3    H245223   3.861   1.456  12.006  0.5444 -0.7820 -0.2832
 7010TIP3   OH245224   6.418   0.521  10.494 -0.4147  0.1516  0.0123
 7010TIP3    H145225   6.372   0.521  10.578  0.4025  0.2171  0.4717
 7010TIP3    H245226   6.435   0.613  10.475  0.4367  0.0829  0.3715
 7011TIP3   OH245227   1.875   2.323  10.632 -0.0534  0.0676 -0.5715
 7011TIP3    H145228   1.873   2.269  10.711  1.0116 -1.2472 -1.3983
 7011TIP3    H245229   1.834   2.268  10.564 -1.1926  1.2742 -0.8891
 7012TIP3   OH245230   2.568   0.603  10.038  0.0659  0.0536 -0.0716
 7012TIP3    H145231   2.594   0.655  10.113 -0.9637 -0.6790  0.8358
 7012TIP3    H245232   2.552   0.666   9.968 -0.2636  0.8675  0.7283
 7013TIP3   OH245233   3.475   2.863  10.971  0.1052 -0.1525 -0.3760
 7013TIP3    H145234   3.507   2.946  11.004  0.9221 -0.1553 -1.1364
 7013TIP3    H245235   3.547   2.802  10.984 -0.5216 -0.7818  0.2699
 7014TIP3   OH245236   2.432   6.539   9.197  0.1645 -0.4214 -0.4948
 7014TIP3    H145237   2.479   6.491   9.129  0.5089  0.6939 -1.0644
 7014TIP3    H245238   2.497   6.552   9.266  1.2230  2.3173 -1.8483
 7015TIP3   OH245239   1.280   4.407   9.743 -0.1244  0.4289  0.7318
 7015TIP3    H145240   1.243   4.327   9.706  3.7214 -0.4323 -1.8007
 7015TIP3    H245241   1.288   4.388   9.837 -0.7769 -1.4766  0.4440
 7016TIP3   OH245242   1.489   5.733   9.229 -0.5837 -0.2584 -0.1858
 7016TIP3    H145243   1.475   5.821   9.264  2.1954  0.5870 -0.9094
 7016TIP3    H245244   1.584   5.721   9.233 -0.6852 -2.3324 -2.1435
 7017TIP3   OH245245   2.144   6.236  11.613 -0.7257  0.1233 -0.4436
 7017TIP3    H145246   2.109   6.305  11.669 -2.7832 -1.5825  0.4937
 7017TIP3    H245247   2.110   6.256  11.526 -2.0708 -0.1918  0.0020
 7018TIP3   OH245248   3.249   0.329  11.537 -0.0771 -0.2840  0.3565
 7018TIP3    H145249   3.309   0.326  11.612  0.1863  0.8857  0.2197
 7018TIP3    H245250   3.173   0.278  11.565  0.4148 -0.6531  1.0540
 7019TIP3   OH245251   4.375   6.633  11.291 -0.0660 -0.2121 -0.6817
 7019TIP3    H145252   4.312   6.680  11.236 -1.0482 -1.1713 -0.4035
 7019TIP3    H245253   4.456   6.632  11.239  0.5750  3.2648  0.0096
 7020TIP3   OH245254   1.121   6.588  11.665 -0.1834  0.4492  0.1926
 7020TIP3    H145255   1.029   6.610  11.651 -1.2343 -3.1603  0.5108
 7020TIP3    H245256   1.141   6.522  11.599  2.3813  1.4003 -0.1248
 7021TIP3   OH245257   1.074   1.929  12.714 -0.1110 -0.2626 -0.3332
 7021TIP3    H145258   1.158   1.891  12.690  0.5182  0.8860 -0.0281
 7021TIP3    H245259   1.016   1.908  12.641  0.1309 -1.9650 -0.0827
 7022TIP3   OH245260   1.811   6.117  10.884 -0.2520  0.1736 -0.3604
 7022TIP3    H145261   1.769   6.041  10.925 -0.0593  0.8951  1.2057
 7022TIP3    H245262   1.898   6.121  10.924 -0.0186  0.8355 -0.9193
 7023TIP3   OH245263   2.761   3.427  11.594  0.4279  0.1413  0.2693
 7023TIP3    H145264   2.771   3.433  11.499  0.9386  1.3536  0.3807
 7023TIP3    H245265   2.684   3.480  11.613 -1.2009 -2.0949  0.3187
 7024TIP3   OH245266   0.573   1.227   8.913  0.1207 -0.0661  0.5685
 7024TIP3    H145267   0.656   1.180   8.908  0.7445  0.9290  1.1722
 7024TIP3    H245268   0.595   1.311   8.953 -0.9515  0.7640 -0.4945
 7025TIP3   OH245269   5.612   1.705   9.787  0.4611  0.4503  0.5142
 7025TIP3    H145270   5.530   1.750   9.806  1.0263  1.9069 -0.3535
 7025TIP3    H245271   5.670   1.730   9.859  0.9699  1.7036 -0.2840
 7026TIP3   OH245272   3.154   1.559  10.570  0.0148 -0.5961  0.6436
 7026TIP3    H145273   3.241   1.521  10.552 -0.3174 -1.7883  1.4055
 7026TIP3    H245274   3.106   1.488  10.613 -1.3645  0.0356  0.1845
 7027TIP3   OH245275   3.772   4.955  11.490 -0.3935  0.2973  0.1798
 7027TIP3    H145276   3.829   4.997  11.554  0.6997  0.7086 -1.0373
 7027TIP3    H245277   3.826   4.887  11.450 -1.5714 -1.0577  0.8002
 7028TIP3   OH245278   1.776   0.659  11.535  0.3905 -0.3948  0.3888
 7028TIP3    H145279   1.811   0.747  11.545  2.5559 -1.2704  1.2244
 7028TIP3    H245280   1.755   0.651  11.442 -0.1082  1.0620  0.3532
 7029TIP3   OH245281   4.424   3.374   9.573 -0.2081 -0.1702 -0.6607
 7029TIP3    H145282   4.449   3.464   9.590  0.5875 -0.4852 -0.1205
 7029TIP3    H245283   4.473   3.349   9.495  2.7496 -1.3508  1.3707
 7030TIP3   OH245284   4.688   0.828  10.996  0.4182  0.2051 -0.1041
 7030TIP3    H145285   4.645   0.763  11.052 -0.5985 -0.4228 -1.5427
 7030TIP3    H245286   4.746   0.877  11.055  0.6644 -1.5237  1.1599
 7031TIP3   OH245287   5.648   3.354   9.627  0.8115  0.4320  0.2369
 7031TIP3    H145288   5.654   3.263   9.658 -1.1633  0.0897 -0.2471
 7031TIP3    H245289   5.710   3.358   9.554  0.5702 -0.6961 -0.0559
 7032TIP3   OH245290   2.264   3.661  10.973  0.4253  0.0006  0.5334
 7032TIP3    H145291   2.348   3.673  11.017  0.7758  0.3553 -0.2052
 7032TIP3    H245292   2.219   3.744  10.986 -0.5273 -0.7576  2.3661
 7033TIP3   OH245293   4.080   2.128   9.296 -0.2534  0.3202  0.0972
 7033TIP3    H145294   4.076   2.223   9.302 -1.3676  0.3121 -0.2512
 7033TIP3    H245295   4.030   2.097   9.371 -1.2204  0.0456 -0.6387
 7034TIP3   OH245296   4.187   6.652   9.199 -0.0452  0.4470 -0.3350
 7034TIP3    H145297   4.259   6.604   9.239 -1.2966 -2.8982 -1.7518
 7034TIP3    H245298   4.119   6.653   9.266  0.4299  1.4628  0.1509
 7035TIP3   OH245299   3.743   3.062  11.410  0.0301 -0.4161 -0.3367
 7035TIP3    H145300   3.714   3.149  11.381 -1.6758 -0.8078  0.0880
 7035TIP3    H245301   3.807   3.035  11.345  1.1369  1.4523 -0.0833
 7036TIP3   OH245302   2.637   3.690  10.429 -0.2061  0.2835  0.0550
 7036TIP3    H145303   2.716   3.636  10.438  0.4686  0.8633 -1.9120
 7036TIP3    H245304   2.588   3.673  10.509 -0.8968 -4.6602 -1.0654
 7037TIP3   OH245305   2.034   2.801  10.348 -0.2036  0.1550  0.6525
 7037TIP3    H145306   1.988   2.884  10.336 -0.7938 -0.1642  0.6581
 7037TIP3    H245307   2.038   2.763  10.261 -0.3697 -0.0343  0.7261
 7038TIP3   OH245308   5.386   2.811  19.732  0.0576  0.1792 -0.1755
 7038TIP3    H145309   5.328   2.813  19.809 -0.3876 -0.0243 -0.4978
 7038TIP3    H245310   5.367   2.893  19.686  0.2464  0.2509 -0.1279
 7039TIP3   OH245311   4.614   2.748   9.462  0.4231 -0.4207 -0.5785
 7039TIP3    H145312   4.543   2.780   9.405  0.5657  0.7173 -0.1334
 7039TIP3    H245313   4.678   2.819   9.463  0.4201 -0.4166  1.0121
 7040TIP3   OH245314   3.012   1.498  12.365 -0.1055 -0.3608 -0.0188
 7040TIP3    H145315   3.100   1.467  12.342 -0.3577 -0.8902 -0.2892
 7040TIP3    H245316   2.998   1.465  12.454 -0.3119 -0.8995 -0.2482
 7041TIP3   OH245317   4.705   0.807  10.430 -0.2672 -0.1109 -0.0574
 7041TIP3    H145318   4.775   0.863  10.464 -0.3534  0.1296 -0.2754
 7041TIP3    H245319   4.742   0.719  10.430  0.7173  0.2640 -1.9958
 7042TIP3   OH245320   4.665   2.002   9.982 -0.3733 -0.3726 -0.1760
 7042TIP3    H145321   4.642   1.942  10.054  0.7700 -1.2279 -0.4799
 7042TIP3    H245322   4.760   2.015   9.992 -0.4270  0.5315 -0.7712
 7043TIP3   OH245323   5.966   1.301   8.837  0.7553 -0.1840 -0.1512
 7043TIP3    H145324   6.025   1.357   8.787  0.1808 -0.6836 -1.4335
 7043TIP3    H245325   5.938   1.234   8.775 -3.2438  1.5017 -0.5081
 7044TIP3   OH245326   5.643   3.314  10.286  0.3784  1.3564 -0.0352
 7044TIP3    H145327   5.598   3.294  10.204  1.1722  0.5253 -0.2816
 7044TIP3    H245328   5.619   3.243  10.345 -0.4983  2.1506  0.6003
 7045TIP3   OH245329   1.928   1.167   9.638  0.1328 -1.0169 -0.4211
 7045TIP3    H145330   1.926   1.128   9.551  0.0797 -1.0120 -0.4216
 7045TIP3    H245331   1.885   1.252   9.628  0.6871 -0.7436 -0.5259
 7046TIP3   OH245332   0.478   6.441   9.801 -0.1654  0.0837 -0.5680
 7046TIP3    H145333   0.495   6.392   9.882  1.3054  1.9054  0.3054
 7046TIP3    H245334   0.562   6.442   9.756 -1.0974 -1.3794 -2.4822
 7047TIP3   OH245335   0.174   0.626   9.441 -0.4160 -0.0216  0.4343
 7047TIP3    H145336   0.110   0.680   9.488 -1.9090 -1.0767 -0.3092
 7047TIP3    H245337   0.236   0.689   9.404  1.7671  0.8889  4.8624
 7048TIP3   OH245338   4.195   5.794   8.995  0.1487 -0.2644 -0.4261
 7048TIP3    H145339   4.173   5.840   9.076  1.4381  0.3278 -0.3934
 7048TIP3    H245340   4.226   5.708   9.024 -0.7639 -0.6029 -0.3983
 7049TIP3   OH245341   6.648   2.485  11.073 -0.1338  0.4287 -0.4687
 7049TIP3    H145342   6.558   2.506  11.050 -0.4666  1.3232  1.4311
 7049TIP3    H245343   6.686   2.568  11.102  0.2064 -0.5085  2.0319
 7050TIP3   OH245344   1.208   1.887  10.347 -0.1885 -0.3292  0.1436
 7050TIP3    H145345   1.300   1.909  10.363 -0.4171  0.4602  0.4593
 7050TIP3    H245346   1.169   1.883  10.435 -0.0970 -2.3954  0.1231
 7051TIP3   OH245347   4.071   3.163   8.982  0.3221 -0.6071  0.0069
 7051TIP3    H145348   4.030   3.248   8.970  0.4315 -0.5611 -0.0363
 7051TIP3    H245349   4.162   3.176   8.956  0.7258 -0.3428  1.4282
 7052TIP3   OH245350   5.708   6.418  10.014 -0.2959  0.2781 -0.1277
 7052TIP3    H145351   5.763   6.464   9.951 -0.0194 -1.7431 -1.4480
 7052TIP3    H245352   5.624   6.464  10.010 -0.4512 -0.0918 -2.4002
 7053TIP3   OH245353   0.596   0.309   9.208 -0.5265 -0.8745  0.2804
 7053TIP3    H145354   0.678   0.270   9.177 -0.7310 -1.0499 -0.0427
 7053TIP3    H245355   0.588   0.279   9.298 -0.5289 -1.3379  0.1298
 7054TIP3   OH245356   4.235   2.627   9.414  0.4677  0.7753  0.0676
 7054TIP3    H145357   4.230   2.666   9.326 -0.3201 -0.6228 -0.5404
 7054TIP3    H245358   4.201   2.696   9.472 -1.3224  0.9004 -1.0308
 7055TIP3   OH245359   1.623   2.454  11.181 -0.0131 -0.3656  0.3569
 7055TIP3    H145360   1.541   2.502  11.191 -0.4084 -0.1374 -3.0391
 7055TIP3    H245361   1.597   2.363  11.172  0.0563 -0.2971 -0.6829
 7056TIP3   OH245362   5.324   1.618   8.859 -0.6946  0.5884  0.1435
 7056TIP3    H145363   5.236   1.644   8.886 -0.3787  0.9863  0.8166
 7056TIP3    H245364   5.370   1.700   8.843 -1.4245  0.4550 -3.7084
 7057TIP3   OH245365   1.865   0.702  12.413  0.5971  0.3430 -0.1969
 7057TIP3    H145366   1.943   0.758  12.408  0.6620  0.1212 -3.3563
 7057TIP3    H245367   1.793   0.760  12.389  0.6380 -0.7021 -3.3019
 7058TIP3   OH245368   0.945   5.925  11.989 -0.1392 -0.0055  0.8706
 7058TIP3    H145369   1.020   5.889  11.942  0.1227  1.2758  0.2621
 7058TIP3    H245370   0.940   5.874  12.070  0.7770 -0.7583  0.4641
 7059TIP3   OH245371   4.736   4.087   9.314 -0.4872 -0.3924  0.1404
 7059TIP3    H145372   4.731   4.015   9.251 -1.8535  0.9314 -1.3434
 7059TIP3    H245373   4.813   4.136   9.288  0.0546 -0.9178  0.7287
 7060TIP3   OH245374   5.584   1.761   8.839  0.5030 -0.2091 -0.2179
 7060TIP3    H145375   5.609   1.672   8.815  0.5009 -0.5340  0.9169
 7060TIP3    H245376   5.662   1.814   8.822  0.3718 -0.3361 -1.2934
 7061TIP3   OH245377   0.579   3.224  10.119 -0.3925 -0.2423 -0.0440
 7061TIP3    H145378   0.490   3.250  10.093 -1.2746 -1.9104  1.0909
 7061TIP3    H245379   0.594   3.141  10.072  0.0287 -0.6412  0.7791
 7062TIP3   OH245380   4.425   4.457   9.143 -0.2286 -0.1167  0.5363
 7062TIP3    H145381   4.441   4.373   9.187 -1.2113  0.0139  1.1709
 7062TIP3    H245382   4.437   4.437   9.050  0.7481 -0.6653  0.7558
 7063TIP3   OH245383   6.103   5.570   9.800  0.8244  0.3864 -0.1552
 7063TIP3    H145384   6.187   5.605   9.771 -0.4318  1.6901 -2.5159
 7063TIP3    H245385   6.056   5.646   9.835 -0.1157  0.1044 -0.7683
 7064TIP3   OH245386   0.089   0.172  10.257  0.0476  0.7070 -0.0179
 7064TIP3    H145387   0.058   0.185  10.167 -0.7907 -1.0787 -0.0149
 7064TIP3    H245388   0.083   0.078  10.272  0.3704  0.9421  1.8567
 7065TIP3   OH245389   1.989   0.587  11.896 -0.1075 -0.0610 -0.6850
 7065TIP3    H145390   2.040   0.542  11.963 -0.2026  0.6265 -0.1407
 7065TIP3    H245391   1.907   0.608  11.939 -0.6488 -0.6732 -1.3935
 7066TIP3   OH245392   0.873   0.920  10.134 -1.0436  0.4442 -0.4300
 7066TIP3    H145393   0.782   0.921  10.164 -0.4299 -1.4344  1.7437
 7066TIP3    H245394   0.905   0.832  10.156  1.4694  1.2276 -0.6218
 7067TIP3   OH245395   0.642   1.062  12.233  0.1590  0.3085 -0.5047
 7067TIP3    H145396   0.657   1.119  12.158 -0.5413  1.2960  0.0836
 7067TIP3    H245397   0.663   0.974  12.201  1.1695  0.8765 -1.4490
 7068TIP3   OH245398   1.227   6.375  11.504 -0.4279 -0.6552 -0.5971
 7068TIP3    H145399   1.313   6.368  11.463 -0.3845 -0.9326 -0.4559
 7068TIP3    H245400   1.170   6.408  11.434 -0.7990 -2.9771 -1.4858
 7069TIP3   OH245401   6.339   0.446  12.235 -0.6999 -0.1707 -0.1404
 7069TIP3    H145402   6.303   0.513  12.293 -0.1986  0.8464 -0.9781
 7069TIP3    H245403   6.419   0.416  12.280 -0.6467  0.1633 -0.0096
 7070TIP3   OH245404   4.266   4.965  10.434  0.1065 -0.6274  0.0409
 7070TIP3    H145405   4.241   4.970  10.527  1.2312 -1.0033  0.3794
 7070TIP3    H245406   4.342   5.022  10.427  0.2408 -0.8801 -0.5878
 7071TIP3   OH245407   0.200   2.332   9.521  0.0219  0.1813 -0.1624
 7071TIP3    H145408   0.268   2.269   9.546  2.4705  2.2522 -1.2157
 7071TIP3    H245409   0.169   2.300   9.436  1.0635  0.1991 -0.5712
 7072TIP3   OH245410   1.685   3.888   9.591  0.1074 -0.3689  0.3361
 7072TIP3    H145411   1.752   3.840   9.641  0.5249  1.0107  1.1528
 7072TIP3    H245412   1.719   3.889   9.502  0.2162 -1.3552  0.3529
 7073TIP3   OH245413   0.155   5.535   9.876  0.5918  0.8136 -0.8648
 7073TIP3    H145414   0.156   5.584   9.958 -0.2757  1.3582 -1.1669
 7073TIP3    H245415   0.209   5.458   9.893  0.7705  1.1393  0.0747
 7074TIP3   OH245416   1.108   0.199  10.392  0.2381  0.2296 -0.4273
 7074TIP3    H145417   1.109   0.279  10.445 -1.1387  0.4121 -0.6274
 7074TIP3    H245418   1.102   0.128  10.456 -3.5411  0.5221 -0.2283
 7075TIP3   OH245419   4.345   5.729   9.589  0.1437 -0.5416 -0.0517
 7075TIP3    H145420   4.341   5.735   9.493  0.0200 -1.8032 -0.1442
 7075TIP3    H245421   4.375   5.815   9.617 -1.0168  0.2557 -1.1379
 7076TIP3   OH245422   4.012   2.449  10.519  0.6654 -0.7834  0.3027
 7076TIP3    H145423   4.039   2.463  10.428 -1.5601 -0.3087 -0.3666
 7076TIP3    H245424   4.041   2.527  10.565 -1.5461  0.8784 -0.9065
 7077TIP3   OH245425   4.979   3.302  11.161  0.5400 -0.1201  0.3390
 7077TIP3    H145426   5.011   3.390  11.181 -1.4136  0.6717  0.2056
 7077TIP3    H245427   4.914   3.284  11.229 -0.1482 -0.8586 -0.4919
 7078TIP3   OH245428   0.886   4.277  12.164 -0.2580 -0.0794 -0.0547
 7078TIP3    H145429   0.976   4.253  12.183 -0.2667  0.3888  0.6337
 7078TIP3    H245430   0.866   4.345  12.228  0.0508  2.4255 -2.4709
 7079TIP3   OH245431   2.836   3.425   9.898  0.1868 -0.0180 -0.0862
 7079TIP3    H145432   2.796   3.339   9.905  0.7456 -0.2545  0.2844
 7079TIP3    H245433   2.903   3.415   9.830  0.1104  0.1820 -0.1928
 7080TIP3   OH245434   1.031   3.922  11.227  0.0370  0.3795  0.2361
 7080TIP3    H145435   0.936   3.920  11.237  0.1518  0.7415  1.5935
 7080TIP3    H245436   1.057   3.830  11.222 -0.5307  0.2810 -2.1517
 7081TIP3   OH245437   2.790   5.081  11.675  0.0187  0.2240  0.1072
 7081TIP3    H145438   2.736   5.149  11.716  1.4207  1.3034  0.2210
 7081TIP3    H245439   2.790   5.010  11.739 -2.3840 -0.4209 -0.4886
 7082TIP3   OH245440   4.460   5.921   9.772 -0.4454 -0.4587 -0.0671
 7082TIP3    H145441   4.509   5.842   9.797  1.5840  0.2888 -1.4262
 7082TIP3    H245442   4.488   5.986   9.836 -2.4773 -0.8648  1.3456
 7083TIP3   OH245443   2.437   3.875  11.782 -0.1382 -0.3737 -0.4779
 7083TIP3    H145444   2.507   3.905  11.723  0.7817 -1.4707  0.0123
 7083TIP3    H245445   2.482   3.851  11.863 -1.2210 -0.1885  0.2021
 7084TIP3   OH245446   6.592   6.410  10.052 -0.0159 -0.1431 -0.0294
 7084TIP3    H145447   6.518   6.386   9.996 -0.3682 -1.4022  0.9167
 7084TIP3    H245448   6.578   6.359  10.132  0.8616  1.0678  0.9165
 7085TIP3   OH245449   0.065   3.978  11.114  0.2589 -0.2979  0.6147
 7085TIP3    H145450   0.044   4.015  11.199  1.6646 -0.9354  1.2760
 7085TIP3    H245451   0.155   3.945  11.123  0.6858  0.1782 -1.2981
 7086TIP3   OH245452   2.444   6.282   9.496 -0.4184  0.4033  0.4857
 7086TIP3    H145453   2.376   6.251   9.436  0.8329  0.8818 -1.2454
 7086TIP3    H245454   2.408   6.364   9.531 -1.2421  0.0224  0.5786
 7087TIP3   OH245455   5.509   4.674  10.885 -0.2159 -0.3841  0.2209
 7087TIP3    H145456   5.513   4.733  10.810 -1.6684 -1.7160 -0.9722
 7087TIP3    H245457   5.523   4.730  10.961  1.2203  1.0172 -1.0197
 7088TIP3   OH245458   0.491   1.113  10.026  0.8432 -0.0516 -0.0968
 7088TIP3    H145459   0.432   1.119   9.950 -1.0175 -0.1902  1.2582
 7088TIP3    H245460   0.578   1.099   9.988 -0.1132 -0.7703 -2.1737
 7089TIP3   OH245461   4.337   5.654  10.194  0.2653 -0.2501  0.3365
 7089TIP3    H145462   4.255   5.610  10.172 -0.9118  1.5406  0.8394
 7089TIP3    H245463   4.398   5.628  10.125 -1.0509 -0.7945 -0.6609
 7090TIP3   OH245464   1.867   1.984  12.201 -0.2236  0.4267 -0.2544
 7090TIP3    H145465   1.954   1.987  12.240 -0.4534  1.1357  0.2237
 7090TIP3    H245466   1.882   1.993  12.107  0.2095  0.6675 -0.1626
 7091TIP3   OH245467   1.284   2.925   9.613  0.0711  0.0683 -0.2762
 7091TIP3    H145468   1.230   2.964   9.544  1.1862 -0.6904 -1.6246
 7091TIP3    H245469   1.234   2.849   9.642  0.1103 -0.2915 -1.1052
 7092TIP3   OH245470   0.997   2.785  11.051  0.5816  0.0597 -0.5506
 7092TIP3    H145471   0.950   2.738  10.982 -0.3475  0.8745 -0.4922
 7092TIP3    H245472   1.045   2.717  11.097 -1.1382 -0.9527 -0.1474
 7093TIP3   OH245473   3.308   1.049  11.043  0.0439 -0.2638  0.0554
 7093TIP3    H145474   3.356   1.023  10.964 -0.4514 -0.9458 -0.0253
 7093TIP3    H245475   3.263   1.130  11.017 -2.2000 -1.7941 -1.2486
 7094TIP3   OH245476   4.865   2.876   9.488 -0.1305  0.1771 -0.1878
 7094TIP3    H145477   4.839   2.914   9.404 -1.0146  1.4093  0.6150
 7094TIP3    H245478   4.892   2.950   9.541  2.2392 -0.7780  0.0380
 7095TIP3   OH245479   0.652   1.862  11.312 -0.3605 -0.7658  0.0720
 7095TIP3    H145480   0.639   1.920  11.387  0.4121 -0.5334  0.0265
 7095TIP3    H245481   0.641   1.774  11.349 -1.3849 -0.6083  0.1701
 7096TIP3   OH245482   5.752   3.758   8.577 -0.1293 -0.2117  0.0968
 7096TIP3    H145483   5.745   3.804   8.493 -1.5181  0.5102  0.5608
 7096TIP3    H245484   5.666   3.718   8.588  0.0537 -0.3228  1.1571
 7097TIP3   OH245485   0.660   2.174   9.184 -0.1508  0.0901  0.3133
 7097TIP3    H145486   0.677   2.080   9.194  1.5669  0.3131 -0.2538
 7097TIP3    H245487   0.565   2.179   9.168 -0.1904 -1.6011 -0.2029
 7098TIP3   OH245488   0.863   1.483   9.573 -0.7268  0.0425  0.0263
 7098TIP3    H145489   0.831   1.573   9.585 -1.1627 -0.0505 -0.4112
 7098TIP3    H245490   0.832   1.458   9.486 -0.0419 -0.3024 -0.1259
 7099TIP3   OH245491   6.695   4.351  10.088  0.2263 -0.3863 -0.5796
 7099TIP3    H145492   6.735   4.277  10.134  0.0819 -1.2110 -1.7598
 7099TIP3    H245493   6.622   4.314  10.040 -0.3866  0.6825 -0.4994
 7100TIP3   OH245494   2.006   6.371  11.820 -0.6755  0.2680  0.2180
 7100TIP3    H145495   2.032   6.418  11.898 -0.6306 -0.8244  0.8849
 7100TIP3    H245496   2.037   6.281  11.834  1.6030  0.5494 -2.1273
 7101TIP3   OH245497   0.860   3.353  10.103 -0.1431 -0.0663 -0.2845
 7101TIP3    H145498   0.839   3.267  10.138  0.0628 -0.4444 -1.0664
 7101TIP3    H245499   0.850   3.344  10.008  2.5671 -0.0527 -0.6655
 7102TIP3   OH245500   4.795   2.151  10.747  0.0400  0.0663  0.3841
 7102TIP3    H145501   4.750   2.215  10.692  1.9249  0.5608 -0.6699
 7102TIP3    H245502   4.804   2.073  10.692 -0.5636 -0.4695  1.0128
 7103TIP3   OH245503   4.338   0.655  12.002 -0.1770 -0.0971  0.0883
 7103TIP3    H145504   4.308   0.651  11.911  1.3773  0.5879 -0.4959
 7103TIP3    H245505   4.269   0.702  12.048  0.1980  1.9185 -1.3044
 7104TIP3   OH245506   3.164   6.318  11.772 -0.4105 -0.5269 -0.2311
 7104TIP3    H145507   3.075   6.287  11.757  0.6046 -3.1285 -1.4003
 7104TIP3    H245508   3.177   6.308  11.867 -0.6593 -2.3043 -0.3468
 7105TIP3   OH245509   6.155   2.760   8.922  0.1357  0.2475 -0.5152
 7105TIP3    H145510   6.179   2.829   8.984  1.1713  0.7404 -1.4198
 7105TIP3    H245511   6.075   2.722   8.958  0.3515  0.9432  0.7713
 7106TIP3   OH245512   1.604   0.388  10.263  0.5810 -0.5120 -0.3384
 7106TIP3    H145513   1.646   0.410  10.346  1.6720 -1.9888 -0.4707
 7106TIP3    H245514   1.553   0.467  10.241  1.3289  0.4056  1.0483
 7107TIP3   OH245515   3.742   4.693   9.788 -0.5238 -0.2626  0.0644
 7107TIP3    H145516   3.779   4.758   9.848  0.5419  1.1520 -2.0182
 7107TIP3    H245517   3.651   4.720   9.776  0.2399  1.7320 -1.7962
 7108TIP3   OH245518   6.566   2.293  11.276  0.1855  0.4760 -0.1400
 7108TIP3    H145519   6.624   2.345  11.221  0.4145 -0.7784 -1.1326
 7108TIP3    H245520   6.548   2.349  11.352  2.1537  1.1456 -0.1202
 7109TIP3   OH245521   3.723   5.066  10.870  0.1050  0.1337 -0.0696
 7109TIP3    H145522   3.719   4.971  10.858  0.2661  0.2860 -1.5097
 7109TIP3    H245523   3.726   5.101  10.781 -0.6769  1.5244  0.4163
 7110TIP3   OH245524   4.402   6.227   8.749 -0.5424 -0.1243 -0.4905
 7110TIP3    H145525   4.493   6.201   8.739  0.3033  1.0709  2.7312
 7110TIP3    H245526   4.352   6.146   8.738  1.0891 -1.1960 -0.2868
 7111TIP3   OH245527   1.900   2.953  11.845 -0.7974 -0.4947  0.4802
 7111TIP3    H145528   1.828   2.892  11.829 -1.9553  0.8224  0.4479
 7111TIP3    H245529   1.961   2.904  11.900 -1.4684 -1.8180  0.0923
 7112TIP3   OH245530   2.618   3.158   9.036 -0.5451  0.1520 -0.7904
 7112TIP3    H145531   2.606   3.252   9.030  0.1039  0.1739 -2.2590
 7112TIP3    H245532   2.548   3.121   8.982 -2.6768 -0.4117  2.1244
 7113TIP3   OH245533   3.458   0.098  11.267 -0.4954 -1.7226 -0.2412
 7113TIP3    H145534   3.508   0.058  11.196 -1.6761  0.3983 -2.4259
 7113TIP3    H245535   3.380   0.045  11.275  0.0227 -2.4518  0.0833
 7114TIP3   OH245536   1.864   2.878  12.787 -0.4222 -0.6853  0.5252
 7114TIP3    H145537   1.860   2.974  12.788  0.0519 -0.6578  0.1078
 7114TIP3    H245538   1.773   2.850  12.786 -0.5613 -0.2258 -0.8360
 7115TIP3   OH245539   2.270   2.394  12.507 -0.5030 -0.3012 -0.1559
 7115TIP3    H145540   2.241   2.358  12.591 -0.1794  0.2181  0.1803
 7115TIP3    H245541   2.224   2.477  12.500 -0.5465 -0.3562 -0.5046
 7116TIP3   OH245542   6.546   1.354  11.983  0.2557  0.5431 -0.0832
 7116TIP3    H145543   6.506   1.418  11.924 -0.0330 -0.2630 -0.7884
 7116TIP3    H245544   6.473   1.314  12.030  0.3046 -0.1531 -0.5736
 7117TIP3   OH245545   6.366   0.785   8.926 -0.0458  0.1025  0.1428
 7117TIP3    H145546   6.346   0.694   8.903  0.7333 -0.2536  0.8007
 7117TIP3    H245547   6.453   0.800   8.889  0.1807  0.3060  0.7434
 7118TIP3   OH245548   1.192   2.704   9.775 -0.0804  0.1942 -0.0366
 7118TIP3    H145549   1.182   2.721   9.869 -2.2639 -0.8318 -0.0178
 7118TIP3    H245550   1.103   2.713   9.740  0.6991  0.6070 -2.0296
 7119TIP3   OH245551   6.491   6.010  10.680 -0.0117  0.5213  0.6851
 7119TIP3    H145552   6.466   6.022  10.588  2.4618  0.5664 -0.0547
 7119TIP3    H245553   6.472   6.095  10.720  1.4284  1.4550 -0.4813
 7120TIP3   OH245554   3.181   6.178   9.955 -0.1352 -0.7605  0.5366
 7120TIP3    H145555   3.225   6.138   9.880 -0.4217 -0.7280  0.3494
 7120TIP3    H245556   3.252   6.219  10.005  0.0274 -0.5177  0.1187
 7121TIP3   OH245557   3.884   5.229   9.545 -0.6499  0.1168 -0.4910
 7121TIP3    H145558   3.945   5.171   9.589  0.5216  1.5358 -0.1788
 7121TIP3    H245559   3.797   5.192   9.564  0.0046 -1.0047  0.4219
 7122TIP3   OH245560   2.520   1.166  11.472  0.2341 -0.5245  0.3890
 7122TIP3    H145561   2.578   1.107  11.424  0.5316 -2.0434  2.4909
 7122TIP3    H245562   2.513   1.128  11.560 -0.9243  1.6803  1.3431
 7123TIP3   OH245563   3.137   3.056   9.488  0.0311 -0.0976  0.2293
 7123TIP3    H145564   3.215   3.022   9.532  0.3910 -3.2214 -2.4544
 7123TIP3    H245565   3.065   3.034   9.546  0.7633 -0.9321  0.8449
 7124TIP3   OH245566   1.080   2.731   9.470  0.3797 -0.1268  0.0497
 7124TIP3    H145567   1.170   2.706   9.448  0.2956  0.6956 -1.3559
 7124TIP3    H245568   1.064   2.811   9.420 -1.6650 -1.0973 -0.9882
 7125TIP3   OH245569   6.307   0.992   9.121  0.0276 -1.0870  0.4924
 7125TIP3    H145570   6.351   0.928   9.065  0.6318  0.0715 -0.3913
 7125TIP3    H245571   6.292   1.067   9.065  0.5839  0.0910  1.8628
 7126TIP3   OH245572   5.726   5.368   9.514 -0.1072 -0.0630  0.2149
 7126TIP3    H145573   5.817   5.354   9.541  0.3727 -0.3725 -1.4445
 7126TIP3    H245574   5.732   5.428   9.440 -1.3003  0.2535  0.3588
 7127TIP3   OH245575   6.130   1.418  11.795  0.1528  0.0940  0.4408
 7127TIP3    H145576   6.106   1.482  11.863  1.5527  0.5478  0.5381
 7127TIP3    H245577   6.151   1.339  11.844  4.3951  1.3198  0.9987
 7128TIP3   OH245578   3.007   1.236  10.945  0.3174 -0.3566  0.5660
 7128TIP3    H145579   2.998   1.219  11.039 -3.0374  0.5961  0.5461
 7128TIP3    H245580   2.959   1.164  10.903  1.0581 -0.3072 -0.4125
 7129TIP3   OH245581   4.908   5.001   9.635  0.1877  0.4947  0.6367
 7129TIP3    H145582   4.815   4.998   9.611  0.2569 -0.8911  0.4288
 7129TIP3    H245583   4.913   5.067   9.704 -0.8720  0.9328  0.3139
 7130TIP3   OH245584   4.254   1.657   9.455  0.3525 -0.1209 -0.0609
 7130TIP3    H145585   4.196   1.617   9.390 -0.3094 -0.1377  0.5376
 7130TIP3    H245586   4.278   1.742   9.416  0.3550 -0.3364 -0.5412
 7131TIP3   OH245587   6.046   0.256  11.284 -0.0417 -0.0007 -0.7700
 7131TIP3    H145588   5.973   0.210  11.242  0.2603 -1.3659  0.1244
 7131TIP3    H245589   6.007   0.302  11.358 -0.2588  0.7539 -1.3425
 7132TIP3   OH245590   1.780   6.382  11.393  0.8887 -0.0093 -0.0900
 7132TIP3    H145591   1.827   6.425  11.465 -0.4266  1.0424  0.1717
 7132TIP3    H245592   1.794   6.440  11.318  1.8452 -0.8503 -0.5826
 7133TIP3   OH245593   2.517   4.864  10.505  0.3331  0.3438  0.2185
 7133TIP3    H145594   2.600   4.898  10.538  0.1874  0.3887  0.5482
 7133TIP3    H245595   2.503   4.783  10.554 -0.5679  1.1248  1.3074
 7134TIP3   OH245596   0.131   3.193   9.825  0.2606 -0.2519  0.3521
 7134TIP3    H145597   0.070   3.177   9.752  1.4158 -1.4897 -0.3750
 7134TIP3    H245598   0.117   3.120   9.884  0.4018 -0.0500  0.6380
 7135TIP3   OH245599   3.872   4.696   9.269  0.2004 -0.6790 -0.0033
 7135TIP3    H145600   3.920   4.616   9.289  1.6036  0.1387  0.0231
 7135TIP3    H245601   3.928   4.743   9.206  0.4409  1.2486  1.5460
 7136TIP3   OH245602   3.246   3.265  12.104 -0.4199 -0.0166  0.3980
 7136TIP3    H145603   3.250   3.181  12.150 -0.1027 -0.7322 -0.8751
 7136TIP3    H245604   3.163   3.262  12.056  0.7961 -0.8127 -1.7881
 7137TIP3   OH245605   2.888   2.662  11.920  0.1110  0.3137  0.0477
 7137TIP3    H145606   2.857   2.688  11.833 -1.3594 -1.1338  0.0801
 7137TIP3    H245607   2.953   2.594  11.902  0.6215  0.7857  0.0743
 7138TIP3   OH245608   3.472   0.371   9.057  0.4407  0.2910 -0.0298
 7138TIP3    H145609   3.386   0.329   9.060  1.0322 -0.9233  0.7693
 7138TIP3    H245610   3.532   0.302   9.029  1.1686  1.1114 -0.5435
 7139TIP3   OH245611   1.805   1.529  11.028  0.5647  0.1900 -0.8414
 7139TIP3    H145612   1.738   1.580  10.983 -0.0391  0.5144  0.3763
 7139TIP3    H245613   1.822   1.577  11.109  0.9939 -0.8123 -0.3093
 7140TIP3   OH245614   6.504   4.697  10.936  0.0668  0.1228 -0.8736
 7140TIP3    H145615   6.597   4.693  10.958  0.0665 -0.8394 -1.0157
 7140TIP3    H245616   6.481   4.789  10.947  0.3851 -0.0366  1.8119
 7141TIP3   OH245617   1.086   2.357  12.012 -0.0797  0.8347  0.5109
 7141TIP3    H145618   1.110   2.326  11.924 -0.9504 -1.4693  1.0171
 7141TIP3    H245619   1.170   2.378  12.053  0.8215 -2.3985  0.5828
 7142TIP3   OH245620   0.182   5.349  10.146  0.5538  0.3573 -0.3596
 7142TIP3    H145621   0.157   5.332  10.238 -2.1021  0.4255 -0.9751
 7142TIP3    H245622   0.189   5.444  10.140 -4.2567  0.9181 -1.1577
 7143TIP3   OH245623   5.614   1.192  10.214  0.2405  0.0190  0.8406
 7143TIP3    H145624   5.557   1.225  10.283 -0.0769  0.7995  0.2164
 7143TIP3    H245625   5.627   1.267  10.155 -1.2744 -1.1867 -1.1407
 7144TIP3   OH245626   6.545   0.647  10.775 -0.1504 -0.7591  0.1044
 7144TIP3    H145627   6.461   0.639  10.731  0.9370 -1.1156 -2.0406
 7144TIP3    H245628   6.563   0.559  10.809 -0.0745 -1.0092 -0.5710
 7145TIP3   OH245629   1.287   0.773   8.927 -0.5673 -0.1136 -0.2924
 7145TIP3    H145630   1.293   0.679   8.910 -1.9409 -0.0869 -1.0613
 7145TIP3    H245631   1.368   0.795   8.973  0.2226 -1.4727 -1.0045
 7146TIP3   OH245632   1.624   2.347   8.787 -0.0345  0.0943 -0.5614
 7146TIP3    H145633   1.579   2.389   8.861 -0.1287 -0.2527 -0.4224
 7146TIP3    H245634   1.717   2.348   8.812  0.2052  1.8344 -1.3371
 7147TIP3   OH245635   1.550   2.695  12.145  0.6451 -0.0720 -0.1823
 7147TIP3    H145636   1.552   2.754  12.069 -0.1816 -0.9995 -0.9478
 7147TIP3    H245637   1.483   2.631  12.124  1.9887 -1.7205  0.3083
 7148TIP3   OH245638   1.391   6.290  11.757  0.1139 -0.4706  0.2367
 7148TIP3    H145639   1.387   6.363  11.695 -1.2802 -1.5402 -0.9956
 7148TIP3    H245640   1.304   6.288  11.797  1.1068  0.4824  2.6594
 7149TIP3   OH245641   4.247   6.218  11.909  0.7266 -1.1728  0.4556
 7149TIP3    H145642   4.319   6.234  11.970 -0.0901  0.0981  1.1263
 7149TIP3    H245643   4.279   6.251  11.825  1.2429 -1.4140  0.5557
 7150TIP3   OH245644   2.190   3.423  10.857 -0.6980  0.0716  0.1976
 7150TIP3    H145645   2.213   3.402  10.767  0.4152 -0.8851  0.6772
 7150TIP3    H245646   2.225   3.511  10.871 -2.6186  1.0786 -0.8653
 7151TIP3   OH245647   0.647   2.422   9.612  0.1936 -0.1979 -0.2569
 7151TIP3    H145648   0.590   2.498   9.597  2.1981  1.1683 -1.4305
 7151TIP3    H245649   0.703   2.418   9.534  0.2494 -2.8428 -0.1692
 7152TIP3   OH245650   0.505   5.805  10.002 -0.3876  0.7540  0.6242
 7152TIP3    H145651   0.429   5.810  10.059  0.4522 -0.5968  1.9149
 7152TIP3    H245652   0.468   5.805   9.913 -1.7454  2.1976  1.1347
 7153TIP3   OH245653   3.942   2.312   8.985  0.1050  0.0427  0.1869
 7153TIP3    H145654   3.872   2.307   8.921 -0.4631  0.4617  0.7636
 7153TIP3    H245655   3.966   2.221   9.002  0.4048 -0.0629 -0.7642
 7154TIP3   OH245656   0.679   2.507   9.856  0.1248  0.3573  0.1713
 7154TIP3    H145657   0.658   2.463   9.773  1.3754 -1.4556  0.7292
 7154TIP3    H245658   0.772   2.528   9.848  0.0872  0.7881  0.8509
 7155TIP3   OH245659   3.831   0.092  10.366 -0.5087  0.6926  0.3357
 7155TIP3    H145660   3.878   0.160  10.414 -1.2280  2.4639 -1.3494
 7155TIP3    H245661   3.741   0.099  10.397 -0.5528  0.3539  0.2892
 7156TIP3   OH245662   1.599   4.109  11.381  0.5233  0.1167  0.1393
 7156TIP3    H145663   1.692   4.130  11.386  0.0146  2.5976  0.3392
 7156TIP3    H245664   1.578   4.072  11.467  1.0312  1.0176  0.6730
 7157TIP3   OH245665   4.313   1.621  10.792  0.1849  0.1338  0.5190
 7157TIP3    H145666   4.341   1.532  10.811 -1.0859  0.0917  2.4844
 7157TIP3    H245667   4.379   1.654  10.730  1.2419 -1.8079  0.5249
 7158TIP3   OH245668   0.965   2.037   9.038  0.1066  0.3006 -0.3891
 7158TIP3    H145669   1.002   1.958   9.076  0.3497 -0.3776 -1.9317
 7158TIP3    H245670   1.040   2.081   8.998 -0.5663 -0.9519 -3.3231
 7159TIP3   OH245671   2.199   4.850   9.781 -0.2279 -0.1563  0.3614
 7159TIP3    H145672   2.107   4.867   9.800  0.2094  1.7988  0.9677
 7159TIP3    H245673   2.224   4.781   9.842 -0.1877  2.4455  3.6155
 7160TIP3   OH245674   1.639   3.690  10.254  0.6292 -0.5714 -0.0268
 7160TIP3    H145675   1.560   3.742  10.268  1.0342  0.2532 -0.6711
 7160TIP3    H245676   1.656   3.697  10.160  0.9123 -1.5693 -0.0542
 7161TIP3   OH245677   0.079   6.633   9.113  0.6185 -0.4504  0.1294
 7161TIP3    H145678   0.126   6.618   9.195  1.9166 -1.5602 -0.7558
 7161TIP3    H245679   0.137   6.596   9.046  0.2975  1.7005 -1.4500
 7162TIP3   OH245680   0.024   5.858   9.745 -0.9576  0.3410  0.5958
 7162TIP3    H145681  -0.033   5.931   9.719 -1.3876 -0.2632 -0.1898
 7162TIP3    H245682  -0.032   5.801   9.798 -2.3213 -2.1964 -3.1970
 7163TIP3   OH245683   0.464   3.465  11.434 -0.4307 -0.4870  0.4631
 7163TIP3    H145684   0.398   3.486  11.368  0.8433 -0.3613 -0.8334
 7163TIP3    H245685   0.458   3.536  11.497  0.6482  1.3676 -1.3885
 7164TIP3   OH245686   6.392   0.153   9.648 -0.6587  0.8700 -0.1433
 7164TIP3    H145687   6.430   0.207   9.717 -0.2056  0.4283 -0.0456
 7164TIP3    H245688   6.407   0.202   9.568 -1.0301  1.3012  0.0442
 7165TIP3   OH245689   1.470   6.342   9.918  0.2066  0.4596  0.1066
 7165TIP3    H145690   1.510   6.256   9.926 -1.1606 -0.2549 -0.3932
 7165TIP3    H245691   1.527   6.400   9.968 -0.1940 -1.1657  2.6100
 7166TIP3   OH245692   3.265   0.994   9.280 -0.0828 -0.4443 -1.2109
 7166TIP3    H145693   3.351   1.034   9.294  0.4727 -1.6120 -1.2050
 7166TIP3    H245694   3.250   0.942   9.358 -2.0678  1.8717  0.0923
 7167TIP3   OH245695   0.755   3.685  11.380  0.4957 -0.7483  0.5378
 7167TIP3    H145696   0.740   3.595  11.411 -0.5820 -0.1257  1.9092
 7167TIP3    H245697   0.781   3.733  11.458 -1.2846  0.6477  0.3417
 7168TIP3   OH245698   4.050   4.257  11.659 -0.1982 -0.0982  0.7859
 7168TIP3    H145699   3.960   4.229  11.646  0.0354 -0.0313 -1.2496
 7168TIP3    H245700   4.097   4.226  11.581  1.3266  0.7279  1.3222
 7169TIP3   OH245701   1.488   6.554  10.731 -0.1327 -0.0594  0.4900
 7169TIP3    H145702   1.580   6.570  10.749  0.3373 -1.0337 -0.9034
 7169TIP3    H245703   1.487   6.483  10.668 -1.8268  0.2531  0.0942
 7170TIP3   OH245704   5.608   4.167   9.074  0.9538 -0.0342  0.0446
 7170TIP3    H145705   5.536   4.145   9.134 -0.5631 -0.0245 -1.6904
 7170TIP3    H245706   5.658   4.086   9.067 -1.5014 -1.5398 -2.1062
 7171TIP3   OH245707   0.695   5.624   9.631  0.2987 -0.2058 -0.8552
 7171TIP3    H145708   0.620   5.615   9.690  0.6689  0.1583 -0.3134
 7171TIP3    H245709   0.661   5.604   9.544 -1.3066  3.4641 -1.2198
 7172TIP3   OH245710   2.010   0.734  10.821  0.4811  0.5134 -0.1981
 7172TIP3    H145711   1.946   0.798  10.788  0.7608  0.0263 -1.7853
 7172TIP3    H245712   1.975   0.649  10.794 -0.3215 -0.1687  2.6337
 7173TIP3   OH245713   4.455   1.054   8.745 -0.2613  0.2989  0.1452
 7173TIP3    H145714   4.538   1.072   8.789 -0.8163  0.5085  1.1479
 7173TIP3    H245715   4.400   1.130   8.766 -0.3412  0.7253 -1.4673
 7174TIP3   OH245716   5.500   1.775  12.740  0.3554  0.6440  0.1826
 7174TIP3    H145717   5.569   1.734  12.792  1.9300  2.4755 -0.3607
 7174TIP3    H245718   5.518   1.749  12.650 -1.7741 -1.6870  0.3186
 7175TIP3   OH245719   3.467   4.786  10.539 -0.7193  0.0972  0.2892
 7175TIP3    H145720   3.478   4.696  10.568 -1.9328 -0.5878 -1.2206
 7175TIP3    H245721   3.550   4.807  10.496  0.0330  0.1657  1.7059
 7176TIP3   OH245722   6.407   1.337   9.854 -0.1905 -0.3639 -0.5824
 7176TIP3    H145723   6.376   1.396   9.923 -2.7424 -1.5842 -0.5751
 7176TIP3    H245724   6.476   1.286   9.896 -0.6772 -0.0610  0.6285
 7177TIP3   OH245725   0.295   0.170  10.705  0.7332  0.0092  0.2696
 7177TIP3    H145726   0.219   0.228  10.696  1.2612  0.7066  0.1932
 7177TIP3    H245727   0.296   0.119  10.624  0.4420  0.1155  0.1969
 7178TIP3   OH245728   1.334   0.485  11.651  0.2212 -0.4146  0.4070
 7178TIP3    H145729   1.404   0.455  11.593  0.8729 -0.7440  1.3378
 7178TIP3    H245730   1.352   0.578  11.665 -1.0193  0.1582 -1.3848
 7179TIP3   OH245731   4.268   4.337  11.087 -0.1522  0.1003 -0.1134
 7179TIP3    H145732   4.301   4.307  11.002 -0.0502 -1.7209  0.5176
 7179TIP3    H245733   4.194   4.394  11.065 -0.8516 -1.2184 -1.4538
 7180TIP3   OH245734   3.124   6.209   8.915 -0.1503 -0.7594  0.0629
 7180TIP3    H145735   3.115   6.133   8.973  1.8086 -0.6503  0.6134
 7180TIP3    H245736   3.121   6.172   8.827 -3.0848 -0.9451  0.1444
 7181TIP3   OH245737   6.637   5.277  10.900  0.4784 -0.1384  0.0155
 7181TIP3    H145738   6.627   5.229  10.818 -0.9487  0.5546 -0.2536
 7181TIP3    H245739   6.730   5.300  10.903  0.3976  0.6669 -1.9140
 7182TIP3   OH245740   3.838   6.501  10.424 -0.3398 -0.0649  0.2995
 7182TIP3    H145741   3.835   6.534  10.335 -0.5619  1.0763  0.7179
 7182TIP3    H245742   3.778   6.558  10.473 -0.1812 -0.6417  1.1887
 7183TIP3   OH245743   6.580   4.153  12.086  0.3273 -0.2107 -0.4586
 7183TIP3    H145744   6.565   4.060  12.073 -1.0427 -0.2373  1.0109
 7183TIP3    H245745   6.647   4.176  12.022  0.1844 -2.0455 -1.3214
 7184TIP3   OH245746   5.338   3.993  10.396  0.6273 -0.2684  0.5475
 7184TIP3    H145747   5.419   4.022  10.354  0.1760 -1.2833 -1.0777
 7184TIP3    H245748   5.329   3.901  10.372 -0.8264 -0.2834  1.0202
 7185TIP3   OH245749   2.990   0.784   9.512  0.2508  0.4138 -0.1536
 7185TIP3    H145750   3.072   0.832   9.522 -0.7272  1.9258  1.2297
 7185TIP3    H245751   2.974   0.747   9.599  0.2556 -1.2468 -0.8348
 7186TIP3   OH245752   1.850   5.700  12.737 -0.5765 -0.5382  0.6945
 7186TIP3    H145753   1.891   5.640  12.799 -0.3166 -1.5269 -0.3991
 7186TIP3    H245754   1.799   5.644  12.679  0.1256  0.2264 -0.7104
 7187TIP3   OH245755   6.476   1.667   9.143  0.4308 -0.2322 -0.2915
 7187TIP3    H145756   6.392   1.666   9.095 -0.5557 -2.0895  1.3461
 7187TIP3    H245757   6.456   1.714   9.224  0.8627 -1.0342  0.2841
 7188TIP3   OH245758   1.665   4.753  10.783  0.2135  0.1309  0.0436
 7188TIP3    H145759   1.725   4.719  10.849 -0.7281 -1.4853  0.0945
 7188TIP3    H245760   1.578   4.735  10.817 -0.3264  1.6537 -0.4373
 7189TIP3   OH245761   0.347   3.819  10.160 -0.1498 -0.4367 -0.4404
 7189TIP3    H145762   0.271   3.874  10.179 -0.2270 -0.8914  0.6108
 7189TIP3    H245763   0.316   3.759  10.093 -0.6934 -0.5589 -0.0880
 7190TIP3   OH245764   5.545   2.703  10.555 -0.2517  0.3339  0.2257
 7190TIP3    H145765   5.519   2.629  10.610  0.8841 -0.8450 -0.7533
 7190TIP3    H245766   5.627   2.675  10.514 -1.1203  1.0765 -2.1994
 7191TIP3   OH245767   2.708   2.542   9.384  1.1306  0.5302 -0.1671
 7191TIP3    H145768   2.693   2.498   9.468 -0.6788 -0.3109 -0.8794
 7191TIP3    H245769   2.802   2.531   9.369  0.6433 -5.1320 -1.2552
 7192TIP3   OH245770   3.101   5.296   9.510  0.0562  0.2718 -0.5547
 7192TIP3    H145771   3.093   5.261   9.421  1.7716 -2.0616  0.1156
 7192TIP3    H245772   3.195   5.309   9.522 -0.1195  0.2268  1.0089
 7193TIP3   OH245773   3.546   0.349  11.364  0.0836 -0.4994 -0.0412
 7193TIP3    H145774   3.505   0.284  11.307 -1.6580 -0.2265  0.8304
 7193TIP3    H245775   3.541   0.309  11.452 -0.9853  0.7679  0.5005
 7194TIP3   OH245776   3.796   4.117  10.084  0.0285  0.3483 -0.4099
 7194TIP3    H145777   3.748   4.060  10.144  1.3681 -0.7090 -0.2823
 7194TIP3    H245778   3.735   4.188  10.064 -1.6288 -0.9870 -0.3747
 7195TIP3   OH245779   5.507   0.825  10.305  0.1949  0.4517 -0.5242
 7195TIP3    H145780   5.463   0.908  10.319  0.9351  0.9357 -1.0305
 7195TIP3    H245781   5.589   0.847  10.260  1.2709 -0.3616  0.9341
 7196TIP3   OH245782   0.628   3.820  12.259  0.0278  0.0143 -0.3392
 7196TIP3    H145783   0.600   3.766  12.185 -1.2249 -0.6647  0.6026
 7196TIP3    H245784   0.689   3.765  12.307  1.6441  0.8205 -1.3689
 7197TIP3   OH245785   3.906   3.735  11.306 -0.3328  0.7730 -0.1062
 7197TIP3    H145786   3.996   3.760  11.286  0.4172  0.4432  2.5514
 7197TIP3    H245787   3.888   3.661  11.247  0.7005  1.5730 -1.4710
 7198TIP3   OH245788   0.351   2.717  10.766 -0.1897  0.5431 -0.1299
 7198TIP3    H145789   0.438   2.696  10.798  0.9351  2.0854 -1.9256
 7198TIP3    H245790   0.364   2.792  10.707 -2.7806  1.0930 -0.1595
 7199TIP3   OH245791   5.339   5.854   8.869 -0.2657  0.1340 -0.5474
 7199TIP3    H145792   5.342   5.862   8.965 -0.8344  0.6938 -0.5681
 7199TIP3    H245793   5.320   5.943   8.838  0.3377  0.0354 -1.2072
 7200TIP3   OH245794   0.512   1.984  11.849 -0.2971 -0.3753 -0.1622
 7200TIP3    H145795   0.558   2.067  11.838 -0.3175 -0.4198 -0.6172
 7200TIP3    H245796   0.455   1.978  11.772 -0.4956 -0.6843  0.0042
 7201TIP3   OH245797   3.057   6.649  11.871 -0.5626 -0.0875 -0.9564
 7201TIP3    H145798   3.083   6.621  11.783  0.7765 -1.2849 -0.2199
 7201TIP3    H245799   3.137   6.641  11.923 -1.2306  1.0013  0.2875
 7202TIP3   OH245800   3.437   0.352   9.424  0.0790 -0.7490  0.5349
 7202TIP3    H145801   3.507   0.395   9.376  0.6691 -2.0779  0.1851
 7202TIP3    H245802   3.401   0.288   9.363 -1.4813 -0.0755  0.6948
 7203TIP3   OH245803   1.872   1.647  11.265 -0.0944 -0.3993 -0.3324
 7203TIP3    H145804   1.895   1.736  11.292 -0.8456 -0.2662 -0.1105
 7203TIP3    H245805   1.953   1.597  11.275  0.4409  0.3408 -0.8321
 7204TIP3   OH245806   5.298   1.667  10.431  0.3527  0.2539 -0.2080
 7204TIP3    H145807   5.230   1.599  10.435 -1.2744  1.7650 -0.9422
 7204TIP3    H245808   5.324   1.670  10.339  0.2974  0.7301 -0.2100
 7205TIP3   OH245809   2.049   4.238  10.764  0.0266 -0.1134 -0.1998
 7205TIP3    H145810   2.062   4.195  10.848 -2.8740  0.8244  0.8741
 7205TIP3    H245811   2.079   4.175  10.699  1.9151 -1.0422  1.4938
 7206TIP3   OH245812   0.655   2.594  12.132 -0.1842 -0.2684 -0.1049
 7206TIP3    H145813   0.663   2.572  12.225 -0.6979  1.3021  0.3388
 7206TIP3    H245814   0.731   2.650  12.114 -0.4253 -0.0574 -0.4808
 7207TIP3   OH245815   2.213   1.100  10.462 -0.2967 -0.3430  0.2872
 7207TIP3    H145816   2.252   1.025  10.507  1.0792 -0.4870 -1.0532
 7207TIP3    H245817   2.231   1.175  10.519  1.2615 -0.5501  0.1156
 7208TIP3   OH245818   4.973   2.362   9.216  0.3334 -0.0159  0.0038
 7208TIP3    H145819   5.044   2.426   9.212  2.3073 -2.1304 -0.9700
 7208TIP3    H245820   4.985   2.319   9.301 -0.9375  0.7979  0.6229
 7209TIP3   OH245821   6.224   1.745  10.826  0.3833  0.0502  0.7293
 7209TIP3    H145822   6.221   1.649  10.832 -0.3724  0.0158  0.0839
 7209TIP3    H245823   6.188   1.776  10.909  2.3528 -0.1741  1.7361
 7210TIP3   OH245824   0.707   2.521  10.283 -0.0965  0.5069  0.0349
 7210TIP3    H145825   0.678   2.485  10.198  0.1412  0.9720 -0.2452
 7210TIP3    H245826   0.802   2.530  10.274  0.0625 -0.3638  0.7070
 7211TIP3   OH245827   2.711   1.518  10.080  0.0031  0.1572 -0.6986
 7211TIP3    H145828   2.748   1.500  10.167 -3.5652 -1.0825  0.7395
 7211TIP3    H245829   2.681   1.433  10.048 -1.2247  0.9886 -1.8771
 7212TIP3   OH245830   0.024   1.442  11.183 -0.1512 -0.2163  0.0680
 7212TIP3    H145831  -0.036   1.395  11.126 -0.9300 -0.3762  0.9872
 7212TIP3    H245832   0.005   1.535  11.166  1.1187 -0.2089 -1.4642
 7213TIP3   OH245833   3.597   1.554  10.780 -0.5179 -0.0159  0.4659
 7213TIP3    H145834   3.682   1.596  10.773 -0.4477 -0.4354 -2.3369
 7213TIP3    H245835   3.540   1.621  10.819  0.9050  0.4995  1.7353
 7214TIP3   OH245836   4.559   3.748  10.949  0.2392 -0.0734  0.0574
 7214TIP3    H145837   4.620   3.705  10.889  2.5312  0.5424  1.8170
 7214TIP3    H245838   4.548   3.686  11.021 -0.5376  0.2013  0.1891
 7215TIP3   OH245839   1.303   0.265   9.162  0.0669  0.8007  0.2550
 7215TIP3    H145840   1.274   0.200   9.226 -0.8934  0.0345 -0.9183
 7215TIP3    H245841   1.337   0.213   9.090 -2.0006  1.4972 -1.3197
 7216TIP3   OH245842   1.466   6.318  11.400 -0.4804  0.2747  0.0085
 7216TIP3    H145843   1.493   6.325  11.309  1.6411 -2.9079  0.2454
 7216TIP3    H245844   1.548   6.327  11.450 -0.8747 -2.0847  1.2494
 7217TIP3   OH245845   1.757   1.733   9.097  0.0410  0.0016 -0.0476
 7217TIP3    H145846   1.838   1.701   9.055  0.1873 -0.2204  0.4003
 7217TIP3    H245847   1.727   1.660   9.150  0.4095  0.6229  1.0326
 7218TIP3   OH245848   2.600   0.543  11.072  0.0612  0.1516 -0.3760
 7218TIP3    H145849   2.649   0.580  10.998  0.5050 -0.6031 -0.4657
 7218TIP3    H245850   2.635   0.589  11.149  1.7090 -1.1206 -0.3068
 7219TIP3   OH245851   0.959   5.136  10.356  0.0238 -0.0041 -0.3348
 7219TIP3    H145852   0.910   5.174  10.429  1.3035 -0.4417  0.8096
 7219TIP3    H245853   0.983   5.212  10.302 -0.5726  0.3850 -0.0654
 7220TIP3   OH245854   6.556   0.022   9.297 -0.0595 -0.1043  0.7556
 7220TIP3    H145855   6.494  -0.052   9.292  0.9501 -0.9881  0.9384
 7220TIP3    H245856   6.583   0.037   9.206  0.3984 -0.5438  0.8177
 7221TIP3   OH245857   0.011   6.630  11.329 -0.5436 -0.2612 -0.0027
 7221TIP3    H145858  -0.029   6.635  11.416  0.2608 -0.0523  0.3669
 7221TIP3    H245859   0.008   6.537  11.307 -3.1093 -0.0389 -0.9098
 7222TIP3   OH245860   0.924   5.890  10.808 -0.2730  0.1032  0.0304
 7222TIP3    H145861   0.874   5.887  10.726  0.2112 -0.9503 -0.2452
 7222TIP3    H245862   0.894   5.813  10.857  0.9605 -0.4669 -0.0797
 7223TIP3   OH245863   5.166   1.235  11.607 -0.1943 -0.6285  0.0572
 7223TIP3    H145864   5.204   1.317  11.577 -0.4404 -0.3390  0.5236
 7223TIP3    H245865   5.232   1.199  11.667  0.3373 -1.2506 -0.8709
 7224TIP3   OH245866   1.629   1.290   9.066 -0.2026 -0.2907  1.1634
 7224TIP3    H145867   1.612   1.222   9.001 -0.4253 -0.5134  1.4529
 7224TIP3    H245868   1.719   1.317   9.049 -0.8835  1.0588 -0.5203
 7225TIP3   OH245869   0.156   1.229  10.981 -0.1836 -0.2856  0.3054
 7225TIP3    H145870   0.165   1.152  10.925 -1.5597  0.9301 -1.7129
 7225TIP3    H245871   0.207   1.207  11.060  0.0136 -2.9576 -0.4526
 7226TIP3   OH245872   1.664   1.097   9.550  0.0607  0.0068 -0.1108
 7226TIP3    H145873   1.687   1.093   9.643  1.5855 -0.4956 -0.4724
 7226TIP3    H245874   1.586   1.042   9.542 -0.2300  0.2592  0.9167
 7227TIP3   OH245875   5.456   4.160  11.423 -0.0019 -0.1930  0.2020
 7227TIP3    H145876   5.495   4.073  11.410  0.1357 -0.1521  0.3330
 7227TIP3    H245877   5.386   4.165  11.359  1.1493  0.3024 -1.0809
 7228TIP3   OH245878   3.765   5.444   8.918  0.1718 -0.4004  0.1654
 7228TIP3    H145879   3.838   5.506   8.916 -1.0649  1.1278  0.0987
 7228TIP3    H245880   3.764   5.405   8.831  1.0168 -0.5986  0.2316
 7229TIP3   OH245881   1.703   2.900  12.480  0.0537  0.1826 -0.7394
 7229TIP3    H145882   1.657   2.983  12.466  0.4116  0.6097  0.4169
 7229TIP3    H245883   1.645   2.850  12.538  0.5710  0.3240 -0.0750
 7230TIP3   OH245884   2.064   0.340   9.356 -0.3630  0.5449  0.0922
 7230TIP3    H145885   2.124   0.267   9.365 -0.9865 -0.0228 -0.2892
 7230TIP3    H245886   2.042   0.364   9.446  0.0893  0.4719  0.2229
 7231TIP3   OH245887   5.278   0.455   8.762  0.1125 -0.7681 -0.2135
 7231TIP3    H145888   5.323   0.381   8.802  1.0942 -0.7362 -1.1931
 7231TIP3    H245889   5.303   0.530   8.817  1.4976 -0.7121 -0.8585
 7232TIP3   OH245890   2.428   1.950  12.107  0.5045 -0.0857  0.0842
 7232TIP3    H145891   2.523   1.946  12.120  0.3322  1.9059  2.9807
 7232TIP3    H245892   2.417   2.009  12.032  1.5252 -0.1824 -0.1616
 7233TIP3   OH245893   0.349   4.670  11.909 -0.0164 -0.2634 -0.0463
 7233TIP3    H145894   0.361   4.596  11.850 -1.4507  0.1372 -0.8607
 7233TIP3    H245895   0.355   4.747  11.853  0.1956  0.1925  0.5920
 7234TIP3   OH245896   5.852   4.650  10.958  0.0580 -0.2151  0.6576
 7234TIP3    H145897   5.898   4.614  10.882 -1.1227  2.1078 -1.2752
 7234TIP3    H245898   5.837   4.574  11.014  2.0421 -1.8210 -0.8175
 7235TIP3   OH245899   0.975   6.192  11.312 -0.3384 -0.0164 -0.1443
 7235TIP3    H145900   1.036   6.136  11.264 -0.1580  0.9947 -1.1427
 7235TIP3    H245901   1.012   6.280  11.306  0.2536  0.0580  2.7691
 7236TIP3   OH245902   4.222   0.825   9.943  0.3622 -0.4792 -0.6312
 7236TIP3    H145903   4.189   0.778  10.019  0.3980 -2.6815 -1.8970
 7236TIP3    H245904   4.210   0.917   9.964 -1.4800 -1.0833  1.2003
 7237TIP3   OH245905   2.295   3.233   9.073  0.2056  0.7399 -0.3104
 7237TIP3    H145906   2.346   3.212   8.994 -0.5324 -0.1706 -0.5615
 7237TIP3    H245907   2.262   3.321   9.057  1.0301  1.0258 -0.4951
 7238TIP3   OH245908   6.047   3.061  11.365  0.5061 -0.0572  0.7997
 7238TIP3    H145909   5.964   3.108  11.356  0.5352 -0.0092  0.7826
 7238TIP3    H245910   6.024   2.980  11.410  0.2137 -0.7079 -0.4743
 7239TIP3   OH245911   6.499   0.247  11.400 -0.4423 -0.1460  0.2758
 7239TIP3    H145912   6.462   0.329  11.369  0.4351  0.6610  1.2648
 7239TIP3    H245913   6.423   0.193  11.422 -1.0874  1.3219  1.9117
 7240TIP3   OH245914   0.097   5.041  10.565  0.3397 -1.2095 -0.6856
 7240TIP3    H145915   0.160   4.974  10.538  0.5971 -1.1915 -0.1631
 7240TIP3    H245916   0.131   5.122  10.529 -0.3649 -1.4580 -1.9405
 7241TIP3   OH245917   2.272   6.153   9.768  0.1933 -0.0820  0.4645
 7241TIP3    H145918   2.216   6.225   9.798 -1.2523 -2.1586  3.2623
 7241TIP3    H245919   2.215   6.098   9.715  0.3840 -0.7596  0.9513
 7242TIP3   OH245920   5.578   2.294   8.888  0.3445  0.6617 -0.3943
 7242TIP3    H145921   5.518   2.226   8.917 -1.1432  1.2111 -1.9931
 7242TIP3    H245922   5.645   2.248   8.839  1.4306  0.0200  1.5688
 7243TIP3   OH245923   4.981   0.757  10.039 -0.5291 -0.1864 -0.0621
 7243TIP3    H145924   4.947   0.748   9.950 -0.9721  1.1531 -0.0503
 7243TIP3    H245925   5.069   0.791  10.028 -0.7127  0.3238  0.0088
 7244TIP3   OH245926   1.911   2.977   8.900 -0.3801  0.1801 -0.4590
 7244TIP3    H145927   1.895   2.894   8.857 -0.8848  0.5981 -1.0996
 7244TIP3    H245928   1.988   2.962   8.954 -0.2523 -0.5940 -0.8461
 7245TIP3   OH245929   5.521   1.130   9.227  0.2838  0.5618 -0.0720
 7245TIP3    H145930   5.520   1.148   9.321 -0.0132 -2.6590  0.6643
 7245TIP3    H245931   5.610   1.100   9.209 -0.2645 -1.0155 -0.2820
 7246TIP3   OH245932   6.314   3.517   9.913 -0.2907 -0.3279 -0.2098
 7246TIP3    H145933   6.265   3.443   9.948 -0.3375  0.6060  1.8483
 7246TIP3    H245934   6.336   3.491   9.823 -1.2356 -2.3511  0.0867
 7247TIP3   OH245935   0.701   2.936  10.569  0.3965 -0.3235  0.3155
 7247TIP3    H145936   0.766   2.910  10.634 -0.7588  0.3026  1.7663
 7247TIP3    H245937   0.740   3.013  10.526  1.0967 -0.6385  0.3721
 7248TIP3   OH245938   4.442   0.773   8.623  0.1323  0.6078 -0.0972
 7248TIP3    H145939   4.443   0.859   8.665 -1.8660  0.7982 -0.3491
 7248TIP3    H245940   4.375   0.780   8.555 -1.7295 -1.7430  1.3303
 7249TIP3   OH245941   5.519   0.553  10.435  0.9354 -0.4770 -0.3312
 7249TIP3    H145942   5.500   0.646  10.421 -1.1244 -0.8808 -0.5148
 7249TIP3    H245943   5.523   0.516  10.347  1.9271 -0.5607 -0.2661
 7250TIP3   OH245944   0.552   1.528  11.469 -0.4426 -0.1782 -0.2259
 7250TIP3    H145945   0.495   1.450  11.468 -0.7220 -0.0316 -2.7746
 7250TIP3    H245946   0.525   1.577  11.392  1.3494  1.2805  0.0311
 7251TIP3   OH245947   4.006   1.494  10.433 -0.0231 -0.2389  0.2576
 7251TIP3    H145948   3.955   1.548  10.373  0.8114  0.7214  0.3941
 7251TIP3    H245949   4.097   1.514  10.412  0.2833 -0.3544  1.4286
 7252TIP3   OH245950   1.521   0.635   9.744 -0.0834 -0.1794  0.1346
 7252TIP3    H145951   1.614   0.654   9.735 -0.1636 -0.5629 -1.9565
 7252TIP3    H245952   1.507   0.557   9.691 -1.6170 -0.0505  0.3046
 7253TIP3   OH245953   3.121   2.683   9.602 -0.0043 -0.4078 -0.0563
 7253TIP3    H145954   3.209   2.712   9.626 -0.4063 -0.2798  1.3275
 7253TIP3    H245955   3.124   2.587   9.610 -0.1828 -0.3542  0.6945
 7254TIP3   OH245956   4.139   1.793   9.675 -0.2431 -0.1886 -0.1024
 7254TIP3    H145957   4.189   1.858   9.725 -0.0165 -0.4485  0.0098
 7254TIP3    H245958   4.205   1.742   9.628 -0.5243  1.6525 -2.7173
 7255TIP3   OH245959   5.336   3.672  11.568  0.1522 -0.1022  0.4546
 7255TIP3    H145960   5.340   3.607  11.638 -0.1271  0.1470  0.7016
 7255TIP3    H245961   5.346   3.620  11.488  1.0155 -0.3241  0.6917
 7256TIP3   OH245962   3.039   2.761   9.332  0.1986 -0.2288  0.0367
 7256TIP3    H145963   3.036   2.785   9.424 -0.3882 -2.3221  0.6179
 7256TIP3    H245964   2.974   2.817   9.290 -1.8559 -1.4256  1.4774
 7257TIP3   OH245965   0.899   5.921  10.109 -0.0563  0.3871  0.2636
 7257TIP3    H145966   0.914   5.988  10.042 -2.7067  0.2981 -0.5363
 7257TIP3    H245967   0.980   5.870  10.110  0.2779  0.6757 -2.5472
 7258TIP3   OH245968   6.702   1.580  11.710  0.2328  0.2073  0.1188
 7258TIP3    H145969   6.767   1.600  11.642  0.3071  0.8160  0.3562
 7258TIP3    H245970   6.618   1.589  11.666  0.2599  1.2190  0.2463
 7259TIP3   OH245971   1.508   4.436   9.548  0.2274  0.7913  0.2708
 7259TIP3    H145972   1.452   4.385   9.607 -0.1373  1.4009  0.4670
 7259TIP3    H245973   1.551   4.501   9.606 -1.0398  2.1741 -0.2750
 7260TIP3   OH245974   3.587   2.386   8.992  0.1776  0.2114 -0.4565
 7260TIP3    H145975   3.532   2.329   8.939 -0.1840 -0.6348  0.7801
 7260TIP3    H245976   3.590   2.469   8.944  0.0454 -0.5832 -1.8801
 7261TIP3   OH245977   5.476   5.393  11.685  0.2531  0.0448  0.2075
 7261TIP3    H145978   5.567   5.367  11.700  0.8022  2.0064  0.5382
 7261TIP3    H245979   5.480   5.487  11.669 -1.7926  0.2970  0.8555
 7262TIP3   OH245980   5.922   5.019   9.566 -0.5724  0.4118  0.6350
 7262TIP3    H145981   5.934   4.968   9.485 -0.6691 -0.3227  1.0706
 7262TIP3    H245982   5.997   5.077   9.569 -0.5310  0.3972  0.0513
 7263TIP3   OH245983   6.449   6.704  10.815 -0.0166 -0.1269 -0.1229
 7263TIP3    H145984   6.426   6.716  10.723  0.2025 -0.1733 -0.1841
 7263TIP3    H245985   6.378   6.651  10.851 -0.4924  0.5102 -0.0861
 7264TIP3   OH245986   5.011   4.885   9.406  0.3412 -0.7882 -0.0153
 7264TIP3    H145987   4.979   4.920   9.489 -1.2583 -0.6445 -0.6585
 7264TIP3    H245988   5.043   4.798   9.427  1.0587 -0.3084  0.9561
 7265TIP3   OH245989   4.565   6.350  17.211  0.2482  0.2379  0.2421
 7265TIP3    H145990   4.482   6.315  17.178  0.0079 -0.1167  1.1791
 7265TIP3    H245991   4.595   6.410  17.143 -0.0341 -0.7400 -0.7636
 7266TIP3   OH245992   4.297   0.844  11.531 -0.2206 -0.0979  0.3876
 7266TIP3    H145993   4.278   0.827  11.439  0.0474  0.8727  0.1479
 7266TIP3    H245994   4.381   0.889  11.531  0.8635 -1.9975  1.2612
 7267TIP3   OH245995   2.458   3.182  10.729 -0.5983 -0.2901 -0.2533
 7267TIP3    H145996   2.460   3.258  10.786 -1.0530 -0.3030 -0.2148
 7267TIP3    H245997   2.451   3.107  10.789  0.8128 -0.4367 -0.2462
 7268TIP3   OH245998   2.060   3.792   9.109  0.5704 -0.0517  0.3538
 7268TIP3    H145999   2.151   3.819   9.123  0.4234  0.8566 -0.3460
 7268TIP3    H246000   2.009   3.872   9.120 -0.0806 -0.4316  0.1531
 7269TIP3   OH246001   5.688   5.338  11.420 -0.0803  0.5940  0.0275
 7269TIP3    H146002   5.707   5.294  11.503  1.9862  2.1160  0.4506
 7269TIP3    H246003   5.754   5.304  11.359  0.2800  1.5863 -0.1667
 7270TIP3   OH246004   0.828   0.367  11.175 -0.1220  0.4767 -0.2685
 7270TIP3    H146005   0.890   0.363  11.247 -1.2520 -1.5951  0.6703
 7270TIP3    H246006   0.855   0.297  11.116 -1.3879 -0.2972  0.0371
 7271TIP3   OH246007   0.986   5.125   9.133  0.7162  0.4083  0.5621
 7271TIP3    H146008   1.065   5.132   9.079 -0.5334 -1.3098 -1.6800
 7271TIP3    H246009   0.995   5.042   9.179  0.8146  0.8796  1.4267
 7272TIP3   OH246010   0.095   6.246   9.900  0.1102  0.2169 -0.0550
 7272TIP3    H146011   0.153   6.222   9.827 -0.0509  0.5727 -0.2984
 7272TIP3    H246012   0.021   6.186   9.892 -1.4244  2.1853 -2.0337
 7273TIP3   OH246013   3.095   5.063   9.851  0.1685  0.0288 -0.1449
 7273TIP3    H146014   3.053   5.102   9.774  2.5538  1.2761 -0.8976
 7273TIP3    H246015   3.039   5.090   9.924 -0.5536  1.3175 -1.1292
 7274TIP3   OH246016   0.917   3.667  10.721  0.3065  0.1658 -0.2848
 7274TIP3    H146017   0.912   3.581  10.762  0.3464  0.0846 -0.4482
 7274TIP3    H246018   0.883   3.728  10.787 -1.6305 -0.2040 -0.8868
 7275TIP3   OH246019   6.276   5.900   9.978 -0.1418 -0.0685  0.1186
 7275TIP3    H146020   6.297   5.992   9.991  1.1903  0.0120 -2.1175
 7275TIP3    H246021   6.260   5.866  10.067  2.3056  1.6070  1.3044
 7276TIP3   OH246022   1.447   2.273  11.961  0.1371 -0.1822 -0.1707
 7276TIP3    H146023   1.377   2.223  11.920  0.8618 -0.8529 -0.6412
 7276TIP3    H246024   1.521   2.212  11.963  1.4810  1.2626 -2.0419
 7277TIP3   OH246025   3.371   4.137  11.166 -0.0607 -0.6245  0.4916
 7277TIP3    H146026   3.370   4.231  11.152 -1.7332 -0.2717  2.5502
 7277TIP3    H246027   3.394   4.100  11.080  0.3071  1.5980 -0.4334
 7278TIP3   OH246028   4.253   3.629  10.612 -0.1066 -0.6434 -0.5591
 7278TIP3    H146029   4.309   3.586  10.676 -0.0525 -1.4717 -1.1407
 7278TIP3    H246030   4.310   3.693  10.569 -0.0739 -0.2764  0.0319
 7279TIP3   OH246031   5.183   3.565  10.002  0.5620 -0.2017 -0.0205
 7279TIP3    H146032   5.212   3.501   9.937 -0.1400  0.3278 -0.8680
 7279TIP3    H246033   5.226   3.537  10.083  1.3537 -0.9381 -0.6737
 7280TIP3   OH246034   5.034   4.802   8.859 -0.2435 -0.1656  0.0624
 7280TIP3    H146035   4.967   4.746   8.820  0.0045  0.2117 -0.9195
 7280TIP3    H246036   5.078   4.745   8.923 -1.4309 -0.4398  0.6539
 7281TIP3   OH246037   5.347   6.310  12.160 -0.2850  0.1102  0.4032
 7281TIP3    H146038   5.350   6.363  12.080  0.4959  3.2957  2.4087
 7281TIP3    H246039   5.438   6.289  12.178 -0.0601  2.4311  2.2694
 7282TIP3   OH246040   0.126   4.401  11.768  0.0405 -0.1313 -0.4107
 7282TIP3    H146041   0.172   4.347  11.833 -1.2732  1.2449  1.7945
 7282TIP3    H246042   0.196   4.440  11.716  1.1279 -1.5999 -0.1104
 7283TIP3   OH246043   1.897   5.271  11.315 -0.1533  0.4354 -0.0044
 7283TIP3    H146044   1.931   5.204  11.255 -0.7964 -0.0272  0.1336
 7283TIP3    H246045   1.802   5.265  11.306 -0.2400  0.7739  0.6182
 7284TIP3   OH246046   3.855   1.099  10.392 -0.2266 -0.1585  0.4063
 7284TIP3    H146047   3.845   1.164  10.462  1.1229 -0.0185  0.5084
 7284TIP3    H246048   3.771   1.054  10.389 -0.4123  0.0168  1.9467
 7285TIP3   OH246049   0.506   1.543   9.098  0.2513 -0.1515 -0.1784
 7285TIP3    H146050   0.425   1.556   9.048  0.4350  0.6629 -0.2733
 7285TIP3    H246051   0.477   1.543   9.189  0.1069 -0.1318 -0.2238
 7286TIP3   OH246052   2.161   0.222   9.971  0.0141 -0.1618 -0.5989
 7286TIP3    H146053   2.139   0.169  10.048  0.0830 -1.2853 -1.3239
 7286TIP3    H246054   2.231   0.280  10.001 -1.8509  1.4321  0.9378
 7287TIP3   OH246055   5.825   3.002  11.078  0.5076 -0.1548  0.0290
 7287TIP3    H146056   5.830   3.097  11.072 -2.2235  0.0252 -1.1536
 7287TIP3    H246057   5.893   2.970  11.019  0.9629  1.0681 -0.1386
 7288TIP3   OH246058   3.753   0.998  11.334 -0.0809 -0.0798 -0.1703
 7288TIP3    H146059   3.785   0.919  11.377  1.1652  0.0853 -0.7480
 7288TIP3    H246060   3.811   1.068  11.366 -1.6435  0.7709  0.9468
 7289TIP3   OH246061   4.652   3.097  11.403  0.0811 -0.2799 -0.4387
 7289TIP3    H146062   4.747   3.093  11.393  0.1893 -0.7759  0.5912
 7289TIP3    H246063   4.638   3.085  11.497 -0.9476  0.9138 -0.4261
 7290TIP3   OH246064   1.404   3.200  10.572  0.5935 -0.0645 -0.1001
 7290TIP3    H146065   1.358   3.282  10.556  0.0984 -0.6148 -1.6590
 7290TIP3    H246066   1.363   3.137  10.512  1.7310 -1.1631  0.2340
 7291TIP3   OH246067   6.452   4.976  10.231 -0.1579 -0.3077 -0.0874
 7291TIP3    H146068   6.534   4.929  10.218 -0.6252 -1.3174  0.5341
 7291TIP3    H246069   6.400   4.919  10.288 -1.0931  0.5492 -0.0564
 7292TIP3   OH246070   2.280   4.381   9.775  0.0865  0.3016 -1.0896
 7292TIP3    H146071   2.364   4.338   9.764  1.3178  2.1786  0.3814
 7292TIP3    H246072   2.228   4.353   9.700  1.8687 -1.2100 -1.8175
 7293TIP3   OH246073   5.440   5.122  11.624 -0.2871 -0.9698  0.2661
 7293TIP3    H146074   5.438   5.212  11.655 -0.3715 -0.3652 -1.3909
 7293TIP3    H246075   5.386   5.073  11.687 -1.8021  0.4862  0.1625
 7294TIP3   OH246076   2.950   2.726  10.760  0.6492 -0.1436  0.4167
 7294TIP3    H146077   2.959   2.764  10.848 -1.0337 -0.1742  0.6437
 7294TIP3    H246078   3.018   2.768  10.708  2.0920 -0.5909  1.8727
 7295TIP3   OH246079   3.418   3.980   9.843 -0.0967 -0.3090  0.0124
 7295TIP3    H146080   3.511   3.956   9.837  0.4720  1.6202  0.4455
 7295TIP3    H246081   3.414   4.038   9.919 -1.5644  0.1120 -0.3659
 7296TIP3   OH246082   5.183   1.393  11.936 -0.1090 -0.5413  0.4723
 7296TIP3    H146083   5.110   1.406  11.875  0.5464  0.0377 -0.2093
 7296TIP3    H246084   5.175   1.302  11.963 -1.7937 -0.1805  1.3619
 7297TIP3   OH246085   3.273   4.535  10.972  0.2318  0.0888  0.1641
 7297TIP3    H146086   3.216   4.536  11.049 -0.0153 -0.3117 -0.0106
 7297TIP3    H246087   3.324   4.455  10.980 -1.4153 -1.1557 -1.2420
 7298TIP3   OH246088   0.758   2.305  12.304 -0.3345  0.1204 -0.3023
 7298TIP3    H146089   0.671   2.343  12.292 -0.8364 -0.9733 -0.2635
 7298TIP3    H246090   0.741   2.217  12.337  0.8434  0.5857  1.7027
 7299TIP3   OH246091   5.358   1.082  10.099  0.4007 -0.2798 -0.5528
 7299TIP3    H146092   5.451   1.104  10.106  0.3337 -0.4375  1.4298
 7299TIP3    H246093   5.326   1.083  10.189 -2.0259  1.8396 -1.2968
 7300TIP3   OH246094   3.245   1.179   9.958 -0.0533 -0.4516 -0.2237
 7300TIP3    H146095   3.155   1.184   9.926 -0.5229  0.5894  1.1527
 7300TIP3    H246096   3.262   1.085   9.969 -0.3517 -0.7511 -2.0895
 7301TIP3   OH246097   6.675   3.080  12.594  0.1820 -0.0650 -0.0499
 7301TIP3    H146098   6.718   3.053  12.675 -0.2320  0.8534  0.4945
 7301TIP3    H246099   6.731   3.151  12.561  0.2673 -0.3355 -0.4940
 7302TIP3   OH246100   1.431   5.329   8.961 -0.2681 -0.2630 -0.1601
 7302TIP3    H146101   1.358   5.378   9.000 -0.7903 -0.1337 -1.2654
 7302TIP3    H246102   1.399   5.239   8.955  0.3010 -0.5524  0.8926
 7303TIP3   OH246103   5.714   4.752   9.478 -0.3011  0.3877 -0.3907
 7303TIP3    H146104   5.732   4.739   9.571 -2.2604 -0.9805 -0.1426
 7303TIP3    H246105   5.800   4.749   9.437  0.6235  1.0895  1.3629
 7304TIP3   OH246106   2.692   4.601  11.895 -0.0634 -0.1575 -0.6255
 7304TIP3    H146107   2.713   4.582  11.986  0.5661  0.2138 -0.6851
 7304TIP3    H246108   2.600   4.576  11.885 -0.6224  1.2737  0.5323
 7305TIP3   OH246109   1.545   2.107  10.089 -0.5820 -0.4602  0.3044
 7305TIP3    H146110   1.639   2.111  10.106 -0.8005  0.0666  1.5560
 7305TIP3    H246111   1.533   2.029  10.034  0.5627 -0.6174  0.2584
 7306TIP3   OH246112   6.187   3.250  12.366 -0.5148  0.2652 -0.0626
 7306TIP3    H146113   6.241   3.229  12.441  1.0618  0.2417 -1.1585
 7306TIP3    H246114   6.161   3.341  12.379 -0.9136  0.0313  0.8707
 7307TIP3   OH246115   1.775   3.125  11.135 -0.1912 -0.0995  0.5244
 7307TIP3    H146116   1.841   3.064  11.103 -0.8309 -0.2000 -0.7046
 7307TIP3    H246117   1.819   3.176  11.202  1.1658 -0.0912 -0.3252
 7308TIP3   OH246118   0.051   6.106   9.151 -0.1115  0.2266  0.1786
 7308TIP3    H146119   0.004   6.072   9.074  0.5260 -0.0639 -0.0854
 7308TIP3    H246120   0.037   6.039   9.219  0.1471  0.0057  0.0169
 7309TIP3   OH246121   1.108   4.636  11.469 -0.2106 -0.1313  0.1067
 7309TIP3    H146122   1.117   4.730  11.480 -0.0040 -0.0869 -0.3791
 7309TIP3    H246123   1.196   4.607  11.444 -0.6883 -0.1530 -1.7059
 7310TIP3   OH246124   1.663   3.071   9.764  0.0075  0.1391 -0.2443
 7310TIP3    H146125   1.583   3.021   9.782 -0.5991  1.5796  1.2857
 7310TIP3    H246126   1.696   3.034   9.682 -0.9537 -2.0482  0.2906
 7311TIP3   OH246127   6.005   1.774  12.205 -0.9647  0.4691 -0.0065
 7311TIP3    H146128   6.079   1.814  12.251 -1.8004  1.6275  0.3782
 7311TIP3    H246129   5.942   1.753  12.274 -1.1978 -0.0849 -0.3778
 7312TIP3   OH246130   2.517   5.111  12.018  0.5693  0.8472 -0.1184
 7312TIP3    H146131   2.513   5.192  12.068  1.4538  0.7644  0.1089
 7312TIP3    H246132   2.608   5.082  12.027  0.1607 -0.3921  0.1603
 7313TIP3   OH246133   1.749   0.263  11.737  0.1266  0.6258 -0.3005
 7313TIP3    H146134   1.802   0.246  11.815 -0.0494  1.1585 -0.0654
 7313TIP3    H246135   1.813   0.282  11.668  0.2570  0.7622 -0.1404
 7314TIP3   OH246136   5.563   4.287   9.377 -0.1218 -0.0278 -0.3933
 7314TIP3    H146137   5.634   4.319   9.431  0.2140 -2.6006  0.8154
 7314TIP3    H246138   5.484   4.322   9.417  0.3414  1.9561 -1.1119
 7315TIP3   OH246139   6.420   3.933  10.167 -0.2480  0.1891 -0.3294
 7315TIP3    H146140   6.450   3.992  10.236  1.6985  0.6663 -1.5207
 7315TIP3    H246141   6.354   3.984  10.119 -1.5901 -0.1350  1.0754
 7316TIP3   OH246142   2.288   2.185  11.054  0.1313 -0.0919 -0.2619
 7316TIP3    H146143   2.295   2.099  11.095 -2.1633  0.5041  1.6243
 7316TIP3    H246144   2.359   2.236  11.092  0.9902 -0.8842 -0.7601
 7317TIP3   OH246145   6.571   4.470   9.253 -0.0371  0.3277 -0.0364
 7317TIP3    H146146   6.557   4.448   9.161  2.0546  1.2631 -0.6471
 7317TIP3    H246147   6.666   4.473   9.262 -0.1795 -0.5315  2.3794
 7318TIP3   OH246148   5.671   3.104   8.780 -0.4135 -0.4516  0.5129
 7318TIP3    H146149   5.600   3.040   8.787  0.1013 -0.8284  3.4687
 7318TIP3    H246150   5.632   3.187   8.808 -0.6554  0.2563 -1.7531
 7319TIP3   OH246151   5.999   2.450   8.796 -0.3638 -0.3176  0.3396
 7319TIP3    H146152   5.947   2.524   8.827  0.5217 -0.2978  1.8723
 7319TIP3    H246153   6.083   2.488   8.773 -0.6957 -0.4927 -1.2593
 7320TIP3   OH246154   2.141   0.629  10.523 -0.5222 -0.1763 -0.3202
 7320TIP3    H146155   2.205   0.666  10.583 -1.2014  2.2134 -0.9459
 7320TIP3    H246156   2.085   0.574  10.578  1.1342 -1.1073  0.4874
 7321TIP3   OH246157   3.997   0.892   9.670 -0.0698  0.2633  0.6200
 7321TIP3    H146158   4.088   0.883   9.698 -0.5501 -2.2403  1.5685
 7321TIP3    H246159   3.948   0.910   9.750 -0.4937  1.3395  0.1479
 7322TIP3   OH246160   3.624   4.787   9.165  0.0847 -0.6520  0.2930
 7322TIP3    H146161   3.576   4.797   9.247  0.2604  0.5629  0.2695
 7322TIP3    H246162   3.712   4.759   9.191  0.2469  0.0753  0.5599
 7323TIP3   OH246163   0.925   3.263  12.230 -0.4492  0.1938 -0.4498
 7323TIP3    H146164   0.970   3.347  12.235  0.4002 -0.2746 -0.0022
 7323TIP3    H246165   0.870   3.260  12.309 -0.1493  0.1495 -0.2410
 7324TIP3   OH246166   4.734   4.144  10.317 -0.0362  0.7666  0.1638
 7324TIP3    H146167   4.763   4.110  10.233  0.2391  0.3947  0.4051
 7324TIP3    H246168   4.776   4.088  10.382  0.7855  1.8414  0.5887
 7325TIP3   OH246169   0.070   4.683  12.007  0.4553 -0.8417  0.2337
 7325TIP3    H146170   0.163   4.688  11.981  0.2707 -1.9504 -0.7241
 7325TIP3    H246171   0.067   4.727  12.091  1.4434  1.3031 -0.7590
 7326TIP3   OH246172   0.120   2.172  10.167 -0.2782  0.1411  0.3438
 7326TIP3    H146173   0.026   2.162  10.152 -0.9964  1.7312  3.0968
 7326TIP3    H246174   0.142   2.255  10.124  0.1674 -0.7056 -1.1585
 7327TIP3   OH246175   1.830   2.697  12.159  0.6811  0.6605 -0.7003
 7327TIP3    H146176   1.735   2.692  12.170  0.7840  0.3376  0.1241
 7327TIP3    H246177   1.846   2.664  12.070  0.0297  0.6796 -0.8287
 7328TIP3   OH246178   4.217   3.324  10.641 -0.4861  0.2737  0.1125
 7328TIP3    H146179   4.203   3.378  10.719 -0.2834  0.6068 -0.0763
 7328TIP3    H246180   4.285   3.262  10.667  1.1933  1.7872 -0.4430
 7329TIP3   OH246181   5.183   0.034   9.990  0.2040  0.9618 -0.2133
 7329TIP3    H146182   5.242   0.105  10.013  0.6267  0.9641 -1.2905
 7329TIP3    H246183   5.156   0.052   9.901  1.5142 -1.0056 -1.0820
 7330TIP3   OH246184   5.115   1.454  10.452 -0.3882 -0.2433  0.1395
 7330TIP3    H146185   5.064   1.468  10.372 -0.8315  2.2312  0.7790
 7330TIP3    H246186   5.101   1.361  10.473 -1.1060 -0.6925 -2.0472
 7331TIP3   OH246187   0.650   0.974   9.369 -0.0423  0.7421  0.6345
 7331TIP3    H146188   0.721   0.912   9.382 -0.3778 -0.1710 -1.4328
 7331TIP3    H246189   0.675   1.023   9.290 -3.1190 -1.9898 -2.3886
 7332TIP3   OH246190   2.049   2.425  10.287 -0.3900 -0.4554  0.2240
 7332TIP3    H146191   2.098   2.347  10.264 -0.9585 -1.5178  2.3376
 7332TIP3    H246192   2.030   2.468  10.204  1.7342 -1.4414 -0.8370
 7333TIP3   OH246193   0.734   5.808   9.177  0.0045  0.0356  0.1423
 7333TIP3    H146194   0.816   5.763   9.198 -0.6929 -0.2403  2.5562
 7333TIP3    H246195   0.703   5.842   9.261 -2.5990 -0.2848 -0.5993
 7334TIP3   OH246196   4.523   4.916  10.869  0.1667  0.0895 -0.1131
 7334TIP3    H146197   4.496   4.843  10.813 -1.6904 -0.3746  1.2700
 7334TIP3    H246198   4.470   4.990  10.838 -0.3735 -0.0055  0.5349
 7335TIP3   OH246199   5.189   5.979  10.306  0.0862 -0.0725 -0.1900
 7335TIP3    H146200   5.193   5.912  10.237  2.2509 -1.0990  0.8197
 7335TIP3    H246201   5.274   5.972  10.351 -0.8026  1.3233  1.8651
 7336TIP3   OH246202   0.945   5.756  11.767 -0.2016 -0.1137 -0.3347
 7336TIP3    H146203   1.035   5.734  11.791  0.0200  0.0359 -0.9922
 7336TIP3    H246204   0.916   5.817  11.835  1.2308  2.1915 -1.6659
 7337TIP3   OH246205   2.222   6.350   9.182 -0.2366  0.3711  0.1450
 7337TIP3    H146206   2.181   6.368   9.267  0.7099 -0.4950  0.8005
 7337TIP3    H246207   2.282   6.423   9.168 -0.0627  0.2815  0.4319
 7338TIP3   OH246208   4.372   6.463   9.244 -0.6229  0.4792  0.3974
 7338TIP3    H146209   4.429   6.467   9.321 -0.8351  3.1312  0.5192
 7338TIP3    H246210   4.431   6.439   9.172  0.0573  0.3012  0.9988
 7339TIP3   OH246211   1.956   5.602  10.433  0.5186  0.3822  0.1504
 7339TIP3    H146212   1.990   5.516  10.412  2.2164  1.2761 -0.9879
 7339TIP3    H246213   1.946   5.601  10.528  0.6125 -1.0172  0.1677
 7340TIP3   OH246214   4.770   1.582   9.913  0.0615 -0.3492 -0.1591
 7340TIP3    H146215   4.708   1.561   9.982 -0.0223 -0.7055 -0.3397
 7340TIP3    H246216   4.821   1.656   9.947 -1.0301  0.5250 -0.3550
 7341TIP3   OH246217   0.958   5.672   9.255 -0.1397 -0.6970 -0.1329
 7341TIP3    H146218   1.052   5.660   9.269 -0.1070  0.7791  1.1559
 7341TIP3    H246219   0.917   5.603   9.307  0.2034 -0.9420 -0.1860
 7342TIP3   OH246220   6.435   3.298  10.585  0.4419  0.0767  0.4129
 7342TIP3    H146221   6.383   3.347  10.521  1.8332  0.5202 -0.4036
 7342TIP3    H246222   6.390   3.313  10.668 -0.8299  0.3065 -0.2853
 7343TIP3   OH246223   1.402   3.377  11.739  0.6131  0.1445  0.3763
 7343TIP3    H146224   1.491   3.353  11.714  0.5707  1.5392 -1.2793
 7343TIP3    H246225   1.412   3.460  11.785  0.0443  1.3782 -1.6122
 7344TIP3   OH246226   3.535   1.041   9.324  0.0318 -0.2127  0.5910
 7344TIP3    H146227   3.552   0.998   9.241  2.6999  2.6162 -0.4984
 7344TIP3    H246228   3.540   0.971   9.389 -0.9349 -2.2967 -1.4389
 7345TIP3   OH246229   1.255   1.817   8.658  0.2008 -0.4555 -0.5874
 7345TIP3    H146230   1.311   1.740   8.648  0.2129 -0.5425  0.0872
 7345TIP3    H246231   1.269   1.845   8.748 -0.0532  0.1468 -0.7282
 7346TIP3   OH246232   3.379   1.433   9.157  0.6473  0.0401  0.7674
 7346TIP3    H146233   3.334   1.516   9.172 -0.2414 -0.3406  0.3052
 7346TIP3    H246234   3.309   1.367   9.160  0.8186 -0.3854 -1.8738
 7347TIP3   OH246235   2.801   4.316  11.365  0.6552  0.1881 -0.6926
 7347TIP3    H146236   2.822   4.225  11.386  0.0934 -0.2814 -2.0319
 7347TIP3    H246237   2.868   4.367  11.411  1.9182 -0.9854 -1.1523
 7348TIP3   OH246238   6.024   2.274  11.431 -0.0340  0.1429 -0.0667
 7348TIP3    H146239   6.093   2.233  11.379 -0.4936 -0.2381 -0.3883
 7348TIP3    H246240   5.993   2.203  11.488  0.3880  0.5253  0.6542
 7349TIP3   OH246241   1.760   5.660   8.874  0.0605  0.3257 -0.0280
 7349TIP3    H146242   1.806   5.588   8.830  0.1929  0.1472  0.3944
 7349TIP3    H246243   1.702   5.616   8.936  1.7899  0.5763  1.9041
 7350TIP3   OH246244   1.477   1.885  11.240 -0.1239  0.0394  0.6469
 7350TIP3    H146245   1.401   1.827  11.247 -0.4683  0.1949 -1.3662
 7350TIP3    H246246   1.498   1.908  11.331 -0.4755 -2.5542  1.4525
 7351TIP3   OH246247   2.519   4.346  11.452  0.2618 -0.0422  0.1612
 7351TIP3    H146248   2.597   4.326  11.504 -0.0863  0.7187  0.9942
 7351TIP3    H246249   2.484   4.426  11.491 -0.8875 -0.3207 -0.2694
 7352TIP3   OH246250   3.753   0.786  11.514  0.7216 -0.1340 -0.1752
 7352TIP3    H146251   3.798   0.706  11.486 -0.6731 -1.2442  0.6313
 7352TIP3    H246252   3.788   0.804  11.601  1.5680  0.5911 -0.6420
 7353TIP3   OH246253   5.465   6.088  10.966 -0.0470 -0.3296 -0.1312
 7353TIP3    H146254   5.404   6.121  11.032  0.1665  1.5101 -0.7816
 7353TIP3    H246255   5.551   6.090  11.009 -0.1256 -0.6973  0.0461
 7354TIP3   OH246256   6.064   3.965   9.530 -0.2733 -0.1293  0.0225
 7354TIP3    H146257   6.103   3.969   9.443 -0.4708 -0.8694 -0.0998
 7354TIP3    H246258   6.059   4.057   9.558  0.0312  0.0899 -0.6320
 7355TIP3   OH246259   5.829   3.552   8.890 -0.3067  0.2260  0.3907
 7355TIP3    H146260   5.823   3.478   8.951  0.7584 -0.4167 -0.2392
 7355TIP3    H246261   5.870   3.622   8.941  1.9632 -0.7746  0.0921
 7356TIP3   OH246262   4.303   4.415  10.709 -0.0547 -0.4154 -0.5168
 7356TIP3    H146263   4.230   4.369  10.749  0.1586 -1.2427 -1.0375
 7356TIP3    H246264   4.360   4.439  10.782  0.6977 -2.5462 -0.3481
 7357TIP3   OH246265   1.075   5.604  11.413  0.9489  0.2169  0.0340
 7357TIP3    H146266   1.104   5.695  11.414  2.1891 -0.1327 -1.2029
 7357TIP3    H246267   1.023   5.595  11.493  1.2584  1.8498  0.4650
 7358TIP3   OH246268   4.706   4.955  11.323  0.2838 -0.2610 -0.4768
 7358TIP3    H146269   4.624   4.958  11.372  0.1675  0.5117 -0.7053
 7358TIP3    H246270   4.763   5.018  11.368  0.2497  0.2936 -1.2042
 7359TIP3   OH246271   3.153   3.341   9.564 -0.1348  0.1342  0.4414
 7359TIP3    H146272   3.146   3.251   9.535 -0.8140  0.3448 -0.0724
 7359TIP3    H246273   3.156   3.393   9.484  0.8635  0.5416  0.7162
 7360TIP3   OH246274   5.039   4.289   9.557  0.0636 -0.3716 -0.2313
 7360TIP3    H146275   4.961   4.238   9.533 -1.3783  1.8233 -0.5184
 7360TIP3    H246276   5.029   4.306   9.650 -0.5613  1.0378 -0.5265
 7361TIP3   OH246277   3.865   1.285  10.579 -0.1517  0.1040 -0.1608
 7361TIP3    H146278   3.931   1.304  10.646  0.4164 -0.3022 -0.5835
 7361TIP3    H246279   3.877   1.354  10.513 -0.9519  0.7115  0.3198
 7362TIP3   OH246280   3.474   0.850   8.859 -0.2174  0.3358 -0.4197
 7362TIP3    H146281   3.421   0.923   8.892 -1.0009 -0.3813 -0.0659
 7362TIP3    H246282   3.466   0.856   8.764  1.9766  2.3597 -0.5989
 7363TIP3   OH246283   3.337   5.897   8.984  0.3092  1.0117 -0.7586
 7363TIP3    H146284   3.384   5.834   9.038  0.4257  1.7600  0.0466
 7363TIP3    H246285   3.396   5.917   8.912  0.7905  1.1436 -0.3320
 7364TIP3   OH246286   6.371   2.010  11.114  0.5748  0.1244  0.2300
 7364TIP3    H146287   6.424   1.997  11.035 -0.1391  1.0129 -0.4225
 7364TIP3    H246288   6.285   1.974  11.090  0.4271  0.1686  0.6956
 7365TIP3   OH246289   6.592   3.251  10.203  0.1604  0.1206  0.3982
 7365TIP3    H146290   6.535   3.324  10.179 -1.3793 -1.1910 -0.2082
 7365TIP3    H246291   6.644   3.284  10.276 -0.2091  1.9252 -0.1026
 7366TIP3   OH246292   5.097   4.607   9.072  0.2010  0.2169 -0.1883
 7366TIP3    H146293   5.098   4.537   9.137  2.3963 -0.6410 -1.0326
 7366TIP3    H246294   5.131   4.684   9.118 -1.0664  0.4306  0.4224
 7367TIP3   OH246295   4.901   2.710   9.273  0.0020 -0.3852 -0.1309
 7367TIP3    H146296   4.978   2.714   9.217 -0.2862  0.8006 -0.4846
 7367TIP3    H246297   4.913   2.782   9.335 -1.0334  0.1418 -0.5110
 7368TIP3   OH246298   0.122   1.045  11.317 -0.0634  0.7129  0.5635
 7368TIP3    H146299   0.205   1.037  11.270 -0.2795  2.6834 -0.2595
 7368TIP3    H246300   0.055   1.027  11.251 -0.3207  0.9048  0.7669
 7369TIP3   OH246301   6.354   6.083  12.494 -0.0534  0.1932  0.4804
 7369TIP3    H146302   6.432   6.138  12.494 -0.2358  0.4659 -0.3691
 7369TIP3    H246303   6.286   6.138  12.455 -0.6647 -0.0602  1.1633
 7370TIP3   OH246304   3.730   2.265   9.672  0.8373 -0.6039  0.0048
 7370TIP3    H146305   3.756   2.281   9.763  1.6201  0.7937 -0.4244
 7370TIP3    H246306   3.636   2.285   9.670  0.9047 -0.2290  0.4255
 7371TIP3   OH246307   3.775   0.949   9.452 -0.2536 -0.1865 -0.3625
 7371TIP3    H146308   3.802   0.883   9.516 -2.1723 -0.5009  0.1724
 7371TIP3    H246309   3.738   0.899   9.379 -3.6824  0.1900  0.9309
 7372TIP3   OH246310   2.205   2.790  10.875  0.2059 -0.1543  0.0917
 7372TIP3    H146311   2.128   2.735  10.890 -1.6621  2.0818 -0.6204
 7372TIP3    H246312   2.239   2.808  10.963 -3.1084  2.7009  1.0019
 7373TIP3   OH246313   4.221   1.040  10.102  0.0210 -0.1790 -0.5077
 7373TIP3    H146314   4.208   1.044  10.196 -1.0069 -1.1648 -0.5855
 7373TIP3    H246315   4.184   1.122  10.069 -0.2650 -0.1512 -0.1215
 7374TIP3   OH246316   2.120   1.421  10.828  0.2989 -0.0974  0.0999
 7374TIP3    H146317   2.032   1.390  10.848  0.0432 -0.4653 -1.4740
 7374TIP3    H246318   2.157   1.446  10.913 -0.9920 -0.7722  0.8813
 7375TIP3   OH246319   4.642   1.267  11.716 -0.3481  0.3264  0.1882
 7375TIP3    H146320   4.593   1.266  11.798 -0.5821 -0.7854  0.0499
 7375TIP3    H246321   4.723   1.219  11.736  0.3040  1.4122  0.1864
 7376TIP3   OH246322   6.626   0.402  10.867  0.2877 -0.2654  0.1956
 7376TIP3    H146323   6.698   0.425  10.925 -0.3691 -0.6452  1.2049
 7376TIP3    H246324   6.654   0.321  10.824  1.3930  0.8024 -1.1675
 7377TIP3   OH246325   5.385   1.994   9.233 -0.1319 -0.1489 -0.2675
 7377TIP3    H146326   5.469   2.029   9.263  1.5896 -2.2639 -2.2734
 7377TIP3    H246327   5.320   2.049   9.277  2.2585  2.3776  0.4535
 7378TIP3   OH246328   3.977   3.540   9.369 -0.0427  0.0445 -0.0643
 7378TIP3    H146329   4.011   3.497   9.290  1.9005  3.0663 -1.0458
 7378TIP3    H246330   4.055   3.572   9.414 -1.2942  1.8514  0.9488
 7379TIP3   OH246331   4.572   2.275   9.329 -0.2608 -0.1695 -0.2899
 7379TIP3    H146332   4.505   2.336   9.299  0.1161  0.1485 -0.4938
 7379TIP3    H246333   4.628   2.328   9.386 -0.0277 -0.3693 -0.3328
 7380TIP3   OH246334   2.357   0.097  12.205 -0.0591 -0.5389  0.3495
 7380TIP3    H146335   2.268   0.063  12.219 -0.6700  1.7649  2.7832
 7380TIP3    H246336   2.347   0.192  12.208  2.5813 -0.2321  1.2679
 7381TIP3   OH246337   4.987   1.391  10.898  0.4057  0.2025  0.6046
 7381TIP3    H146338   4.940   1.464  10.936  0.4320  0.5626 -0.0323
 7381TIP3    H246339   4.920   1.323  10.885  0.5485 -0.2363  2.0194
 7382TIP3   OH246340   2.340   3.379  11.923 -0.3622  0.1435  0.6052
 7382TIP3    H146341   2.283   3.452  11.900  0.6231  0.3145 -1.4663
 7382TIP3    H246342   2.427   3.417  11.932  0.8895 -1.0446 -3.8738
 7383TIP3   OH246343   1.242   3.634  12.040  0.3769  0.1462 -0.4966
 7383TIP3    H146344   1.239   3.661  12.132 -1.3738  0.1232 -0.5091
 7383TIP3    H246345   1.236   3.539  12.043  1.9199  0.0230 -0.6088
 7384TIP3   OH246346   4.454   6.323   9.961 -0.0898  0.3136  0.0878
 7384TIP3    H146347   4.469   6.378   9.884 -0.9788  3.0489  1.7263
 7384TIP3    H246348   4.404   6.378  10.021 -0.9691 -2.3047  1.9572
 7385TIP3   OH246349   2.862   6.167   9.744 -0.0164  0.5219  0.0486
 7385TIP3    H146350   2.771   6.145   9.723  0.0072 -0.1835  0.6703
 7385TIP3    H246351   2.914   6.102   9.697  0.0552 -0.7666  1.8082
 7386TIP3   OH246352   0.865   4.557   9.189 -0.5850  0.2199  0.0201
 7386TIP3    H146353   0.849   4.463   9.178 -2.1556  0.4438  0.1822
 7386TIP3    H246354   0.818   4.580   9.269  0.9022  0.9094  0.7392
 7387TIP3   OH246355   3.084   5.083  10.289 -0.1020  0.4480  0.2133
 7387TIP3    H146356   3.017   5.131  10.239 -0.5108  0.2731  0.5920
 7387TIP3    H246357   3.115   5.016  10.228 -2.2875 -1.3370  0.9192
 7388TIP3   OH246358   5.615   0.794  11.792 -0.4357 -0.2572  0.7444
 7388TIP3    H146359   5.684   0.856  11.815  1.5845 -1.6306 -1.1815
 7388TIP3    H246360   5.624   0.723  11.856  0.8366 -1.0205 -0.2409
 7389TIP3   OH246361   2.813   4.588   9.069  0.1661 -0.1219  0.1283
 7389TIP3    H146362   2.789   4.496   9.081  0.7254 -0.4326 -1.0122
 7389TIP3    H246363   2.904   4.594   9.097 -0.1878  0.3387  1.2463
 7390TIP3   OH246364   4.262   0.640  11.725  0.2249  0.3913  0.0820
 7390TIP3    H146365   4.257   0.567  11.662  2.2869 -1.2004  1.6050
 7390TIP3    H246366   4.300   0.712  11.675 -1.2195  0.2577 -1.2847
 7391TIP3   OH246367   5.129   4.060   8.865 -0.4101  0.2452  0.5727
 7391TIP3    H146368   5.054   4.106   8.830  0.2007  1.7971  1.2136
 7391TIP3    H246369   5.196   4.066   8.796 -0.7005 -0.7314  0.1885
 7392TIP3   OH246370   2.794   0.597   9.423  0.1810  0.5720  0.4245
 7392TIP3    H146371   2.865   0.660   9.439 -0.4389  1.3589  0.1572
 7392TIP3    H246372   2.758   0.624   9.338 -0.6103  0.3521  0.6895
 7393TIP3   OH246373   1.377   2.060   9.838 -0.1388 -0.0579  0.2910
 7393TIP3    H146374   1.431   1.981   9.846 -1.3602 -1.0419 -0.6565
 7393TIP3    H246375   1.317   2.055   9.912 -0.3701 -0.1510  0.0987
 7394TIP3   OH246376   4.323   0.835   8.903  0.2490 -0.3764  0.3984
 7394TIP3    H146377   4.381   0.906   8.874  1.2956 -1.6069 -0.6151
 7394TIP3    H246378   4.381   0.762   8.923 -0.6190 -0.3754  3.5081
 7395TIP3   OH246379   4.877   6.272   8.945 -0.3739 -0.2225  0.5317
 7395TIP3    H146380   4.935   6.346   8.926  0.7549 -1.4609 -1.0641
 7395TIP3    H246381   4.929   6.195   8.923 -2.5167 -1.3933 -0.6105
 7396TIP3   OH246382   6.457   2.956  12.527  0.3344 -0.0560 -0.2064
 7396TIP3    H146383   6.525   3.020  12.552 -0.2575  0.2122  0.7725
 7396TIP3    H246384   6.422   2.989  12.444  0.8507  0.2378 -0.3113
 7397TIP3   OH246385   2.010   5.031  12.009 -0.1918 -0.6141 -0.2681
 7397TIP3    H146386   1.986   4.974  11.936  0.4037  0.6552 -1.5042
 7397TIP3    H246387   1.927   5.050  12.053 -0.9200  0.3344 -1.9502
 7398TIP3   OH246388   1.777   6.168  10.150 -0.0879  0.1364  0.5074
 7398TIP3    H146389   1.774   6.249  10.202 -0.6354 -0.8340  2.0683
 7398TIP3    H246390   1.761   6.099  10.214  1.2775 -1.2941 -0.6262
 7399TIP3   OH246391   5.433   1.527   9.601 -0.1325 -0.1472  0.2645
 7399TIP3    H146392   5.498   1.518   9.671  0.0123  0.4848  0.2188
 7399TIP3    H246393   5.385   1.607   9.623 -0.4782 -0.2687 -0.0430
 7400TIP3   OH246394   4.074   4.668  12.758 -0.5880  0.1400  0.2003
 7400TIP3    H146395   4.052   4.593  12.703 -0.6352 -0.2252  0.7128
 7400TIP3    H246396   3.991   4.694  12.798 -0.3962 -0.1838  0.8216
 7401TIP3   OH246397   1.449   3.630  11.864 -0.9972  0.0611 -0.2372
 7401TIP3    H146398   1.527   3.597  11.908 -2.0220 -1.6442  0.4090
 7401TIP3    H246399   1.383   3.634  11.933 -2.2185 -1.1873 -1.2735
 7402TIP3   OH246400   3.197   0.177  12.201  0.0057  0.7055  0.2831
 7402TIP3    H146401   3.207   0.269  12.224  0.1030  0.5049  1.0877
 7402TIP3    H246402   3.287   0.147  12.186 -0.0213  0.7262  0.0775
 7403TIP3   OH246403   5.856   0.353  10.481  0.2025 -0.2545  0.2535
 7403TIP3    H146404   5.857   0.439  10.439  4.2021 -1.0162 -1.7288
 7403TIP3    H246405   5.886   0.370  10.570  0.6522  0.4455 -0.0225
 7404TIP3   OH246406   6.579   1.485  10.303 -0.1834 -0.4430 -0.1939
 7404TIP3    H146407   6.658   1.467  10.354  0.8253  1.3972 -1.0227
 7404TIP3    H246408   6.522   1.534  10.363 -0.3837 -1.0941  0.1573
 7405TIP3   OH246409   4.302   5.938   8.776  0.1095  0.3795  0.1126
 7405TIP3    H146410   4.302   5.874   8.704 -0.7858 -0.8417  1.1455
 7405TIP3    H246411   4.226   5.914   8.829  1.1894  0.7395  1.9060
 7406TIP3   OH246412   0.116   4.252   9.055 -0.0115 -0.0940  0.2044
 7406TIP3    H146413   0.209   4.235   9.041 -0.0770 -2.1849  1.7781
 7406TIP3    H246414   0.110   4.347   9.063  1.7791  0.1774 -1.1106
 7407TIP3   OH246415   3.981   6.088  10.633  0.3228 -0.2190 -0.2959
 7407TIP3    H146416   4.032   6.089  10.553  2.5447  1.5884  1.0353
 7407TIP3    H246417   4.043   6.063  10.701 -0.8910  0.6674  1.2132
 7408TIP3   OH246418   3.499   2.626  11.689 -0.3253  0.2018 -0.5734
 7408TIP3    H146419   3.566   2.589  11.747 -0.3476  1.3401  0.1986
 7408TIP3    H246420   3.546   2.686  11.632 -0.7260  1.3715  0.2884
 7409TIP3   OH246421   1.935   6.068  11.319  0.4903  0.1500  0.8684
 7409TIP3    H146422   1.915   5.982  11.282  1.0122 -0.2878  1.5740
 7409TIP3    H246423   1.849   6.102  11.346  0.1416  0.3515 -0.4254
 7410TIP3   OH246424   0.361   5.381  11.862  0.4876  0.1902 -0.1960
 7410TIP3    H146425   0.439   5.384  11.917 -0.5220 -0.6748  1.3486
 7410TIP3    H246426   0.338   5.289  11.858  0.0099  0.3424 -1.3492
 7411TIP3   OH246427   3.496   1.567   9.427  0.4166  0.4531 -0.2603
 7411TIP3    H146428   3.543   1.595   9.505 -0.7122  0.0310  0.5996
 7411TIP3    H246429   3.474   1.475   9.444 -0.1190  0.4490 -0.9233
 7412TIP3   OH246430   0.284   2.099   9.734  0.1474 -0.1163  0.5668
 7412TIP3    H146431   0.278   2.023   9.676  1.6929 -0.7411  1.1525
 7412TIP3    H246432   0.201   2.101   9.781 -0.7548 -0.1629 -0.9448
 7413TIP3   OH246433   2.725   4.394  12.161 -0.7334 -0.0681  0.2322
 7413TIP3    H146434   2.705   4.317  12.107 -0.5117 -0.6008  0.8880
 7413TIP3    H246435   2.695   4.370  12.249  0.2563  0.1804  0.6566
 7414TIP3   OH246436   3.104   0.135  11.037  0.5913  0.3462  0.2727
 7414TIP3    H146437   3.143   0.192  11.104  0.4728  0.2433  0.4276
 7414TIP3    H246438   3.172   0.070  11.019  0.5938  0.3274  0.3490
 7415TIP3   OH246439   6.106   4.247   9.682 -0.1854  0.1463 -0.3112
 7415TIP3    H146440   6.117   4.294   9.600 -2.0527  0.7611 -0.2639
 7415TIP3    H246441   6.062   4.310   9.740  0.2932 -0.5738  0.8762
 7416TIP3   OH246442   6.036   3.810   8.616  0.2946 -0.4780 -0.4782
 7416TIP3    H146443   5.947   3.781   8.597  0.2475 -0.4280 -0.3308
 7416TIP3    H246444   6.048   3.888   8.562 -0.3009  0.4421  0.6837
 7417TIP3   OH246445   2.661   2.685  10.739  0.0123 -0.2434  0.3920
 7417TIP3    H146446   2.756   2.692  10.747  0.2235 -1.3866 -0.7668
 7417TIP3    H246447   2.633   2.638  10.817  0.6770 -1.7719 -0.2628
 7418TIP3   OH246448   1.643   6.127   9.920  0.2189 -0.2346  0.6063
 7418TIP3    H146449   1.665   6.145  10.012  0.6013 -0.4113  0.5530
 7418TIP3    H246450   1.724   6.093   9.883  0.6073  1.5513 -0.2738
 7419TIP3   OH246451   5.327   1.054  10.391  0.0932 -0.2816 -0.0271
 7419TIP3    H146452   5.265   1.047  10.463 -1.2019 -1.3865 -1.1671
 7419TIP3    H246453   5.378   1.132  10.409 -0.9131  0.0487  1.5221
 7420TIP3   OH246454   2.979   0.464  10.547 -0.3733 -0.0221  0.1790
 7420TIP3    H146455   3.035   0.534  10.514 -0.4841 -0.5757 -1.2534
 7420TIP3    H246456   3.014   0.384  10.507 -0.8417 -0.6643  1.0215
 7421TIP3   OH246457   3.996   4.422  11.055 -0.1568 -0.1885 -0.1812
 7421TIP3    H146458   3.917   4.464  11.021  0.5837  4.2613  2.6867
 7421TIP3    H246459   3.971   4.390  11.142  0.6826 -0.7277 -0.1186
 7422TIP3   OH246460   2.786   3.204  11.347  0.1517 -0.3715 -0.6111
 7422TIP3    H146461   2.781   3.142  11.420 -0.5307  0.5125  0.1118
 7422TIP3    H246462   2.828   3.281  11.384 -0.7952  0.3291 -0.9757
 7423TIP3   OH246463   2.211   1.515  11.372  0.4947  0.1101  0.1182
 7423TIP3    H146464   2.288   1.468  11.402  3.1164  1.2887 -3.9029
 7423TIP3    H246465   2.156   1.448  11.330  0.3203 -0.4260  1.1789
 7424TIP3   OH246466   4.566   4.148  10.738 -0.4247 -0.2067  0.2499
 7424TIP3    H146467   4.611   4.232  10.742 -0.0666 -0.3762 -0.2433
 7424TIP3    H246468   4.509   4.155  10.662 -2.4779  0.6128  1.7616
 7425TIP3   OH246469   4.157   2.256  11.614  0.9454 -0.7981  0.1904
 7425TIP3    H146470   4.114   2.342  11.615  0.8183 -0.8592  0.8986
 7425TIP3    H246471   4.088   2.194  11.639  0.9681 -1.1442 -0.5978
 7426TIP3   OH246472   6.129   0.448  10.944 -0.2848  0.0005  0.7255
 7426TIP3    H146473   6.197   0.516  10.952  0.4001 -0.7545  1.4640
 7426TIP3    H246474   6.059   0.490  10.893  0.8545  0.6926 -0.3148
 7427TIP3   OH246475   0.537   2.951  10.338 -0.4052  0.2651 -0.3176
 7427TIP3    H146476   0.565   3.042  10.351  0.0611  0.1116 -0.1999
 7427TIP3    H246477   0.588   2.902  10.403  0.2132 -0.2217 -1.1466
 7428TIP3   OH246478   1.871   4.714   8.681 -0.1164  0.0057  0.5596
 7428TIP3    H146479   1.866   4.649   8.750 -0.7628  0.4476  0.9394
 7428TIP3    H246480   1.964   4.721   8.660 -0.0986 -1.5816 -0.0205
 7429TIP3   OH246481   0.900   4.010  10.933  0.2374  0.0827  0.3762
 7429TIP3    H146482   0.883   3.923  10.969  0.4959  0.1917  0.7796
 7429TIP3    H246483   0.821   4.032  10.884  1.0075 -1.2725 -1.5574
 7430TIP3   OH246484   2.806   5.444  11.449 -0.0472  0.2428  0.0456
 7430TIP3    H146485   2.780   5.536  11.447  0.5456  0.4475  1.1072
 7430TIP3    H246486   2.723   5.396  11.456 -0.3300  0.7231  0.0477
 7431TIP3   OH246487   4.517   4.979   9.545  0.1325  0.2813  0.2117
 7431TIP3    H146488   4.571   5.050   9.512  1.0956  0.3510  1.8383
 7431TIP3    H246489   4.564   4.899   9.521  0.4481  0.3062  0.7307
 7432TIP3   OH246490   2.392   6.145  10.372 -0.1333  0.3547  0.2890
 7432TIP3    H146491   2.346   6.085  10.432  0.4599  1.4321  1.8819
 7432TIP3    H246492   2.460   6.091  10.333 -2.4193 -1.2016 -1.8789
 7433TIP3   OH246493   5.647   6.431  11.629  0.2611  0.1423  0.0404
 7433TIP3    H146494   5.706   6.497  11.665  0.5523  1.1153 -2.0785
 7433TIP3    H246495   5.591   6.479  11.568 -0.4029 -1.3459 -0.5742
 7434TIP3   OH246496   0.317   3.303   8.873 -0.0466  0.2904  0.1284
 7434TIP3    H146497   0.398   3.353   8.859 -0.1795 -0.3939 -4.6528
 7434TIP3    H246498   0.253   3.368   8.900  1.2768  1.4712  0.5421
 7435TIP3   OH246499   2.482   5.557   9.137 -0.2263 -0.5310  1.1730
 7435TIP3    H146500   2.413   5.497   9.166  1.3964 -2.5179  1.1285
 7435TIP3    H246501   2.559   5.530   9.185  1.0850  0.0900 -0.4744
 7436TIP3   OH246502   2.907   6.620  11.379 -0.4572 -0.4799  0.3111
 7436TIP3    H146503   2.966   6.689  11.407 -1.5538  0.3289  0.6845
 7436TIP3    H246504   2.931   6.603  11.287  0.7196 -0.5839  0.6224
 7437TIP3   OH246505   4.012   3.351  10.153  0.1836 -0.2563 -0.0987
 7437TIP3    H146506   4.063   3.432  10.151 -1.1352  0.6175  0.4946
 7437TIP3    H246507   3.979   3.342  10.064 -1.7674  1.2844  0.4045
 7438TIP3   OH246508   1.916   1.579  10.586 -0.0544 -0.4062  0.2608
 7438TIP3    H146509   1.932   1.548  10.496  1.7413  0.7590  0.1382
 7438TIP3    H246510   1.983   1.536  10.638  0.0399  0.3100  0.7331
 7439TIP3   OH246511   0.784   4.227  11.670 -0.3766 -0.6612 -0.6679
 7439TIP3    H146512   0.841   4.271  11.608  0.4046 -2.5385 -1.3569
 7439TIP3    H246513   0.812   4.259  11.756  1.0228 -0.7620 -1.0698
 7440TIP3   OH246514   1.656   4.044  12.460  0.2999 -0.4934  0.4443
 7440TIP3    H146515   1.624   3.993  12.535  2.1385  0.1675  1.7552
 7440TIP3    H246516   1.681   4.129  12.497  0.1491  0.2769 -1.1459
 7441TIP3   OH246517   6.258   0.152  11.472 -0.7746  0.3943  0.1007
 7441TIP3    H146518   6.164   0.130  11.468 -0.5715 -0.8506  1.3613
 7441TIP3    H246519   6.297   0.078  11.518  0.3006  2.4732  2.7845
 7442TIP3   OH246520   0.836   6.703  11.872  0.0777  0.2457 -0.6648
 7442TIP3    H146521   0.742   6.697  11.890  0.1359  0.7783 -0.1245
 7442TIP3    H246522   0.847   6.663  11.786 -0.4781 -0.8262 -0.2487
 7443TIP3   OH246523   6.149   1.193   9.953 -0.1773  0.1083  0.5341
 7443TIP3    H146524   6.137   1.125  10.019 -0.4119  0.5916  0.9941
 7443TIP3    H246525   6.236   1.230   9.971  0.5220 -0.9426 -0.5365
 7444TIP3   OH246526   0.807   0.206  10.328  0.0528 -0.9094 -0.2174
 7444TIP3    H146527   0.798   0.253  10.245  2.3901  0.5623  0.2469
 7444TIP3    H246528   0.901   0.188  10.335 -0.2171 -1.8400  1.6559
 7445TIP3   OH246529   4.298   0.486  10.008  0.7359  0.7460  0.3256
 7445TIP3    H146530   4.368   0.516  10.065 -0.7149  1.4804  1.7929
 7445TIP3    H246531   4.246   0.427  10.063 -0.0338  0.5339 -0.6069
 7446TIP3   OH246532   2.458   3.008  10.455  0.1059  0.9478 -0.3286
 7446TIP3    H146533   2.526   2.986  10.519 -1.2707 -0.3735  0.7320
 7446TIP3    H246534   2.440   2.926  10.409 -0.9351  1.2253 -0.4415
 7447TIP3   OH246535   5.959   2.430  11.053 -0.1669 -0.0839  0.3804
 7447TIP3    H146536   5.924   2.356  11.102 -1.9049  0.4181 -0.0322
 7447TIP3    H246537   6.003   2.390  10.978 -2.0266 -0.7343 -0.4419
 7448TIP3   OH246538   1.340   1.362   9.526 -0.0537 -0.1211  0.1894
 7448TIP3    H146539   1.271   1.333   9.586 -0.0877  2.0166  1.2510
 7448TIP3    H246540   1.368   1.446   9.560  1.6373  0.0391 -1.4466
 7449TIP3   OH246541   2.246   5.373  12.368 -0.5327  0.3815 -0.1380
 7449TIP3    H146542   2.285   5.460  12.370  0.0653  0.1090  1.9415
 7449TIP3    H246543   2.181   5.373  12.439 -0.0947 -1.0265  0.3083
 7450TIP3   OH246544   5.211   5.361  10.614  0.4489  0.2842  0.4610
 7450TIP3    H146545   5.152   5.352  10.689  0.9309  0.3743  0.8636
 7450TIP3    H246546   5.290   5.400  10.651  1.2098 -0.9100  0.1746
 7451TIP3   OH246547   3.577   6.325  10.286  0.0284  0.3223  0.1438
 7451TIP3    H146548   3.670   6.306  10.292 -0.0272 -0.2166 -0.5533
 7451TIP3    H246549   3.534   6.240  10.300 -0.3180  0.3692 -0.5797
 7452TIP3   OH246550   2.633   0.507   8.872 -0.1922 -0.1246 -0.7258
 7452TIP3    H146551   2.581   0.583   8.897  0.7057 -0.2332  1.8358
 7452TIP3    H246552   2.594   0.476   8.790 -0.8163  2.8327 -1.6532
 7453TIP3   OH246553   5.050   1.661   8.939 -0.1212 -0.3524 -0.1729
 7453TIP3    H146554   4.980   1.723   8.916 -1.0095 -0.3765  2.1018
 7453TIP3    H246555   5.021   1.623   9.022  0.9716 -2.9837 -0.8988
 7454TIP3   OH246556   5.355   3.392  10.685  0.1626  0.1576 -0.2876
 7454TIP3    H146557   5.281   3.425  10.735  0.8604  0.9241  0.2670
 7454TIP3    H246558   5.316   3.355  10.605 -0.7446  1.2844 -0.3875
 7455TIP3   OH246559   6.191   3.739  10.937 -0.1267 -0.0993  0.2121
 7455TIP3    H146560   6.173   3.679  10.864  0.7624  0.1372 -0.2139
 7455TIP3    H246561   6.176   3.686  11.015  0.3966 -0.8177 -0.1600
 7456TIP3   OH246562   2.718   2.867   8.823 -0.1863 -0.4670  0.4735
 7456TIP3    H146563   2.644   2.892   8.768 -0.6426  0.5806  1.5215
 7456TIP3    H246564   2.692   2.785   8.864  0.2268 -1.3440 -0.9761
 7457TIP3   OH246565   2.295   1.183  11.934 -0.0788 -0.5956 -0.5453
 7457TIP3    H146566   2.286   1.165  12.027 -2.1752  2.0700 -0.1114
 7457TIP3    H246567   2.382   1.220  11.925 -0.0418 -0.4122  0.4608
 7458TIP3   OH246568   0.087   0.536  11.027  0.0977  0.0569  0.1702
 7458TIP3    H146569   0.089   0.548  11.122  0.3062 -1.1638  0.3333
 7458TIP3    H246570   0.155   0.472  11.009 -2.2662 -2.5267 -0.3554
 7459TIP3   OH246571   3.124   6.526  10.691  0.4349  0.1303 -0.0721
 7459TIP3    H146572   3.143   6.472  10.768  1.8060  1.0587  0.2818
 7459TIP3    H246573   3.150   6.471  10.617  1.6137  0.1863  0.2733
 7460TIP3   OH246574   2.054   3.404  10.297  0.0339  0.2835 -0.2443
 7460TIP3    H146575   1.970   3.358  10.299 -0.4215  1.1152  1.0430
 7460TIP3    H246576   2.056   3.446  10.211 -0.8022  0.1206 -0.3574
 7461TIP3   OH246577   6.393   4.304  11.051 -0.0504  0.3110 -0.7403
 7461TIP3    H146578   6.334   4.242  11.096  0.6280 -0.1892 -0.5222
 7461TIP3    H246579   6.470   4.252  11.029  1.8966  1.7062  2.1516
 7462TIP3   OH246580   4.650   2.415  10.887  0.3524 -0.2386 -0.0417
 7462TIP3    H146581   4.713   2.413  10.958  0.2754  2.5535  0.1908
 7462TIP3    H246582   4.583   2.477  10.915 -0.9133 -0.8212 -1.5744
 7463TIP3   OH246583   1.494   2.293  10.898  0.4149 -0.2411  0.5443
 7463TIP3    H146584   1.485   2.342  10.817  0.8914 -1.5045 -0.3134
 7463TIP3    H246585   1.584   2.308  10.926  1.1194 -1.8727 -0.6310
 7464TIP3   OH246586   4.652   6.536   9.825  0.0292 -0.9313 -0.3669
 7464TIP3    H146587   4.744   6.563   9.831 -0.2759  0.3754 -1.2679
 7464TIP3    H246588   4.655   6.453   9.778  0.7173 -0.7254 -0.6934
 7465TIP3   OH246589   5.574   6.401  11.105  0.0389 -0.0855 -0.1502
 7465TIP3    H146590   5.524   6.339  11.158 -0.2705  1.4009  1.3945
 7465TIP3    H246591   5.661   6.362  11.096 -0.5501 -1.3605 -0.3829
 7466TIP3   OH246592   1.162   6.439  10.162  0.0964 -0.1016  0.1259
 7466TIP3    H146593   1.225   6.510  10.175  1.0798 -1.1184  1.0985
 7466TIP3    H246594   1.112   6.466  10.085  1.0879  1.1877 -0.1076
 7467TIP3   OH246595   3.581   5.408  10.296  0.3006  0.1014 -0.0763
 7467TIP3    H146596   3.532   5.328  10.280 -0.9771  0.5702  1.2163
 7467TIP3    H246597   3.568   5.461  10.218  1.2013 -0.9252 -0.9663
 7468TIP3   OH246598   0.370   3.708   8.668 -0.2889 -0.2658 -0.3399
 7468TIP3    H146599   0.295   3.658   8.700 -1.6038  1.1162 -1.1221
 7468TIP3    H246600   0.333   3.770   8.605  1.5201  0.4553 -0.7721
 7469TIP3   OH246601   2.297   0.665  11.129 -0.1513  0.3640 -0.1785
 7469TIP3    H146602   2.391   0.677  11.141 -0.4085  0.6552  1.8994
 7469TIP3    H246603   2.264   0.752  11.108 -0.1410  0.5701  0.6279
 7470TIP3   OH246604   4.746   5.816   9.544 -0.3017 -0.3896 -0.0880
 7470TIP3    H146605   4.719   5.897   9.500 -1.4204  0.1999  1.5657
 7470TIP3    H246606   4.809   5.776   9.485 -2.0261  0.1028 -2.4066
 7471TIP3   OH246607   2.339   0.345  10.590  0.0591  0.6009  0.7596
 7471TIP3    H146608   2.345   0.432  10.630 -0.3292  1.0600 -0.1384
 7471TIP3    H246609   2.425   0.331  10.550 -0.1256  0.9197  0.2381
 7472TIP3   OH246610   0.208   2.694   9.191  0.3190  0.4360  0.0192
 7472TIP3    H146611   0.159   2.620   9.228 -0.5223  0.9719  0.0044
 7472TIP3    H246612   0.279   2.654   9.140 -0.0515 -0.3514  0.1169
 7473TIP3   OH246613   0.510   0.231  10.366  0.4417  0.0998 -0.2402
 7473TIP3    H146614   0.477   0.241  10.276  0.3641 -0.5026 -0.2812
 7473TIP3    H246615   0.440   0.187  10.413  0.0686  1.3229  0.3840
 7474TIP3   OH246616   3.552   1.738  11.232  0.6586 -0.3936 -0.5093
 7474TIP3    H146617   3.478   1.737  11.292  0.1832  0.8209 -1.0463
 7474TIP3    H246618   3.625   1.771  11.285  0.0822  1.3419 -0.7339
 7475TIP3   OH246619   3.803   2.312  10.229 -0.0642  0.4993  0.2836
 7475TIP3    H146620   3.759   2.383  10.276  0.2834  1.5025 -0.8541
 7475TIP3    H246621   3.894   2.319  10.256  0.0902  0.9191 -0.3224
 7476TIP3   OH246622   2.565   3.580  11.710 -0.1388 -0.1283  0.8064
 7476TIP3    H146623   2.588   3.549  11.798 -0.0339  0.6452  1.0568
 7476TIP3    H246624   2.513   3.659  11.724 -1.3319 -0.7697  0.1939
 7477TIP3   OH246625   4.846   4.641   8.732 -0.2636 -0.4713 -1.1124
 7477TIP3    H146626   4.774   4.701   8.712 -0.7455 -0.3559  0.7844
 7477TIP3    H246627   4.816   4.591   8.807  1.8709  0.0920  0.2260
 7478TIP3   OH246628   6.547   2.554   9.613  0.2471 -0.3289 -0.1553
 7478TIP3    H146629   6.556   2.616   9.541  1.4624  0.3506  0.5454
 7478TIP3    H246630   6.625   2.569   9.668 -1.0198 -0.2500  1.7180
 7479TIP3   OH246631   4.475   5.634  19.621  0.1232  0.3540 -0.9800
 7479TIP3    H146632   4.523   5.613  19.541 -0.2607 -0.7135 -0.9425
 7479TIP3    H246633   4.533   5.607  19.692 -0.0297  0.1793 -0.9200
 7480TIP3   OH246634   1.207   2.153  11.546 -0.1954  0.5017  0.4555
 7480TIP3    H146635   1.243   2.074  11.586 -2.6805 -0.4835  0.9543
 7480TIP3    H246636   1.244   2.155  11.458  0.1371 -1.0911  0.5310
 7481TIP3   OH246637   6.434   0.596  11.667  0.1204 -0.1626  0.1787
 7481TIP3    H146638   6.476   0.629  11.588 -0.5281 -1.4441 -0.7377
 7481TIP3    H246639   6.498   0.536  11.706 -0.2127 -0.8766 -0.3460
 7482TIP3   OH246640   2.152   6.402   9.448 -0.2280 -0.3231 -0.1418
 7482TIP3    H146641   2.138   6.494   9.426 -0.0753 -0.3880 -0.5324
 7482TIP3    H246642   2.125   6.394   9.539 -0.6395  0.0185 -0.2278
 7483TIP3   OH246643   0.329   1.953  11.649 -0.1078 -0.0855  0.1668
 7483TIP3    H146644   0.337   2.004  11.568 -0.9382  0.3300  0.3295
 7483TIP3    H246645   0.237   1.964  11.674 -0.5171 -2.3036 -0.2008
 7484TIP3   OH246646   0.004   6.526   9.523 -0.4637 -0.5068  0.4650
 7484TIP3    H146647   0.007   6.475   9.442  3.1741 -0.4937  0.4372
 7484TIP3    H246648  -0.002   6.617   9.493  0.5127 -0.5231  0.1922
 7485TIP3   OH246649   4.747   5.573  11.995 -0.2626  0.4562  0.3017
 7485TIP3    H146650   4.791   5.614  12.070 -0.0103 -0.8957  0.9200
 7485TIP3    H246651   4.812   5.574  11.926  0.6671 -1.2054  1.1003
 7486TIP3   OH246652   4.580   1.836   8.760 -0.6782  0.5039 -0.7701
 7486TIP3    H146653   4.606   1.925   8.736  0.8250  0.1716 -0.4799
 7486TIP3    H246654   4.502   1.848   8.814 -0.4673  1.6494 -0.6876
 7487TIP3   OH246655   3.117   4.009  10.065 -0.1879  0.0769 -0.0455
 7487TIP3    H146656   3.092   4.013  10.157  0.8303 -0.9431  0.3087
 7487TIP3    H246657   3.199   4.058  10.061  0.1007 -0.4085 -0.2638
 7488TIP3   OH246658   4.365   0.794  10.222 -0.2248 -0.3361  0.1951
 7488TIP3    H146659   4.389   0.703  10.239  0.8009  0.2206  1.9907
 7488TIP3    H246660   4.280   0.805  10.266 -0.1883 -0.3472  0.2697
 7489TIP3   OH246661   4.850   5.278   9.079  0.3462  0.7738  0.0514
 7489TIP3    H146662   4.765   5.254   9.115  0.1739  1.2925  0.0080
 7489TIP3    H246663   4.834   5.360   9.032  0.7676  0.6129 -0.3831
 7490TIP3   OH246664   2.231   1.484  11.065  0.7393  0.0560  0.0569
 7490TIP3    H146665   2.234   1.579  11.063 -0.5143  0.2182  2.3341
 7490TIP3    H246666   2.314   1.458  11.107  0.7310  0.2084  0.1673
 7491TIP3   OH246667   4.162   6.023   9.833 -0.0107 -0.2282 -0.6471
 7491TIP3    H146668   4.257   6.036   9.838  0.2711 -1.8318 -1.3000
 7491TIP3    H246669   4.144   5.952   9.894 -0.6978 -0.3982 -1.0304
 7492TIP3   OH246670   3.424   6.385  11.804  0.3873  0.1729  0.4608
 7492TIP3    H146671   3.330   6.366  11.801  0.3528  0.2617  0.8987
 7492TIP3    H246672   3.437   6.428  11.889  0.7088  0.7956  0.1019
 7493TIP3   OH246673   3.125   0.075   9.598  0.7288 -0.1119  0.0420
 7493TIP3    H146674   3.079   0.153   9.567  0.3653  0.1044  1.0845
 7493TIP3    H246675   3.155   0.099   9.686  0.5772 -1.1665  0.3899
 7494TIP3   OH246676   2.666   4.839  10.069  0.8131  0.2199  0.3478
 7494TIP3    H146677   2.660   4.789  10.151  0.7915 -1.7114 -0.7646
 7494TIP3    H246678   2.576   4.866  10.050  0.1727 -2.3831 -0.7677
 7495TIP3   OH246679   3.119   5.884   9.895  0.2868 -0.0451 -0.4014
 7495TIP3    H146680   3.128   5.840   9.811  0.2651  1.0039 -0.9629
 7495TIP3    H246681   3.083   5.970   9.874  0.3682  0.2661  0.6681
 7496TIP3   OH246682   4.710   2.834   9.092 -0.2110 -0.1097  0.1561
 7496TIP3    H146683   4.748   2.773   9.155 -0.7481  0.1126  0.7121
 7496TIP3    H246684   4.717   2.920   9.134  1.0489  0.3156 -0.8594
 7497TIP3   OH246685   4.950   2.238   8.975  0.1489  0.1337 -0.3266
 7497TIP3    H146686   4.952   2.279   9.061  0.8562 -0.3214 -0.1200
 7497TIP3    H246687   4.872   2.182   8.976 -0.1187  0.5049 -0.1649
 7498TIP3   OH246688   4.123   0.238  11.370  1.0122 -0.1234  0.0681
 7498TIP3    H146689   4.040   0.213  11.329  1.0968 -0.1624 -0.0831
 7498TIP3    H246690   4.110   0.220  11.463  0.9059 -0.2823  0.0248
 7499TIP3   OH246691   5.965   5.383   9.638 -0.5195 -0.1935 -0.3551
 7499TIP3    H146692   6.015   5.304   9.659 -2.2381 -0.8372  1.8480
 7499TIP3    H246693   6.010   5.453   9.684 -1.6012 -0.8027  1.7867
 7500TIP3   OH246694   5.591   6.595  12.287 -0.3044  0.1547  0.1535
 7500TIP3    H146695   5.596   6.510  12.242 -2.3434 -0.9095  1.7759
 7500TIP3    H246696   5.501   6.602  12.316  0.2983  1.9832  1.8243
 7501TIP3   OH246697   0.729   1.345  11.279 -0.1841  0.1090 -0.8116
 7501TIP3    H146698   0.697   1.263  11.241 -0.0897 -1.0354  1.4214
 7501TIP3    H246699   0.661   1.371  11.341  0.7669  0.5542  0.0696
 7502TIP3   OH246700   1.494   0.845   9.105 -0.2682 -0.0017  0.0019
 7502TIP3    H146701   1.456   0.811   9.186 -1.7834 -0.7660 -0.9871
 7502TIP3    H246702   1.587   0.827   9.113 -0.7028 -2.2990  0.5353
 7503TIP3   OH246703   2.867   3.852  10.458  0.2428 -0.2305 -0.0617
 7503TIP3    H146704   2.779   3.816  10.451  0.5495 -0.6900 -2.8144
 7503TIP3    H246705   2.922   3.791  10.408  1.8955  0.7061  0.5349
 7504TIP3   OH246706   2.767   1.357  11.901 -0.2446 -0.2065 -0.0134
 7504TIP3    H146707   2.832   1.365  11.831  0.4468  0.9403  0.7284
 7504TIP3    H246708   2.802   1.410  11.973 -1.1346 -1.0139  1.0621
 7505TIP3   OH246709   0.348   5.834   9.478  0.3093 -0.0979 -0.4713
 7505TIP3    H146710   0.332   5.859   9.569  0.0598 -0.0907 -0.5170
 7505TIP3    H246711   0.426   5.778   9.482  1.7912  1.8658 -0.5433
 7506TIP3   OH246712   6.448   5.452  10.696 -0.5028  0.1403  0.4121
 7506TIP3    H146713   6.394   5.444  10.774  0.0168 -0.1186  0.7489
 7506TIP3    H246714   6.507   5.376  10.699 -1.3403 -0.5948 -0.9108
 7507TIP3   OH246715   2.297   1.265  10.669  0.2263 -0.0512  0.1148
 7507TIP3    H146716   2.383   1.270  10.711  0.4272  0.2032 -0.3144
 7507TIP3    H246717   2.242   1.326  10.717  0.5716  0.5603 -0.2512
 7508TIP3   OH246718   2.223   2.977  11.783 -0.0194  0.1822 -0.0400
 7508TIP3    H146719   2.248   2.892  11.818 -1.3560 -0.7131 -1.1404
 7508TIP3    H246720   2.218   3.035  11.859  0.3495 -0.8623  0.7969
 7509TIP3   OH246721   3.387   1.387   9.860  0.0911 -0.4928 -0.1633
 7509TIP3    H146722   3.349   1.312   9.905  0.4605 -0.3629  0.3696
 7509TIP3    H246723   3.323   1.457   9.870  0.4454 -0.2847  0.6998
 7510TIP3   OH246724   4.872   2.373  11.889 -0.2013  0.1715  0.5727
 7510TIP3    H146725   4.858   2.301  11.828 -1.7655  1.4373 -0.6429
 7510TIP3    H246726   4.879   2.330  11.975  2.0903 -1.6427 -0.4068
 7511TIP3   OH246727   0.291   4.155   8.792  0.3398 -0.2100  0.4338
 7511TIP3    H146728   0.284   4.092   8.864 -0.1621 -0.5875  0.0616
 7511TIP3    H246729   0.362   4.122   8.737 -0.4397 -0.8855 -0.1790
 7512TIP3   OH246730   4.567   4.293  10.152  0.4462 -0.3650 -0.0283
 7512TIP3    H146731   4.489   4.337  10.185  1.7161  0.5189  1.9973
 7512TIP3    H246732   4.600   4.243  10.227  1.1205 -1.7917 -1.2229
 7513TIP3   OH246733   6.491   0.213  10.163  0.1711  0.5350 -0.3860
 7513TIP3    H146734   6.436   0.256  10.099  1.0043 -0.7564 -2.0429
 7513TIP3    H246735   6.570   0.189  10.116  1.0156 -0.0749  1.2388
 7514TIP3   OH246736   3.607   3.351  10.209 -0.2181 -0.2092  0.2100
 7514TIP3    H146737   3.604   3.282  10.143  1.3164  0.9005 -1.0922
 7514TIP3    H246738   3.681   3.328  10.265  0.1440  0.2187 -0.0803
 7515TIP3   OH246739   4.186   3.651   9.504  0.1039 -0.1250 -0.3650
 7515TIP3    H146740   4.196   3.700   9.585  0.9391 -2.5865  1.1289
 7515TIP3    H246741   4.250   3.689   9.444  2.4174 -0.8190  1.5279
 7516TIP3   OH246742   6.324   1.208  10.669 -0.1962 -0.1038  0.3201
 7516TIP3    H146743   6.288   1.159  10.742 -2.4922 -1.1253 -1.3814
 7516TIP3    H246744   6.399   1.157  10.640 -0.0203 -0.3369  1.1647
 7517TIP3   OH246745   0.082   3.784  10.049 -0.3856  0.3137 -0.1528
 7517TIP3    H146746   0.040   3.862  10.013  0.2874  1.4313  1.3551
 7517TIP3    H246747   0.053   3.780  10.139 -0.4705 -1.2614 -0.2236
 7518TIP3   OH246748   2.542   4.597  10.611 -0.2728  0.3795  0.7791
 7518TIP3    H146749   2.452   4.568  10.593  0.1150 -0.6316  0.4148
 7518TIP3    H246750   2.580   4.527  10.664  1.3146 -0.8690 -1.7790
 7519TIP3   OH246751   3.793   0.481  10.178  0.1796  0.2657  0.2197
 7519TIP3    H146752   3.876   0.446  10.210  1.1627  0.0973 -2.2635
 7519TIP3    H246753   3.814   0.570  10.150  0.1969 -0.5190 -2.5617
 7520TIP3   OH246754   5.610   2.389   9.138  0.0235  0.0874 -0.0315
 7520TIP3    H146755   5.594   2.368   9.046  0.2147 -2.2625  0.4047
 7520TIP3    H246756   5.525   2.417   9.171 -0.5292 -0.9773 -0.4840
 7521TIP3   OH246757   1.432   0.298   9.770  0.1882 -0.4087 -0.0207
 7521TIP3    H146758   1.515   0.283   9.816  0.7052 -0.0656 -0.8171
 7521TIP3    H246759   1.365   0.284   9.837  0.8161 -1.9239  0.3313
 7522TIP3   OH246760   1.238   4.038   9.998 -0.2072  0.0898  0.0763
 7522TIP3    H146761   1.288   3.960   9.973  0.8263  0.6294  0.4097
 7522TIP3    H246762   1.239   4.093   9.920 -1.0012 -0.2515 -0.1833
 7523TIP3   OH246763   1.010   4.908  11.084 -0.3715  0.0789 -0.6669
 7523TIP3    H146764   1.103   4.927  11.098 -0.8236  0.6995  2.2987
 7523TIP3    H246765   1.009   4.835  11.023  2.1390 -0.7115  0.1016
 7524TIP3   OH246766   6.134   0.516   8.871  0.0165 -0.0949 -0.1959
 7524TIP3    H146767   6.125   0.541   8.963  0.4137 -0.3090 -0.0971
 7524TIP3    H246768   6.066   0.566   8.826  0.8039  1.1925 -0.0069
 7525TIP3   OH246769   4.349   4.310   9.562  0.1852 -0.2531  0.1904
 7525TIP3    H146770   4.428   4.356   9.593  0.6096  0.1086 -1.3449
 7525TIP3    H246771   4.288   4.380   9.539 -0.0688 -0.5118  0.0737
 7526TIP3   OH246772   3.251   0.910   9.852 -0.3790  0.3420  0.1572
 7526TIP3    H146773   3.248   0.815   9.850  0.9194  0.2676 -2.0924
 7526TIP3    H246774   3.161   0.937   9.869 -0.9323 -1.2850 -0.0674
 7527TIP3   OH246775   3.412   1.795  11.715 -0.0424 -0.1342  0.3246
 7527TIP3    H146776   3.400   1.724  11.652 -0.5072  0.6858 -0.5308
 7527TIP3    H246777   3.434   1.871  11.661  0.7352  0.3125  1.2475
 7528TIP3   OH246778   6.395   6.039   9.194 -0.2908  0.1715 -0.7898
 7528TIP3    H146779   6.445   6.021   9.274  0.7448 -0.2187 -1.5075
 7528TIP3    H246780   6.407   5.962   9.139 -3.6192 -1.0060 -0.0921
 7529TIP3   OH246781   1.652   3.473  10.741  0.0919  0.2882 -0.5601
 7529TIP3    H146782   1.710   3.543  10.713  0.2504 -0.0975 -1.2038
 7529TIP3    H246783   1.564   3.509  10.728  0.1709  0.8914  0.4691
 7530TIP3   OH246784   4.992   1.698  11.485 -0.4137  0.0883  0.2058
 7530TIP3    H146785   4.954   1.653  11.410  0.1665  1.0221 -0.6852
 7530TIP3    H246786   5.044   1.631  11.530 -0.9512 -0.5340 -0.1007
 7531TIP3   OH246787   0.832   6.169   9.597  0.0129  0.8043  0.4327
 7531TIP3    H146788   0.855   6.090   9.548  0.8569  0.1925  1.7434
 7531TIP3    H246789   0.752   6.201   9.556  0.3579 -0.0126 -0.9326
 7532TIP3   OH246790   4.685   3.106  10.763 -0.1971 -0.4594  0.3473
 7532TIP3    H146791   4.646   3.172  10.706 -1.0263 -0.8587  0.4373
 7532TIP3    H246792   4.630   3.029  10.752  1.4451 -1.5306 -0.6542
 7533TIP3   OH246793   6.611   6.357  10.361  0.1449 -0.0574  0.7486
 7533TIP3    H146794   6.587   6.356  10.454  0.2868  0.4648  0.7944
 7533TIP3    H246795   6.657   6.274  10.348  1.9995  0.7619  1.6568
 7534TIP3   OH246796   5.536   0.216   9.788  0.5119 -0.6579 -0.0492
 7534TIP3    H146797   5.474   0.237   9.719  0.5201  0.6985  0.3260
 7534TIP3    H246798   5.572   0.130   9.763  1.9685  0.6039 -2.7888
 7535TIP3   OH246799   3.358   0.592   9.225 -0.0869  0.5341  0.5341
 7535TIP3    H146800   3.450   0.565   9.216 -0.4735 -0.3509 -1.2247
 7535TIP3    H246801   3.342   0.647   9.149 -1.1922  0.1549  0.4798
 7536TIP3   OH246802   2.217   5.230   8.467  0.2378  0.4211 -0.6874
 7536TIP3    H146803   2.210   5.172   8.390 -0.3133  0.4510 -0.6638
 7536TIP3    H246804   2.159   5.190   8.532  1.1009  0.1025 -0.0922
 7537TIP3   OH246805   4.227   5.300  10.598 -0.1698  0.1043 -0.4323
 7537TIP3    H146806   4.234   5.317  10.692  2.5232  1.2571 -0.7796
 7537TIP3    H246807   4.229   5.386  10.557 -1.7665 -0.3511 -1.5962
 7538TIP3   OH246808   4.779   3.305  10.173  0.1308  0.3821 -0.3355
 7538TIP3    H146809   4.768   3.296  10.078 -0.7545  0.0421 -0.2131
 7538TIP3    H246810   4.690   3.300  10.208  0.1940  2.6443  0.3419
 7539TIP3   OH246811   5.866   6.477   9.118  0.3954 -0.1893 -0.0744
 7539TIP3    H146812   5.818   6.431   9.186 -0.4389  0.9304  0.1303
 7539TIP3    H246813   5.802   6.490   9.048  0.9867 -0.5060 -0.6874
 7540TIP3   OH246814   2.121   3.323  11.399  0.0991  0.0928  0.7078
 7540TIP3    H146815   2.115   3.260  11.472  2.3935  1.0642  1.8340
 7540TIP3    H246816   2.188   3.385  11.427  0.6427  0.8543 -2.0173
 7541TIP3   OH246817   5.933   4.786   9.054 -0.7091 -0.4557  0.3936
 7541TIP3    H146818   5.926   4.827   8.968 -1.0257 -0.0900  0.5926
 7541TIP3    H246819   5.843   4.782   9.086 -0.4137  1.2954  1.5857
 7542TIP3   OH246820   3.058   3.805   9.748 -0.6648 -0.7158  0.0822
 7542TIP3    H146821   3.108   3.825   9.827 -0.4784  0.5308 -0.3387
 7542TIP3    H246822   3.052   3.710   9.747  1.6666 -0.9120  0.1526
 7543TIP3   OH246823   2.588   1.795  10.047 -0.0503 -0.6291 -0.2083
 7543TIP3    H146824   2.582   1.718  10.103  0.3570  1.4137  2.9032
 7543TIP3    H246825   2.681   1.811  10.037 -0.0927  0.5801  0.9850
 7544TIP3   OH246826   3.749   0.193   9.694  0.0600 -0.2463  0.0263
 7544TIP3    H146827   3.830   0.217   9.738 -0.3045 -1.0202  1.1669
 7544TIP3    H246828   3.730   0.266   9.635  1.7459 -0.1958 -0.5136
 7545TIP3   OH246829   2.210   4.111  11.352 -0.4343 -0.3026  0.2737
 7545TIP3    H146830   2.224   4.182  11.415 -0.6968  0.9892 -1.0720
 7545TIP3    H246831   2.236   4.148  11.268  0.8884 -2.3115 -0.2732
 7546TIP3   OH246832   2.039   5.194   9.144  0.1363  0.1676  0.0345
 7546TIP3    H146833   2.095   5.267   9.171 -0.8276  1.1640 -0.5892
 7546TIP3    H246834   2.006   5.220   9.058 -1.6933 -0.1449  0.6073
 7547TIP3   OH246835   1.198   3.406   9.885  0.2386 -0.2323 -0.5594
 7547TIP3    H146836   1.179   3.487   9.932  0.1345  0.6931 -2.1237
 7547TIP3    H246837   1.273   3.427   9.829 -0.5725 -0.8010 -1.9190
 7548TIP3   OH246838   5.684   1.435  10.980 -0.4613 -0.2209 -0.9962
 7548TIP3    H146839   5.714   1.351  10.945 -3.6714 -0.5671 -3.4328
 7548TIP3    H246840   5.646   1.413  11.065  1.5589 -0.5871 -0.1416
 7549TIP3   OH246841   5.273   3.560   8.873 -0.4445 -0.3075  0.3721
 7549TIP3    H146842   5.247   3.559   8.781 -0.1923 -2.9578  0.2298
 7549TIP3    H246843   5.272   3.467   8.898  1.7210  0.1303  2.3979
 7550TIP3   OH246844   3.713   0.146  11.540  0.0246  0.4512 -0.0143
 7550TIP3    H146845   3.752   0.216  11.592  0.7918 -0.0162  0.0594
 7550TIP3    H246846   3.766   0.068  11.560 -0.4601 -0.0239 -0.5216
 7551TIP3   OH246847   6.506   3.502  10.125  0.8860  0.4457  0.0151
 7551TIP3    H146848   6.439   3.507  10.057  0.7837 -1.0041 -0.0160
 7551TIP3    H246849   6.588   3.522  10.080  0.6383  0.9929 -0.2016
 7552TIP3   OH246850   4.235   5.272   9.242  0.0240  0.0206 -0.3487
 7552TIP3    H146851   4.227   5.189   9.289  0.8937  0.4597  0.6272
 7552TIP3    H246852   4.146   5.292   9.214 -0.7028  0.0998  1.8033
 7553TIP3   OH246853   2.683   1.393  10.645  0.0574 -0.2602  0.1528
 7553TIP3    H146854   2.606   1.378  10.700 -0.0492  0.8713  0.3362
 7553TIP3    H246855   2.698   1.309  10.602 -0.7526 -0.7434  0.7770
 7554TIP3   OH246856   4.494   6.493  10.965  0.0767 -0.2900  0.1230
 7554TIP3    H146857   4.578   6.451  10.951 -0.4743 -1.2795 -0.3207
 7554TIP3    H246858   4.512   6.565  11.025  1.2467 -0.4224 -0.0583
 7555TIP3   OH246859   6.492   1.056  12.355 -0.1785  0.2844 -0.5885
 7555TIP3    H146860   6.468   1.142  12.389  0.1263  0.1748 -0.0879
 7555TIP3    H246861   6.431   1.042  12.283 -1.0654  0.3882  0.1107
 7556TIP3   OH246862   4.235   6.550  10.911  0.6307  0.1589 -0.4863
 7556TIP3    H146863   4.324   6.527  10.937 -0.3306 -2.5886  0.7627
 7556TIP3    H246864   4.205   6.475  10.859 -1.4475  0.2793  0.4291
 7557TIP3   OH246865   3.520   5.723   9.107 -0.4903  0.0648  0.5332
 7557TIP3    H146866   3.596   5.764   9.066 -0.1498  0.5740  1.6407
 7557TIP3    H246867   3.555   5.641   9.144 -0.9622 -0.7886 -0.8337
 7558TIP3   OH246868   6.183   1.512  10.549  0.0336 -0.3462  0.7004
 7558TIP3    H146869   6.133   1.450  10.496  0.6337 -1.2245  1.1469
 7558TIP3    H246870   6.117   1.572  10.585 -0.6379 -1.1573  0.8383
 7559TIP3   OH246871   1.902   4.725  10.929  0.5443  0.0274 -0.3912
 7559TIP3    H146872   1.893   4.725  11.025 -1.5161 -0.5589 -0.5227
 7559TIP3    H246873   1.994   4.743  10.913  0.7178  1.3597  1.6851
 7560TIP3   OH246874   5.841   5.787   9.588  0.1178  0.2610  0.2744
 7560TIP3    H146875   5.792   5.868   9.599 -0.3767 -0.1699  1.3712
 7560TIP3    H246876   5.932   5.811   9.609 -0.1479  0.3750  1.3442
 7561TIP3   OH246877   1.062   3.799   9.365 -0.0098  0.2494  0.1118
 7561TIP3    H146878   1.143   3.750   9.353 -0.3838 -0.6655  1.1504
 7561TIP3    H246879   0.993   3.734   9.351 -0.6705  1.4131 -2.6757
 7562TIP3   OH246880   5.992   6.689  10.237 -0.0436 -0.2249 -0.2415
 7562TIP3    H146881   5.999   6.743  10.316  0.2882 -1.6865  0.7537
 7562TIP3    H246882   5.902   6.704  10.206  0.0702  0.9585 -0.0501
 7563TIP3   OH246883   1.955   4.947   9.216 -0.2012 -0.8846 -0.2745
 7563TIP3    H146884   1.965   5.040   9.236 -1.3900 -0.7017 -0.4790
 7563TIP3    H246885   2.028   4.928   9.157  1.1861 -0.5701  1.2619
 7564TIP3   OH246886   6.327   1.685   9.818  0.2151  0.4051  0.5579
 7564TIP3    H146887   6.362   1.654   9.901  2.0941  0.3281 -0.2194
 7564TIP3    H246888   6.401   1.730   9.776 -0.7542  0.6527 -0.9633
 7565TIP3   OH246889   2.823   6.657  10.112 -0.1776 -0.1764  0.0028
 7565TIP3    H146890   2.758   6.589  10.092  1.1314 -1.6646  0.5445
 7565TIP3    H246891   2.773   6.724  10.158 -1.5271 -0.7774 -0.5080
 7566TIP3   OH246892   6.064   0.004   8.938  0.0260 -0.6214  0.5136
 7566TIP3    H146893   6.091   0.031   8.850 -1.0954  0.8148  0.5752
 7566TIP3    H246894   6.139   0.025   8.994 -0.0968  0.6258  0.2402
 7567TIP3   OH246895   6.377   3.469   9.634 -0.0275 -0.2472 -0.1376
 7567TIP3    H146896   6.342   3.380   9.625  2.1619 -1.1449 -0.1913
 7567TIP3    H246897   6.468   3.457   9.658  0.9142  1.9438 -2.2208
 7568TIP3   OH246898   2.605   0.371  10.530  0.4365  0.1829  0.1742
 7568TIP3    H146899   2.634   0.280  10.520  0.5689  0.3271 -0.8510
 7568TIP3    H246900   2.667   0.409  10.592 -0.3881 -0.7536  1.6352
 7569TIP3   OH246901   4.852   6.684  11.797 -0.6744  0.6466 -0.8348
 7569TIP3    H146902   4.900   6.767  11.792 -1.7506  1.2813 -0.9792
 7569TIP3    H246903   4.920   6.617  11.798  0.3197  1.5916  1.6863
 7570TIP3   OH246904   4.128   5.819  10.926 -0.4919 -0.0627  0.4164
 7570TIP3    H146905   4.114   5.861  11.011 -0.2138  0.1347  0.3655
 7570TIP3    H246906   4.222   5.803  10.921 -0.8501 -3.1536  1.5738
 7571TIP3   OH246907   0.899   0.204  10.935  0.2714 -0.0005  0.4242
 7571TIP3    H146908   0.897   0.241  10.847  1.2680  0.4922  0.5877
 7571TIP3    H246909   0.809   0.176  10.952 -0.4365  1.9661  0.1309
 7572TIP3   OH246910   6.319   3.066  11.381  0.0552  0.7392 -0.0853
 7572TIP3    H146911   6.226   3.082  11.365 -0.0674 -0.9047 -1.2169
 7572TIP3    H246912   6.323   3.044  11.474 -1.3452 -2.8812 -0.7249
 7573TIP3   OH246913   4.378   0.994  12.096  0.2937  0.5145 -0.3418
 7573TIP3    H146914   4.378   1.044  12.177 -0.9874 -0.0517  0.0405
 7573TIP3    H246915   4.292   0.952  12.093  0.4725  0.1680 -1.7771
 7574TIP3   OH246916   0.658   2.929   9.129  0.1574 -0.5786 -0.3934
 7574TIP3    H146917   0.640   2.876   9.207 -2.5768 -0.1918 -0.6648
 7574TIP3    H246918   0.612   3.011   9.145  2.6102  0.9848 -0.8923
 7575TIP3   OH246919   0.628   1.618   9.828  0.1081  0.0383 -0.3389
 7575TIP3    H146920   0.565   1.675   9.872 -0.6186 -0.7257 -0.3657
 7575TIP3    H246921   0.585   1.594   9.746  0.0893 -1.1174 -0.0055
 7576TIP3   OH246922   4.336   2.098  10.194 -0.5657  0.4155 -0.0092
 7576TIP3    H146923   4.380   2.171  10.151 -1.2996  0.9899  0.1899
 7576TIP3    H246924   4.267   2.139  10.246 -1.3419 -0.4580 -0.3233
 7577TIP3   OH246925   0.774   5.008  11.654 -0.1836  0.1908 -0.1413
 7577TIP3    H146926   0.785   5.069  11.727 -1.0502 -1.0128  1.0345
 7577TIP3    H246927   0.842   5.033  11.592 -0.7148  2.5759  0.1191
 7578TIP3   OH246928   6.434   1.020  10.238 -0.3681  0.5190 -0.4547
 7578TIP3    H146929   6.464   1.110  10.227 -1.7862  0.8358 -2.0601
 7578TIP3    H246930   6.493   0.984  10.304 -0.5588  2.9795  1.2074
 7579TIP3   OH246931   2.061   1.638   9.439 -0.5453  0.0689  0.0157
 7579TIP3    H146932   2.120   1.578   9.393 -0.7734 -0.3028  0.2027
 7579TIP3    H246933   2.099   1.646   9.526 -2.1912 -2.3177  1.0579
 7580TIP3   OH246934   3.324   5.439   9.732 -0.3797  0.0356 -0.0942
 7580TIP3    H146935   3.284   5.392   9.659 -0.3910  0.5237 -0.4102
 7580TIP3    H246936   3.418   5.428   9.720 -0.3675  0.5488 -0.4767
 7581TIP3   OH246937   1.365   3.566  10.755 -0.7594 -0.1283  1.1979
 7581TIP3    H146938   1.346   3.490  10.700 -2.1472 -0.1060  1.6133
 7581TIP3    H246939   1.374   3.530  10.843  0.1005  0.0100  1.1740
 7582TIP3   OH246940   5.963   2.909  10.620  0.3344 -0.2649  0.1144
 7582TIP3    H146941   5.996   2.899  10.531 -1.0080  0.4670 -0.4861
 7582TIP3    H246942   5.939   2.820  10.647 -1.2593 -0.2211 -1.0715
 7583TIP3   OH246943   0.372   5.000  10.006 -0.1163  0.1811  0.2426
 7583TIP3    H146944   0.311   5.016  10.077  0.4825 -0.5770  0.9536
 7583TIP3    H246945   0.453   5.044  10.033 -0.6047  2.0702 -1.1686
 7584TIP3   OH246946   5.349   3.230  12.390  0.0722 -0.6771 -0.0082
 7584TIP3    H146947   5.370   3.285  12.315 -0.6308  0.3062  0.4868
 7584TIP3    H246948   5.412   3.256  12.457 -0.8562  0.2700  0.5473
 7585TIP3   OH246949   5.253   0.329   9.193 -0.1121  0.3453 -0.9838
 7585TIP3    H146950   5.302   0.380   9.257  1.9445 -3.5349  0.9271
 7585TIP3    H246951   5.166   0.317   9.231 -0.1148  1.1226 -0.7403
 7586TIP3   OH246952   4.127   5.203   9.911  0.1834 -0.1588  0.1277
 7586TIP3    H146953   4.148   5.197  10.004 -0.6433  0.0467  0.3376
 7586TIP3    H246954   4.066   5.277   9.904 -0.2918 -0.5880 -0.4659
 7587TIP3   OH246955   3.200   4.913   9.516 -0.1263 -0.5002  0.5584
 7587TIP3    H146956   3.233   4.932   9.428 -0.8329  1.9152  0.7282
 7587TIP3    H246957   3.151   4.832   9.507 -2.4897  1.0276 -1.9958
 7588TIP3   OH246958   0.054   2.637  10.654  0.2593  0.3280 -0.9441
 7588TIP3    H146959   0.136   2.588  10.662  0.3542  0.7289  1.1776
 7588TIP3    H246960   0.082   2.728  10.640  0.2295  0.5842  0.5270
 7589TIP3   OH246961   3.053   2.299  10.662  0.1083  0.9327  0.1464
 7589TIP3    H146962   3.044   2.210  10.697  2.0209  0.6789  0.1121
 7589TIP3    H246963   2.989   2.351  10.711 -1.6382 -0.5921 -0.4359
 7590TIP3   OH246964   4.982   6.588   9.767  0.2865  0.0454  0.0325
 7590TIP3    H146965   5.074   6.616   9.769  0.8040 -1.6046  0.6767
 7590TIP3    H246966   4.969   6.556   9.678 -0.1102  1.5846 -0.4969
 7591TIP3   OH246967   5.290   6.607   9.729  0.4689 -0.6026  0.1467
 7591TIP3    H146968   5.342   6.532   9.701  0.0562 -0.2553 -1.6835
 7591TIP3    H246969   5.320   6.679   9.673  1.1124  0.7422  2.0806
 7592TIP3   OH246970   3.000   0.851   9.116 -0.2897 -0.0070 -0.3397
 7592TIP3    H146971   3.089   0.818   9.105 -0.5175 -0.4643 -0.8544
 7592TIP3    H246972   2.944   0.781   9.083 -0.8328  0.3846 -0.2626
 7593TIP3   OH246973   2.986   1.975  10.419 -0.0774 -0.0310 -0.2450
 7593TIP3    H146974   2.971   1.939  10.507  2.3635  0.1118  0.3002
 7593TIP3    H246975   3.064   1.929  10.388  0.0636  1.1106 -1.6661
 7594TIP3   OH246976   2.006   3.955   9.907 -0.0827 -0.1918 -0.3395
 7594TIP3    H146977   1.930   3.915   9.864  1.7788 -2.1271 -2.0294
 7594TIP3    H246978   2.065   3.978   9.835  0.2306  3.0222  0.7990
 7595TIP3   OH246979   1.138   1.505  11.183  0.0107 -0.2998  0.1905
 7595TIP3    H146980   1.105   1.424  11.224  0.8635 -0.8203 -0.1187
 7595TIP3    H246981   1.233   1.493  11.180  0.3639  1.5492  1.8940
 7596TIP3   OH246982   0.951   2.961   9.740 -0.9149  0.1331  0.9752
 7596TIP3    H146983   0.889   2.992   9.806 -4.3828 -0.3222 -1.8172
 7596TIP3    H246984   0.975   3.040   9.692 -0.4422  0.0919  1.1395
 7597TIP3   OH246985   6.284   0.078  11.205  0.1569 -0.0191  0.5569
 7597TIP3    H146986   6.322  -0.010  11.195  1.2414  0.3528  1.1880
 7597TIP3    H246987   6.266   0.086  11.298 -2.3006 -0.4771  0.1686
 7598TIP3   OH246988   0.716   6.073  11.306 -0.2257 -0.3893  0.3585
 7598TIP3    H146989   0.785   6.132  11.277 -1.1605  1.1122  1.0660
 7598TIP3    H246990   0.742   6.045  11.394  1.0922 -2.5220 -0.6197
 7599TIP3   OH246991   0.998   2.318  10.757  0.2360  0.4557 -0.8124
 7599TIP3    H146992   0.928   2.334  10.694 -1.5893  0.2901  1.0473
 7599TIP3    H246993   0.990   2.226  10.780  1.7090  0.1897 -1.2272
 7600TIP3   OH246994   4.940   4.761   9.807 -0.0560 -0.3463  0.1530
 7600TIP3    H146995   4.926   4.843   9.760 -0.7333 -0.9965 -0.8247
 7600TIP3    H246996   4.904   4.778   9.894 -1.4423 -0.0167 -0.4491
 7601TIP3   OH246997   4.061   3.998   9.093 -0.0375 -0.1266 -0.6638
 7601TIP3    H146998   4.077   3.906   9.116 -1.6078 -0.5605 -1.2056
 7601TIP3    H246999   4.022   4.036   9.172 -0.8458 -0.3449 -0.9494
 7602TIP3   OH247000   4.298   0.383  11.166  0.1708  0.4281 -0.4695
 7602TIP3    H147001   4.246   0.331  11.227 -0.1436  1.3129  0.0355
 7602TIP3    H247002   4.240   0.454  11.140  1.4790  2.1176  1.0253
 7603TIP3   OH247003   3.614   3.177   9.945  0.1750 -0.1595  0.2742
 7603TIP3    H147004   3.634   3.083   9.947 -1.1144 -0.4300  0.9216
 7603TIP3    H247005   3.582   3.193   9.856  0.0522 -0.4051  0.2740
 7604TIP3   OH247006   5.503   3.617   8.629 -0.3908 -0.6517  0.0062
 7604TIP3    H147007   5.482   3.699   8.675 -0.7900 -1.2237  0.8872
 7604TIP3    H247008   5.430   3.604   8.569 -0.3780 -0.4091 -0.0628
 7605TIP3   OH247009   0.080   5.890   9.342 -0.8187 -0.5664 -0.0861
 7605TIP3    H147010   0.171   5.887   9.369 -0.1980  2.4942 -1.4367
 7605TIP3    H247011   0.046   5.802   9.360  2.2644 -1.6836  0.7643
 7606TIP3   OH247012   1.656   2.821   8.798  0.3397  0.1936  0.2614
 7606TIP3    H147013   1.572   2.824   8.753  0.8614 -0.8818 -0.8274
 7606TIP3    H247014   1.640   2.766   8.875 -0.2632  1.0956  0.8038
 7607TIP3   OH247015   1.940   2.897   9.965  0.1672 -0.1291 -0.1005
 7607TIP3    H147016   2.019   2.950   9.951  0.9152 -1.3608 -0.7652
 7607TIP3    H247017   1.959   2.846  10.044 -1.3848  2.0012  1.7795
 7608TIP3   OH247018   6.590   6.079  10.193 -0.1203  0.0658  0.5174
 7608TIP3    H147019   6.544   6.071  10.276  1.2481 -0.0942  1.2952
 7608TIP3    H247020   6.664   6.019  10.200  0.1673  0.2328 -0.7179
 7609TIP3   OH247021   1.534   2.638  10.523 -0.1202  0.4118 -0.1470
 7609TIP3    H147022   1.479   2.710  10.551 -2.9889 -1.1371 -1.4186
 7609TIP3    H247023   1.610   2.679  10.482  0.5335  2.6401  2.9660
 7610TIP3   OH247024   6.371   4.689  11.330 -0.0537  0.1860  0.2888
 7610TIP3    H147025   6.326   4.648  11.256  1.1091  0.0835 -0.4018
 7610TIP3    H247026   6.460   4.655  11.325  0.3730  1.1462  0.9923
 7611TIP3   OH247027   4.760   3.415  10.422 -0.0080 -0.3668  0.6445
 7611TIP3    H147028   4.779   3.506  10.402  0.6206 -0.2773  1.6281
 7611TIP3    H247029   4.797   3.366  10.348 -0.2362  0.1480  0.1779
 7612TIP3   OH247030   2.397   6.717  11.305  0.5701 -0.3512  0.0463
 7612TIP3    H147031   2.406   6.737  11.212  0.1242 -1.4222 -0.2409
 7612TIP3    H247032   2.477   6.752  11.345 -0.4437  2.5511 -0.2706
 7613TIP3   OH247033   1.652   4.768   9.991  0.0432  0.3141 -0.3051
 7613TIP3    H147034   1.655   4.856   9.953 -0.0260  0.0906 -0.8394
 7613TIP3    H247035   1.687   4.778  10.079  1.7653  0.5636 -0.9848
 7614TIP3   OH247036   4.805   1.341  11.251 -0.0395 -0.8681 -0.0077
 7614TIP3    H147037   4.743   1.366  11.182  1.4170 -0.3897 -1.2036
 7614TIP3    H247038   4.750   1.325  11.327 -1.4946  1.7434 -0.3559
 7615TIP3   OH247039   5.764   6.204  10.531  0.2603 -0.4007  0.1713
 7615TIP3    H147040   5.674   6.189  10.557  1.1470 -1.3861  2.9648
 7615TIP3    H247041   5.758   6.269  10.461 -2.5728 -0.4696  0.2468
 7616TIP3   OH247042   5.945   4.314  10.660  0.0908  0.4955 -0.4825
 7616TIP3    H147043   5.872   4.310  10.598  0.4124  0.5973 -0.8719
 7616TIP3    H247044   5.938   4.234  10.711  0.7539 -0.3883 -1.7157
 7617TIP3   OH247045   1.614   2.397  10.130  0.5964  0.0866 -0.0753
 7617TIP3    H147046   1.674   2.391  10.056  0.1770 -3.1209 -0.3065
 7617TIP3    H247047   1.669   2.390  10.207  0.7455 -0.4118 -0.2218
 7618TIP3   OH247048   2.045   5.527  11.834 -0.6778  0.1346 -0.0045
 7618TIP3    H147049   2.012   5.460  11.775 -1.7032 -0.6369  1.3647
 7618TIP3    H247050   2.140   5.517  11.832 -0.7734 -0.6979 -0.5773
 7619TIP3   OH247051   3.647   3.995  11.443  1.1922 -0.6944 -0.8208
 7619TIP3    H147052   3.662   3.903  11.421  2.6044 -0.2760 -1.7211
 7619TIP3    H247053   3.647   4.041  11.359  3.0872  0.4616 -0.2487
 7620TIP3   OH247054   2.454   0.765   9.559  0.3967 -0.3721 -0.2288
 7620TIP3    H147055   2.521   0.742   9.624  2.7957  0.8690 -2.1068
 7620TIP3    H247056   2.440   0.859   9.570 -0.1856 -0.4019 -0.6493
 7621TIP3   OH247057   4.014   0.213   9.389 -0.0248  0.0254  0.0676
 7621TIP3    H147058   4.027   0.281   9.455  0.8652  0.0759 -0.1327
 7621TIP3    H247059   4.068   0.242   9.315 -0.3467 -0.4505 -0.3583
 7622TIP3   OH247060   1.668   6.510  10.025 -0.0353  0.6891 -0.1173
 7622TIP3    H147061   1.751   6.470   9.999 -0.6369 -0.6651 -0.0061
 7622TIP3    H247062   1.669   6.596   9.982  0.3977 -0.2357 -2.0375
 7623TIP3   OH247063   0.448   0.792   9.626  0.0461 -0.4792 -0.7583
 7623TIP3    H147064   0.539   0.804   9.653 -0.5532 -0.5773  1.5785
 7623TIP3    H247065   0.444   0.825   9.537  1.9825  1.2376 -0.2844
 7624TIP3   OH247066   5.408   2.450   9.490  0.6101 -0.0862 -0.4279
 7624TIP3    H147067   5.423   2.495   9.407  0.0875 -0.0905 -0.5321
 7624TIP3    H247068   5.313   2.443   9.496  0.6416  0.0040  0.2235
 7625TIP3   OH247069   5.713   5.366  10.886 -0.2025  0.1784  0.0106
 7625TIP3    H147070   5.747   5.393  10.800  1.9542 -2.7656 -0.1919
 7625TIP3    H247071   5.764   5.417  10.949 -0.4856  0.9916 -0.4008
 7626TIP3   OH247072   5.040   1.103  11.377  0.4015 -0.1320 -0.4854
 7626TIP3    H147073   4.981   1.172  11.406  1.4160  1.5942 -2.2775
 7626TIP3    H247074   5.126   1.130  11.406  0.4272 -2.9565  2.6869
 7627TIP3   OH247075   1.000   4.175   9.016 -0.3069  0.0795  0.5531
 7627TIP3    H147076   1.023   4.101   9.071 -0.4398 -0.8044 -0.5430
 7627TIP3    H247077   0.951   4.234   9.073  0.7082 -0.1717  1.7150
 7628TIP3   OH247078   1.394   3.892  10.559 -0.3975 -0.2906 -0.5980
 7628TIP3    H147079   1.362   3.856  10.476 -0.0111 -1.3864 -0.2920
 7628TIP3    H247080   1.476   3.936  10.537  0.9035 -2.5099 -0.4923
 7629TIP3   OH247081   1.623   3.407  10.391 -0.1196 -0.2019 -0.2866
 7629TIP3    H147082   1.611   3.493  10.351 -0.0152 -1.1971 -2.6470
 7629TIP3    H247083   1.558   3.351  10.347 -0.4805 -1.2497  1.5001
 7630TIP3   OH247084   4.099   0.781   9.444 -0.4825 -0.0912  0.0664
 7630TIP3    H147085   4.071   0.799   9.534 -2.1219 -0.1286 -0.4085
 7630TIP3    H247086   4.081   0.862   9.397 -1.0143 -0.5612 -0.5417
 7631TIP3   OH247087   5.960   1.096   8.664  0.1554  0.0808 -0.1443
 7631TIP3    H147088   6.010   1.050   8.732  0.5353  1.2753  0.4082
 7631TIP3    H247089   5.931   1.026   8.605  0.2674 -0.9197  0.9482
 7632TIP3   OH247090   0.172   1.056  10.772 -0.1867  0.1419  0.5679
 7632TIP3    H147091   0.262   1.060  10.739 -0.8418  1.4976 -1.2331
 7632TIP3    H247092   0.152   0.962  10.774  1.0203 -0.1418  0.2739
 7633TIP3   OH247093   4.748   0.722   9.557 -0.1253  0.0275  0.5149
 7633TIP3    H147094   4.700   0.665   9.497  0.6752  0.4449 -0.5443
 7633TIP3    H247095   4.681   0.779   9.595 -0.7630 -0.8260  0.6900
 7634TIP3   OH247096   3.016   3.865   9.345 -0.5790 -0.2988  0.1268
 7634TIP3    H147097   2.996   3.818   9.426 -0.3911  1.2474  1.0959
 7634TIP3    H247098   2.948   3.932   9.338  0.4838  0.8023  0.0377
 7635TIP3   OH247099   1.155   3.061  11.607  0.0961 -0.1519  0.2990
 7635TIP3    H147100   1.182   2.971  11.590  0.4594 -0.2157  1.1593
 7635TIP3    H247101   1.085   3.053  11.673 -0.4210  0.1495 -0.2023
 7636TIP3   OH247102   3.941   4.340   9.194 -0.5088 -0.7193  0.1522
 7636TIP3    H147103   3.939   4.344   9.099 -0.5235 -1.8081  0.0952
 7636TIP3    H247104   3.853   4.312   9.219 -0.8607  0.6620  0.5711
 7637TIP3   OH247105   5.628   4.009  10.201 -0.3699  0.4490 -0.0530
 7637TIP3    H147106   5.695   4.070  10.232  0.3418  1.0124 -2.4848
 7637TIP3    H247107   5.666   3.922  10.214  0.9618  0.7628 -1.5458
 7638TIP3   OH247108   1.882   3.515  11.811  0.1692 -0.3884  0.1367
 7638TIP3    H147109   1.977   3.505  11.802  0.1232  0.3539 -1.6149
 7638TIP3    H247110   1.871   3.593  11.865  0.5506 -0.5203  0.4113
 7639TIP3   OH247111   0.625   3.430  10.426 -0.6113 -0.1900 -0.1795
 7639TIP3    H147112   0.673   3.506  10.459 -1.5675  0.6902 -0.7810
 7639TIP3    H247113   0.561   3.466  10.365  0.2055 -1.6573 -1.9819
 7640TIP3   OH247114   5.099   4.009  10.825 -0.1388 -0.0945 -0.3506
 7640TIP3    H147115   5.136   4.069  10.760 -1.3696  1.0367 -0.0334
 7640TIP3    H247116   5.007   4.001  10.801 -0.2613 -0.8732  0.3553
 7641TIP3   OH247117   5.655   5.150  10.474 -0.1271 -0.0512  0.1349
 7641TIP3    H147118   5.673   5.057  10.466 -2.1525 -0.6049  1.4347
 7641TIP3    H247119   5.570   5.155  10.517 -1.3402  2.3947 -2.2390
 7642TIP3   OH247120   1.624   3.039  10.570  0.3833  0.1222  0.5997
 7642TIP3    H147121   1.557   3.107  10.580  1.9719  2.0209 -0.9626
 7642TIP3    H247122   1.582   2.972  10.516 -0.4745  0.9842  0.1661
 7643TIP3   OH247123   1.770   1.958  11.702  0.1443  0.2291  0.1861
 7643TIP3    H147124   1.843   1.939  11.761 -1.3626 -0.9505  1.7545
 7643TIP3    H247125   1.765   1.881  11.645 -1.2424 -0.7727  1.5843
 7644TIP3   OH247126   1.455   6.064  12.326 -0.2313 -0.0379  0.4201
 7644TIP3    H147127   1.541   6.067  12.367  0.2512  0.0605 -0.5619
 7644TIP3    H247128   1.431   6.156  12.312  1.2781  0.0129 -2.7969
 7645TIP3   OH247129   2.929   3.356  10.193 -0.3269 -0.3146 -0.1336
 7645TIP3    H147130   2.957   3.298  10.264  2.8739  0.1714 -0.8352
 7645TIP3    H247131   2.883   3.298  10.132  2.2719 -2.1514 -0.5543
 7646TIP3   OH247132   5.293   5.212   9.067  0.3620 -0.7931 -0.3668
 7646TIP3    H147133   5.381   5.174   9.073  0.4670 -0.4479  0.5364
 7646TIP3    H247134   5.286   5.268   9.145 -0.5809 -0.6504 -0.5390
 7647TIP3   OH247135   4.775   1.934  10.547 -0.1514 -0.2316  0.6499
 7647TIP3    H147136   4.843   1.872  10.573  0.1205 -0.1247  0.2071
 7647TIP3    H247137   4.788   1.946  10.453  2.3641  3.5026  1.2637
 7648TIP3   OH247138   4.179   4.895  11.120 -0.6178  0.3859 -0.0828
 7648TIP3    H147139   4.274   4.899  11.129 -0.8623  1.4410  3.9854
 7648TIP3    H247140   4.164   4.848  11.038  3.4113 -2.5925  0.6175
 7649TIP3   OH247141   0.471   4.554   9.059  0.0387 -0.4418  0.4258
 7649TIP3    H147142   0.440   4.490   8.996 -0.6120  0.7831 -0.5503
 7649TIP3    H247143   0.458   4.512   9.144 -2.7584 -0.6884 -0.0191
 7650TIP3   OH247144   3.393   2.932  10.057  0.0615 -0.5567 -0.2976
 7650TIP3    H147145   3.402   3.025  10.079  0.2814 -0.4394 -0.8735
 7650TIP3    H247146   3.300   2.921  10.037 -0.1062 -0.6250  0.5025
 7651TIP3   OH247147   1.094   4.201  10.978  0.1503 -0.1567 -0.2579
 7651TIP3    H147148   1.032   4.130  10.962  0.1034  0.1080 -1.3226
 7651TIP3    H247149   1.046   4.265  11.031 -0.0002 -0.6298  0.1802
 7652TIP3   OH247150   2.267   0.524   9.532 -0.6638 -0.6757 -0.0842
 7652TIP3    H147151   2.337   0.588   9.527 -0.6269 -0.7299 -0.2792
 7652TIP3    H247152   2.295   0.454   9.472  0.6169 -2.1582  2.0965
 7653TIP3   OH247153   4.207   2.596  10.609  0.1947 -0.2196 -0.1810
 7653TIP3    H147154   4.208   2.563  10.699  0.0559 -1.3510 -0.5777
 7653TIP3    H247155   4.300   2.608  10.587  0.2051  1.6399  0.6344
 7654TIP3   OH247156   1.167   0.142  10.983 -0.0745 -0.5378  0.8385
 7654TIP3    H147157   1.074   0.162  10.972 -0.0983 -1.2593 -0.4618
 7654TIP3    H247158   1.182   0.149  11.077 -1.8288 -2.0535  1.2786
 7655TIP3   OH247159   4.921   6.373  11.780  0.1362 -0.0070  0.1916
 7655TIP3    H147160   4.975   6.296  11.763 -0.1221  0.4180 -3.1865
 7655TIP3    H247161   4.983   6.440  11.808  1.4769  0.3276 -3.1352
 7656TIP3   OH247162   6.494   3.351   8.951  0.1543  0.2739 -0.3304
 7656TIP3    H147163   6.409   3.379   8.985  0.6311  1.2828  0.0609
 7656TIP3    H247164   6.536   3.431   8.922  1.2869 -0.1228  0.1783
 7657TIP3   OH247165   4.429   3.643  10.232  0.5077  0.3713 -0.4068
 7657TIP3    H147166   4.347   3.685  10.258  0.6182  1.0790 -1.1426
 7657TIP3    H247167   4.495   3.712  10.242  0.9039 -0.0035 -0.4223
 7658TIP3   OH247168   3.755   2.363   9.948  0.4558 -0.4000  0.7598
 7658TIP3    H147169   3.842   2.402   9.940 -0.6266  1.9115 -0.7146
 7658TIP3    H247170   3.755   2.323  10.035  2.5834  0.6124  1.2986
 7659TIP3   OH247171   0.296   2.004  10.311  0.7745  0.6344  0.1358
 7659TIP3    H147172   0.228   2.033  10.251 -1.1309 -1.3887  1.1268
 7659TIP3    H247173   0.372   1.987  10.256 -0.5032  0.0539 -1.5307
 7660TIP3   OH247174   0.442   1.796   9.842  0.3966 -0.7227 -0.1773
 7660TIP3    H147175   0.384   1.809   9.768 -0.7085 -2.9228  0.2192
 7660TIP3    H247176   0.385   1.801   9.919  1.1226 -0.7652  0.3787
 7661TIP3   OH247177   4.523   2.635  10.991  0.3596  0.1649 -0.1025
 7661TIP3    H147178   4.459   2.659  11.059  0.3683  1.0387 -0.3883
 7661TIP3    H247179   4.601   2.608  11.040 -0.7095 -2.4818  0.2909
 7662TIP3   OH247180   4.597   0.373  10.524 -0.4888 -0.2206 -0.1320
 7662TIP3    H147181   4.560   0.313  10.589 -1.7182  1.1264  0.4864
 7662TIP3    H247182   4.597   0.324  10.442 -1.4663 -1.0612  0.3476
 7663TIP3   OH247183   4.036   3.149  11.074 -0.3350  0.1349 -0.2275
 7663TIP3    H147184   4.082   3.182  11.152  1.2764 -0.0997 -1.0508
 7663TIP3    H247185   4.102   3.101  11.025 -1.3454  0.2050 -1.7250
 7664TIP3   OH247186   2.009   0.112  10.982 -0.2458 -0.6268  0.2691
 7664TIP3    H147187   2.014   0.134  11.075  0.6446 -2.3976  0.6701
 7664TIP3    H247188   1.926   0.064  10.974 -0.4638 -0.2222  0.0853
 7665TIP3   OH247189   3.507   2.842  11.313  0.5426 -0.0125  0.0374
 7665TIP3    H147190   3.463   2.921  11.282 -0.4624  0.0793  1.6108
 7665TIP3    H247191   3.461   2.770  11.269 -1.2072  0.0875  1.5714
 7666TIP3   OH247192   0.986   4.412   9.490  0.0909  0.3618 -0.3294
 7666TIP3    H147193   0.925   4.422   9.417  0.5847 -0.9568 -0.9550
 7666TIP3    H247194   1.071   4.439   9.454  0.0800  1.1577  0.2208
 7667TIP3   OH247195   3.441   2.121   9.150 -0.0760  0.4875  0.1505
 7667TIP3    H147196   3.424   2.161   9.065 -2.1546  0.4958  0.5261
 7667TIP3    H247197   3.536   2.106   9.151  0.0287  0.7018 -2.0592
 7668TIP3   OH247198   6.325   3.863  10.564  0.0649  0.2366  0.2542
 7668TIP3    H147199   6.231   3.851  10.550 -0.0094 -0.1915  1.0518
 7668TIP3    H247200   6.364   3.778  10.543  0.2340  0.3103  0.2627
 7669TIP3   OH247201   0.104   3.103  11.906 -0.3491  0.2665  0.2251
 7669TIP3    H147202   0.116   3.185  11.953  2.1820  0.5301 -0.7393
 7669TIP3    H247203   0.080   3.129  11.817 -0.0240 -0.0362  0.0431
 7670TIP3   OH247204   5.707   3.913   8.822  0.1462  0.2897  0.5691
 7670TIP3    H147205   5.755   3.877   8.747 -0.7376  1.0327 -0.3775
 7670TIP3    H247206   5.675   3.836   8.869  0.0348 -0.1832 -0.2631
 7671TIP3   OH247207   0.157   5.451  10.963  0.1088 -0.2651 -0.5588
 7671TIP3    H147208   0.163   5.405  11.046  0.1406 -0.5433 -0.7144
 7671TIP3    H247209   0.087   5.515  10.976  0.1790 -0.2409 -0.2882
 7672TIP3   OH247210   5.079   1.271  10.035  0.4380  0.4062  0.1888
 7672TIP3    H147211   5.084   1.203  10.102  2.1811  1.0870  0.8212
 7672TIP3    H247212   5.115   1.231   9.956  3.0646  0.9781  0.9826
 7673TIP3   OH247213   1.530   6.404   9.638  0.1247 -0.0580 -0.1576
 7673TIP3    H147214   1.493   6.375   9.721 -2.0342 -1.8756 -1.6535
 7673TIP3    H247215   1.480   6.483   9.616  0.3042  0.0900 -0.0486
 7674TIP3   OH247216   0.827   2.416  12.612 -0.1472 -0.5077  0.2661
 7674TIP3    H147217   0.838   2.449  12.701  1.1261 -0.8913  0.2757
 7674TIP3    H247218   0.898   2.353  12.601 -0.7796 -1.0696 -0.7478
 7675TIP3   OH247219   0.784   1.945  11.606  0.2249  0.0237  0.2921
 7675TIP3    H147220   0.736   2.027  11.610  0.6772  0.2699  0.9531
 7675TIP3    H247221   0.719   1.877  11.621 -0.1710  0.2489 -0.3779
 7676TIP3   OH247222   6.250   3.436   8.998  0.5030  0.6178 -0.9471
 7676TIP3    H147223   6.222   3.470   8.913  0.3627  2.0426 -0.3542
 7676TIP3    H247224   6.172   3.390   9.032 -0.4267  2.5232 -0.3518
 7677TIP3   OH247225   6.308   5.730  10.773 -0.5261 -0.0365  0.2521
 7677TIP3    H147226   6.397   5.737  10.805  0.0327 -0.9586 -1.0051
 7677TIP3    H247227   6.269   5.816  10.791 -0.3402 -0.5201  3.4229
 7678TIP3   OH247228   2.492   1.592   9.215  0.0951 -0.5907 -0.4931
 7678TIP3    H147229   2.526   1.645   9.288 -4.4966  0.5290  1.1433
 7678TIP3    H247230   2.514   1.502   9.238  2.4830  0.0407 -0.0407
 7679TIP3   OH247231   6.618   1.949  10.035  0.1844  0.0643 -0.0136
 7679TIP3    H147232   6.676   1.999   9.978  0.1280  0.6241  0.4058
 7679TIP3    H247233   6.642   1.858  10.020 -0.2200  0.1688 -1.3382
 7680TIP3   OH247234   2.660   2.621   8.945  0.1646 -0.4206 -0.3883
 7680TIP3    H147235   2.671   2.658   9.033 -0.6346 -0.0690 -0.4257
 7680TIP3    H247236   2.677   2.528   8.957  1.0257 -0.2252 -0.0536
 7681TIP3   OH247237   3.846   3.703   9.759 -0.0267 -0.3909  0.1804
 7681TIP3    H147238   3.826   3.649   9.836 -0.7771 -1.2517 -0.5927
 7681TIP3    H247239   3.926   3.665   9.724 -0.2589 -0.6670 -0.0549
 7682TIP3   OH247240   1.758   2.605  11.376 -0.6501 -0.3390  0.0496
 7682TIP3    H147241   1.683   2.612  11.436 -0.7825  0.3387 -0.1971
 7682TIP3    H247242   1.720   2.577  11.293 -0.5314 -0.7509  0.1317
 7683TIP3   OH247243   1.160   0.275  11.641  0.5700  0.0075  0.0487
 7683TIP3    H147244   1.098   0.290  11.712 -0.3216  0.5423 -0.8062
 7683TIP3    H247245   1.213   0.354  11.638 -0.7005  0.8631 -1.1181
 7684TIP3   OH247246   1.698   4.145   9.251 -0.1317  1.0864  0.1940
 7684TIP3    H147247   1.620   4.155   9.197  1.2125  2.2580 -1.6550
 7684TIP3    H247248   1.713   4.232   9.288 -0.1891  0.6526  1.2570
 7685TIP3   OH247249   1.456   1.202  11.958  0.2504  0.5671 -0.4622
 7685TIP3    H147250   1.413   1.182  11.875 -0.2148  0.6035 -0.2323
 7685TIP3    H247251   1.519   1.131  11.970  0.5206  0.7178 -0.9854
 7686TIP3   OH247252   5.937   4.681  10.354  0.1451  0.0941 -0.0380
 7686TIP3    H147253   5.954   4.740  10.427 -1.5213 -1.9718  2.1677
 7686TIP3    H247254   5.848   4.649  10.368  0.6586 -2.2958 -1.5362
 7687TIP3   OH247255   0.907   3.203  11.304 -0.5030  0.8401  0.4872
 7687TIP3    H147256   0.994   3.243  11.304 -0.3928  0.6114  0.0607
 7687TIP3    H247257   0.855   3.259  11.246 -0.2823  0.2407 -0.3090
 7688TIP3   OH247258   2.837   6.340  10.199 -0.4491  0.4191 -0.3286
 7688TIP3    H147259   2.744   6.360  10.196 -0.1000  2.0319 -1.3493
 7688TIP3    H247260   2.872   6.397  10.268 -0.0513  0.5113 -0.6040
 7689TIP3   OH247261   0.813   3.335   9.824  0.3836  0.2883  0.2216
 7689TIP3    H147262   0.905   3.358   9.809  0.9244 -1.6400  0.2824
 7689TIP3    H247263   0.779   3.313   9.738  0.7785 -1.5466  0.4817
 7690TIP3   OH247264   0.118   4.068   9.806 -0.0312 -0.2281 -0.1984
 7690TIP3    H147265   0.126   4.124   9.728  0.3318 -0.1410 -0.0967
 7690TIP3    H247266   0.208   4.050   9.832 -0.1228 -1.6784 -0.8166
 7691TIP3   OH247267   3.712   1.209  11.069  0.5275 -0.6873 -0.3843
 7691TIP3    H147268   3.807   1.217  11.060  0.5642 -0.5559  0.1140
 7691TIP3    H247269   3.678   1.238  10.984  1.0122 -2.8677 -1.3928
 7692TIP3   OH247270   4.618   3.849  10.214 -0.0386  0.2437  0.4640
 7692TIP3    H147271   4.702   3.878  10.176  0.1153  0.1466  0.7300
 7692TIP3    H247272   4.553   3.905  10.171  0.2266  0.8061  0.7764
 7693TIP3   OH247273   5.079   1.171  18.013  0.6432 -0.0308  0.4109
 7693TIP3    H147274   5.144   1.206  18.074  1.1765 -0.4484  0.0939
 7693TIP3    H247275   5.057   1.084  18.048 -0.6477  0.5722  1.1764
 7694TIP3   OH247276   4.972   6.154  10.338  0.4406  0.2834  0.5816
 7694TIP3    H147277   5.038   6.090  10.364 -0.8367 -1.3195  0.0636
 7694TIP3    H247278   4.990   6.171  10.245  0.8826  0.8446  0.7607
 7695TIP3   OH247279   6.371   3.188   8.759 -0.5559  0.3215 -0.5752
 7695TIP3    H147280   6.325   3.248   8.701 -1.9325  0.6916  0.8339
 7695TIP3    H247281   6.440   3.241   8.799  1.8322 -0.4462 -3.3466
 7696TIP3   OH247282   4.831   4.532   9.413 -0.1596 -0.2640 -0.6551
 7696TIP3    H147283   4.795   4.512   9.326 -0.3795 -0.8816 -0.4249
 7696TIP3    H247284   4.926   4.535   9.399 -0.1294 -1.3344 -0.7294
 7697TIP3   OH247285   3.668   3.979  10.301 -0.2324 -0.2319 -0.1089
 7697TIP3    H147286   3.673   4.056  10.357  3.1169 -0.2428 -0.2452
 7697TIP3    H247287   3.635   3.910  10.359 -2.2084  0.9441  0.2869
 7698TIP3   OH247288   0.703   6.391  10.369  0.2273  0.6867  0.4466
 7698TIP3    H147289   0.641   6.462  10.387  1.2143  1.6722  0.0568
 7698TIP3    H247290   0.787   6.435  10.358  0.7455 -0.4876 -0.4815
 7699TIP3   OH247291   1.955   5.441  10.992  0.0331 -0.0760  0.0137
 7699TIP3    H147292   1.862   5.456  11.012 -0.4497 -0.6771 -1.6253
 7699TIP3    H247293   1.958   5.351  10.959  1.1070  0.1326 -0.5051
 7700TIP3   OH247294   0.397   1.062   9.089  0.3452  0.2934  0.1191
 7700TIP3    H147295   0.368   0.986   9.038 -1.0626  0.2784  0.8897
 7700TIP3    H247296   0.462   1.105   9.033 -1.3783  0.4598 -1.8846
 7701TIP3   OH247297   2.822   0.546  10.776  0.1803  0.1174  0.5404
 7701TIP3    H147298   2.871   0.522  10.698 -1.3549 -2.3186  0.2221
 7701TIP3    H247299   2.867   0.500  10.847  0.9153  1.4545  0.9950
 7702TIP3   OH247300   2.335   1.769   9.074  0.3118  0.1330  0.2829
 7702TIP3    H147301   2.405   1.704   9.081 -1.4014 -1.6557  2.2604
 7702TIP3    H247302   2.329   1.808   9.161 -1.7002 -0.4478  0.4735
 7703TIP3   OH247303   1.227   6.088  11.579  0.6387 -0.0163 -0.0581
 7703TIP3    H147304   1.243   6.166  11.526  0.5278 -0.7210 -1.1597
 7703TIP3    H247305   1.197   6.122  11.663  2.3345  1.1894  0.1188
 7704TIP3   OH247306   2.051   2.528  11.999 -0.0622 -0.0588 -0.0889
 7704TIP3    H147307   2.060   2.512  12.093  2.1767 -0.7935 -0.3688
 7704TIP3    H247308   2.049   2.441  11.959  0.3067  0.2533 -0.8162
 7705TIP3   OH247309   0.154   5.863  11.970 -0.4627 -0.6794 -0.1130
 7705TIP3    H147310   0.182   5.775  11.946 -0.3627 -0.8689  0.6465
 7705TIP3    H247311   0.225   5.896  12.026  0.2483  0.4945 -1.6330
 7706TIP3   OH247312   5.903   3.521   9.857  0.1281  0.1445  1.0934
 7706TIP3    H147313   5.819   3.485   9.828  0.7102 -0.2647 -0.1441
 7706TIP3    H247314   5.880   3.603   9.902 -0.7957  1.2483 -1.2446
 7707TIP3   OH247315   6.032   2.754  11.474 -0.2419 -0.4071 -0.1348
 7707TIP3    H147316   6.056   2.727  11.386  1.3730 -0.3012  0.2389
 7707TIP3    H247317   5.939   2.736  11.480 -1.0407  2.1094 -2.7765
 7708TIP3   OH247318   5.893   1.304  10.048  0.1482 -0.2342 -0.8423
 7708TIP3    H147319   5.880   1.226  10.102  0.0202  0.3683  0.0250
 7708TIP3    H247320   5.963   1.280   9.987  1.0384 -0.6035  0.2954
 7709TIP3   OH247321   6.669   1.206  10.229  0.5889 -0.1484  0.6528
 7709TIP3    H147322   6.616   1.286  10.235  0.4052 -0.3038  1.1008
 7709TIP3    H247323   6.739   1.229  10.167 -0.0594  0.0194 -0.0352
 7710TIP3   OH247324   5.423   5.991   9.322  0.1699 -0.3645 -0.2051
 7710TIP3    H147325   5.482   5.924   9.288 -1.9670 -0.8858 -3.3409
 7710TIP3    H247326   5.469   6.073   9.309  0.7796 -0.8574 -1.2084
 7711TIP3   OH247327   6.352   5.913  10.978 -0.4334 -0.1034 -0.0732
 7711TIP3    H147328   6.275   5.952  10.936 -0.0414  2.8548  1.6424
 7711TIP3    H247329   6.424   5.973  10.957  0.2562  0.1369  2.5755
 7712TIP3   OH247330   3.293   6.637   8.977 -0.3191  0.4304 -0.1831
 7712TIP3    H147331   3.319   6.714   8.927  0.1577  0.6083  0.3246
 7712TIP3    H247332   3.360   6.628   9.044 -0.5857 -0.1976  0.0091
 7713TIP3   OH247333   5.019   4.195  10.209 -0.1213 -0.5694  0.3328
 7713TIP3    H147334   5.098   4.170  10.162 -0.2817  0.5824 -0.5986
 7713TIP3    H247335   4.991   4.115  10.254  2.2702 -0.6864  1.7506
 7714TIP3   OH247336   2.984   4.670  12.003 -0.0206 -0.0395  0.0477
 7714TIP3    H147337   2.980   4.592  12.058 -1.3369 -0.3088 -0.3884
 7714TIP3    H247338   3.077   4.692  11.999  0.3007 -1.1814  0.7276
 7715TIP3   OH247339   5.125   4.941  11.151  0.2639 -0.5373  0.5811
 7715TIP3    H147340   5.170   4.974  11.228 -1.5033 -1.8872  2.2933
 7715TIP3    H247341   5.129   4.846  11.158 -2.2907 -0.7308  0.5689
 7716TIP3   OH247342   0.841   6.162  10.859  0.4143  0.1876 -0.3477
 7716TIP3    H147343   0.880   6.075  10.852 -2.6767 -1.2994 -0.9371
 7716TIP3    H247344   0.844   6.196  10.769  0.3242  0.0613 -0.3993
 7717TIP3   OH247345   1.502   6.468  10.245  0.0696  0.8305  0.0123
 7717TIP3    H147346   1.551   6.504  10.171  1.0184 -0.2468  0.0899
 7717TIP3    H247347   1.504   6.538  10.310  1.8208  0.7097  0.1386
 7718TIP3   OH247348   1.771   3.904   9.326 -0.0149  0.1591 -0.8158
 7718TIP3    H147349   1.754   3.823   9.279 -1.2534 -0.1222  0.0468
 7718TIP3    H247350   1.720   3.970   9.279 -1.9442 -0.2741  0.4918
 7719TIP3   OH247351   2.337   5.527  10.320 -0.2477  0.5111 -0.5162
 7719TIP3    H147352   2.299   5.506  10.234 -0.3416 -0.0407 -0.3450
 7719TIP3    H247353   2.414   5.472  10.326  0.4743  1.4644 -0.7622
 7720TIP3   OH247354   5.734   3.447  11.806 -0.1171 -0.3391 -0.5793
 7720TIP3    H147355   5.651   3.401  11.794  0.2889 -1.1679 -0.3082
 7720TIP3    H247356   5.783   3.392  11.867  0.0302  0.9353  0.4951
 7721TIP3   OH247357   0.327   4.646  10.763 -0.8709 -0.1336 -0.2312
 7721TIP3    H147358   0.314   4.577  10.698  0.0134 -1.3939  0.8474
 7721TIP3    H247359   0.413   4.625  10.802  0.7289  3.1099 -1.6555
 7722TIP3   OH247360   0.821   0.927  10.712  0.6477 -0.4505  0.2814
 7722TIP3    H147361   0.771   0.871  10.771  0.1886 -0.2333  0.1069
 7722TIP3    H247362   0.799   1.016  10.740 -0.2243 -0.3347 -0.7434
 7723TIP3   OH247363   3.138   5.915  10.256 -0.4366 -0.2592  0.4543
 7723TIP3    H147364   3.111   5.828  10.287 -0.5928  0.8907  4.0273
 7723TIP3    H247365   3.056   5.964  10.250 -0.1344  0.3083  0.8928
 7724TIP3   OH247366   4.953   0.067  11.389  0.0813 -0.3732 -0.4005
 7724TIP3    H147367   4.987   0.085  11.477 -1.7911  1.3638  0.0532
 7724TIP3    H247368   4.991   0.136  11.335 -2.0826  1.2380 -0.0008
 7725TIP3   OH247369   5.323   5.995  10.038 -0.0218  0.5296  0.3393
 7725TIP3    H147370   5.375   6.039   9.971  0.3304 -0.8975 -0.3626
 7725TIP3    H247371   5.277   6.066  10.083  1.2895  1.6964 -0.0795
 7726TIP3   OH247372   6.467   4.973  10.953 -0.4370 -0.0208 -0.1395
 7726TIP3    H147373   6.393   5.033  10.966  0.5997  0.8197  2.6988
 7726TIP3    H247374   6.481   4.973  10.858 -3.8265  0.0096 -0.7894
 7727TIP3   OH247375   5.851   4.281  11.284 -0.1536 -0.1601  0.0765
 7727TIP3    H147376   5.856   4.321  11.198 -2.5059 -0.9864 -0.5210
 7727TIP3    H247377   5.859   4.187  11.268  0.8850 -0.2377  0.9465
 7728TIP3   OH247378   4.745   3.677  10.664  0.0088 -0.3918 -0.2510
 7728TIP3    H147379   4.736   3.756  10.611 -0.1282 -0.1842  0.0808
 7728TIP3    H247380   4.665   3.627  10.648 -0.1859 -0.1687  0.0237
 7729TIP3   OH247381   6.366   3.771   8.784 -0.4383  0.1665 -0.6543
 7729TIP3    H147382   6.441   3.815   8.826  0.4459 -0.1833 -1.8298
 7729TIP3    H247383   6.299   3.839   8.779 -1.1867 -0.1446  2.6804
 7730TIP3   OH247384   2.529   3.048  10.998  0.1297 -0.3695 -0.1264
 7730TIP3    H147385   2.469   2.980  11.030  0.5664 -0.1579  1.2080
 7730TIP3    H247386   2.491   3.130  11.029  0.9262 -0.2093  0.4748
 7731TIP3   OH247387   3.687   3.119   8.991 -0.1159 -0.1517 -0.6220
 7731TIP3    H147388   3.684   3.033   8.950 -1.1462  0.1138 -1.1330
 7731TIP3    H247389   3.780   3.138   9.000  0.1241 -0.7877 -1.6424
 7732TIP3   OH247390   4.756   3.608  11.475  0.0551 -0.1749 -0.2125
 7732TIP3    H147391   4.851   3.604  11.484  0.3598  0.7000 -2.3381
 7732TIP3    H247392   4.724   3.626  11.563  1.7390 -1.6959  0.7803
 7733TIP3   OH247393   5.941   2.704   9.954  0.4636 -0.0952 -0.4890
 7733TIP3    H147394   5.958   2.611   9.938 -0.0891  0.2046 -3.3595
 7733TIP3    H247395   5.850   2.707   9.981  0.6632 -0.4226  0.2460
 7734TIP3   OH247396   1.267   2.279   9.492  0.2149 -0.2964 -0.2079
 7734TIP3    H147397   1.358   2.280   9.521  0.5993 -0.0778 -1.3615
 7734TIP3    H247398   1.229   2.202   9.535  1.6359 -1.9281 -1.7058
 7735TIP3   OH247399   1.181   4.895  11.547 -0.2766 -0.2343  0.0067
 7735TIP3    H147400   1.272   4.883  11.576 -1.0560 -1.6953  2.0635
 7735TIP3    H247401   1.163   4.987  11.562  0.6784 -0.0418  0.0714
 7736TIP3   OH247402   3.238   0.594   9.914  0.1680  0.7017 -0.5861
 7736TIP3    H147403   3.306   0.534   9.882  0.3597 -0.9894  2.5307
 7736TIP3    H247404   3.242   0.586  10.009 -1.9990  3.3470 -0.1350
 7737TIP3   OH247405   1.368   2.182   8.532 -0.2594 -0.2184  0.0805
 7737TIP3    H147406   1.426   2.256   8.517 -1.2937  0.4621 -0.7634
 7737TIP3    H247407   1.410   2.131   8.601  0.3332  1.3274  0.9017
 7738TIP3   OH247408   1.483   2.666  12.400  0.1737  0.0458  0.0274
 7738TIP3    H147409   1.472   2.572  12.416 -1.4696  0.1651 -0.2226
 7738TIP3    H247410   1.492   2.673  12.305  0.3040  0.1438  0.0474
 7739TIP3   OH247411   5.500   0.107  10.921 -0.1110  0.0335 -0.0395
 7739TIP3    H147412   5.486   0.099  10.826 -0.1469 -0.2596 -0.0081
 7739TIP3    H247413   5.556   0.033  10.944  1.3647  1.0677 -0.1224
 7740TIP3   OH247414   2.857   0.219  12.248 -0.3530 -0.5114 -0.0996
 7740TIP3    H147415   2.770   0.181  12.259 -0.5615  0.3579  1.5903
 7740TIP3    H247416   2.916   0.143  12.241 -0.7687 -1.2505  3.1171
 7741TIP3   OH247417   5.800   6.447  11.965 -0.1463  0.3250  0.2147
 7741TIP3    H147418   5.852   6.366  11.965 -1.6414 -0.6771 -0.8794
 7741TIP3    H247419   5.848   6.506  11.907  0.0927 -0.3782 -0.3222
 7742TIP3   OH247420   3.066   0.088  11.568  0.0502  0.6279 -0.2896
 7742TIP3    H147421   3.095  -0.003  11.582  1.5306  1.2693  1.1081
 7742TIP3    H247422   2.985   0.096  11.618  0.5868  0.4121  0.6266
 7743TIP3   OH247423   0.249   1.518   8.940 -0.1964 -0.0875 -0.4478
 7743TIP3    H147424   0.297   1.454   8.887  0.4649 -0.4279  0.5364
 7743TIP3    H247425   0.199   1.465   9.003  2.3196  0.3118  2.0842
 7744TIP3   OH247426   6.436   1.241   8.769  0.2797 -0.0098  0.7787
 7744TIP3    H147427   6.525   1.223   8.800 -0.2786 -2.5393  1.1167
 7744TIP3    H247428   6.448   1.266   8.677  1.2829 -2.1902  0.2394
 7745TIP3   OH247429   1.937   0.276  11.947 -0.3189 -0.7055 -0.7102
 7745TIP3    H147430   1.992   0.353  11.964 -1.1043 -0.2534 -0.1600
 7745TIP3    H247431   1.995   0.202  11.963  0.4391 -0.2382 -1.1960
 7746TIP3   OH247432   4.342   6.291  11.186  0.5895  0.1035 -0.1742
 7746TIP3    H147433   4.388   6.228  11.241  1.9744  0.9525 -0.3308
 7746TIP3    H247434   4.405   6.316  11.119 -1.2980 -1.5707 -2.7789
 7747TIP3   OH247435   0.342   4.133  11.558 -0.1409 -0.4504 -0.4478
 7747TIP3    H147436   0.327   4.208  11.500 -0.7880 -0.5357 -0.4000
 7747TIP3    H247437   0.328   4.168  11.646 -0.2352 -0.5795 -0.4119
 7748TIP3   OH247438   5.108   0.132  11.675 -0.6465 -0.5042 -0.3179
 7748TIP3    H147439   5.048   0.154  11.747 -0.6674 -0.0938 -0.4576
 7748TIP3    H247440   5.175   0.077  11.716 -1.7082 -1.9083 -0.3696
 7749TIP3   OH247441   3.310   5.611   9.395 -0.7152 -0.0182 -0.2273
 7749TIP3    H147442   3.251   5.674   9.353 -0.6794  0.2793  0.1620
 7749TIP3    H247443   3.295   5.529   9.348 -2.2487 -0.2193  0.5863
 7750TIP3   OH247444   2.411   3.984  11.109  0.2829  0.0296 -0.1466
 7750TIP3    H147445   2.428   4.028  11.193  1.8242  0.0500 -0.4544
 7750TIP3    H247446   2.432   3.892  11.126 -2.1467 -0.5278  0.2583
 7751TIP3   OH247447   5.797   4.009  11.473  0.1573  0.6339 -0.6370
 7751TIP3    H147448   5.781   4.103  11.469 -3.1145  0.2303  0.3355
 7751TIP3    H247449   5.751   3.973  11.397  0.0375 -0.3198 -0.1269
 7752TIP3   OH247450   2.836   3.059   9.446 -0.4996  0.2380  0.3658
 7752TIP3    H147451   2.839   3.081   9.539 -0.3648  0.5157  0.2975
 7752TIP3    H247452   2.828   3.143   9.402  1.6812  0.3067  0.0166
 7753TIP3   OH247453   5.121   5.701  10.150  0.1505 -0.0142  0.0309
 7753TIP3    H147454   5.059   5.763  10.187  0.1828  0.2136 -0.2885
 7753TIP3    H247455   5.133   5.634  10.218  1.2709  1.1087  0.9837
 7754TIP3   OH247456   2.391   6.629   9.523 -0.2221  0.1133  0.3164
 7754TIP3    H147457   2.467   6.615   9.466  0.9680  1.1318  1.6056
 7754TIP3    H247458   2.428   6.641   9.610 -1.9124  0.1576  1.0635
 7755TIP3   OH247459   6.177   1.196  11.331  0.2531 -0.3450 -0.3595
 7755TIP3    H147460   6.240   1.261  11.300  0.9514  0.0916  1.8270
 7755TIP3    H247461   6.103   1.248  11.363  0.6079 -0.6392  0.9552
 7756TIP3   OH247462   1.082   2.723  10.571 -0.0604 -0.1105  0.0356
 7756TIP3    H147463   1.154   2.664  10.546 -0.1528 -0.5523  0.8003
 7756TIP3    H247464   1.006   2.666  10.581 -0.8976  0.5241 -2.1446
 7757TIP3   OH247465   1.928   5.004  10.043  0.1838  0.2883 -0.4433
 7757TIP3    H147466   1.904   5.090  10.007 -0.8141  0.7072  1.1430
 7757TIP3    H247467   1.922   4.944   9.968 -2.9884  0.9017 -0.8252
 7758TIP3   OH247468   4.801   5.734  10.804 -0.7843 -0.2742  0.3671
 7758TIP3    H147469   4.778   5.646  10.833  1.4490 -1.2565 -0.6387
 7758TIP3    H247470   4.728   5.760  10.747 -0.3539 -2.5258 -1.3549
 7759TIP3   OH247471   6.097   3.675  11.193 -0.1363 -0.2687 -0.3480
 7759TIP3    H147472   6.060   3.588  11.211 -0.2011  0.1315  1.6587
 7759TIP3    H247473   6.143   3.699  11.273  1.4449  0.8001 -1.5122
 7760TIP3   OH247474   6.389   1.879  10.638 -0.3089 -0.3051 -0.1081
 7760TIP3    H147475   6.461   1.822  10.609  1.6674  1.9001  0.2507
 7760TIP3    H247476   6.328   1.819  10.682  2.0120 -2.0443  0.9319
 7761TIP3   OH247477   4.919   1.587  11.253 -0.8735 -0.1741  0.0591
 7761TIP3    H147478   4.877   1.502  11.267 -0.1710 -0.8579 -1.7103
 7761TIP3    H247479   4.866   1.629  11.186 -0.9514  0.6210  0.6013
 7762TIP3   OH247480   5.270   3.069   8.939 -0.1548  0.1209  0.7997
 7762TIP3    H147481   5.233   3.005   8.999 -0.9013  1.0976  1.4256
 7762TIP3    H247482   5.234   3.153   8.969  1.7564  0.9942  0.7781
 7763TIP3   OH247483   5.627   2.955   9.453 -0.8435 -0.0639  0.0872
 7763TIP3    H147484   5.550   2.901   9.473  0.0562 -1.1221  0.7807
 7763TIP3    H247485   5.685   2.897   9.404 -0.7368  0.9113 -0.9626
 7764TIP3   OH247486   3.699   4.197  11.925  0.2082  0.0254 -0.7953
 7764TIP3    H147487   3.706   4.170  11.834 -1.7419  0.0470 -0.9951
 7764TIP3    H247488   3.705   4.293  11.922 -0.7380  0.0793 -1.0079
 7765TIP3   OH247489   2.294   1.191  10.161  0.1196  0.0407 -0.1546
 7765TIP3    H147490   2.289   1.287  10.162  0.3033  0.0522  0.1352
 7765TIP3    H247491   2.288   1.167  10.254 -0.0552 -0.2359 -0.2393
 7766TIP3   OH247492   3.878   0.975   8.737 -0.1402 -0.3475  0.1539
 7766TIP3    H147493   3.972   0.989   8.746  0.0443 -0.9296 -0.6885
 7766TIP3    H247494   3.843   1.060   8.713  0.3209 -0.3363 -0.5189
 7767TIP3   OH247495   3.012   6.570   9.273  0.2405 -0.1118  0.3110
 7767TIP3    H147496   3.042   6.542   9.187  0.5576 -0.0643  0.4044
 7767TIP3    H247497   3.093   6.581   9.324  0.0568 -0.0961  0.5983
 7768TIP3   OH247498   6.248   5.513  11.999  0.0728  0.1877 -0.3747
 7768TIP3    H147499   6.326   5.504  11.944  1.4536 -0.5822  1.5964
 7768TIP3    H247500   6.240   5.607  12.013  0.3705  0.3072 -0.9378
 7769TIP3   OH247501   2.072   2.649   9.481  0.8710 -0.4982 -0.4399
 7769TIP3    H147502   2.071   2.574   9.540  1.0988 -0.8760 -0.9043
 7769TIP3    H247503   2.071   2.725   9.538 -1.0783 -0.8267  0.0169
 7770TIP3   OH247504   1.237   5.592  11.714 -0.7388 -0.1410  0.7850
 7770TIP3    H147505   1.275   5.646  11.644 -0.7620  0.1627  1.0030
 7770TIP3    H247506   1.228   5.652  11.788 -0.6947 -0.4660  1.0564
 7771TIP3   OH247507   0.099   4.787   9.192 -1.0490 -0.1626  0.0981
 7771TIP3    H147508   0.074   4.864   9.141 -1.4194 -0.2309  0.1697
 7771TIP3    H247509   0.068   4.807   9.281 -0.1437  0.0850  0.3644
 7772TIP3   OH247510   4.622   4.767   8.939  0.0501  0.1298 -0.4905
 7772TIP3    H147511   4.647   4.859   8.930  1.4811 -0.4086 -3.0462
 7772TIP3    H247512   4.704   4.723   8.964 -0.4658 -0.5655  0.0129
 7773TIP3   OH247513   4.208   5.051   8.975  0.4393 -0.2695 -0.8106
 7773TIP3    H147514   4.219   5.034   8.881  0.3728  1.2028 -1.1192
 7773TIP3    H247515   4.216   5.146   8.982  0.5881 -0.3834  0.7079
 7774TIP3   OH247516   1.558   5.848  10.044 -0.6924  0.5675 -0.5878
 7774TIP3    H147517   1.651   5.851  10.025 -0.6992  1.3431 -0.5498
 7774TIP3    H247518   1.541   5.758  10.070  0.3422  0.7648  0.8820
 7775TIP3   OH247519   4.247   3.974   9.789 -1.1167 -0.0152 -0.4054
 7775TIP3    H147520   4.208   4.016   9.866 -0.8189 -0.7758  0.1769
 7775TIP3    H247521   4.327   3.933   9.822  0.1933  1.4983 -1.5732
 7776TIP3   OH247522   2.228   4.749  10.588  0.4581  0.1375  0.0863
 7776TIP3    H147523   2.147   4.708  10.557 -0.6037  1.3100  1.1982
 7776TIP3    H247524   2.219   4.841  10.563  1.4844  0.2735  0.1831
 7777TIP3   OH247525   3.546   2.449  10.276  0.7207 -0.4935 -0.3984
 7777TIP3    H147526   3.576   2.509  10.208 -0.2934 -0.4207 -0.7973
 7777TIP3    H247527   3.553   2.499  10.357  1.6700 -0.4848 -0.4831
 7778TIP3   OH247528   4.568   1.332  10.002 -0.1692 -0.4076  0.8012
 7778TIP3    H147529   4.642   1.295  10.051  1.6679 -0.5981 -1.9092
 7778TIP3    H247530   4.518   1.256   9.973 -0.7486 -0.3348  1.5752
 7779TIP3   OH247531   5.412   2.099   9.919 -0.4775 -0.0388 -0.6202
 7779TIP3    H147532   5.466   2.156   9.973  0.5410 -1.3871 -0.1535
 7779TIP3    H247533   5.350   2.158   9.876  0.1195  1.3215  0.3163
 7780TIP3   OH247534   4.631   4.020   9.793  0.5213  0.1906 -0.1554
 7780TIP3    H147535   4.720   4.028   9.830  0.5021  2.7523 -0.5087
 7780TIP3    H247536   4.640   4.047   9.702 -0.9003  2.4116  0.2937
 7781TIP3   OH247537   3.066   4.164  11.629 -0.2233  0.0553  0.1772
 7781TIP3    H147538   3.131   4.209  11.575 -1.9811 -0.7933 -2.9008
 7781TIP3    H247539   3.043   4.227  11.697  0.7903  2.0017 -1.1837
 7782TIP3   OH247540   2.082   4.060   9.656 -0.1292 -0.4453 -0.4284
 7782TIP3    H147541   2.070   4.154   9.642  1.3851 -0.1840 -0.1663
 7782TIP3    H247542   2.031   4.018   9.586 -0.0441  0.5901 -1.1333
 7783TIP3   OH247543   4.762   4.324   9.575 -0.0676 -0.0603  0.1685
 7783TIP3    H147544   4.701   4.367   9.633  0.8358 -0.5283  1.5134
 7783TIP3    H247545   4.813   4.395   9.536  0.1693  0.2042  0.9400
 7784TIP3   OH247546   6.628   2.910  12.062 -0.4623 -0.5515 -0.5151
 7784TIP3    H147547   6.671   2.969  12.000 -0.5957 -1.5034 -1.5278
 7784TIP3    H247548   6.698   2.884  12.122 -0.3338  0.3647 -0.2413
 7785TIP3   OH247549   6.065   2.894  10.365 -0.0460 -0.9756 -0.3022
 7785TIP3    H147550   6.140   2.915  10.310 -1.0260 -0.1292 -1.3678
 7785TIP3    H247551   6.004   2.847  10.308 -1.0760 -0.0899  0.0198
 7786TIP3   OH247552   6.130   3.127  11.851 -0.4062  0.0064  0.0420
 7786TIP3    H147553   6.204   3.143  11.908 -1.6131  0.3844  1.5697
 7786TIP3    H247554   6.105   3.036  11.869 -0.3332 -0.1099 -0.4363
 7787TIP3   OH247555   4.026   4.265  10.227 -0.1576  0.1871  0.1233
 7787TIP3    H147556   3.979   4.208  10.166  1.6508  0.2052 -1.3989
 7787TIP3    H247557   4.006   4.354  10.197 -1.6556  0.3583  1.4798
 7788TIP3   OH247558   5.301   5.568   9.989  0.1341  0.1488 -0.1989
 7788TIP3    H147559   5.317   5.612   9.906  1.0949 -0.4964 -0.3696
 7788TIP3    H247560   5.238   5.624  10.034 -0.1977  0.6431 -1.2446
 7789TIP3   OH247561   6.267   4.521  10.586 -0.6831 -0.0885 -0.0533
 7789TIP3    H147562   6.211   4.486  10.516  1.0708 -0.0023 -1.5961
 7789TIP3    H247563   6.331   4.452  10.602 -0.9036  0.0056  1.3116
 7790TIP3   OH247564   5.448   0.657   9.553 -0.2374 -0.5439 -0.3142
 7790TIP3    H147565   5.536   0.620   9.554  0.2240  0.3938 -1.9091
 7790TIP3    H247566   5.393   0.587   9.519 -0.1978 -1.2529  1.0268
 7791TIP3   OH247567   1.626   2.394  12.219  0.5135 -0.4855 -0.2551
 7791TIP3    H147568   1.639   2.300  12.219  0.8525 -0.4570  1.4801
 7791TIP3    H247569   1.566   2.411  12.292 -0.3549  0.5626 -1.1500
 7792TIP3   OH247570   4.825   3.749   8.668  0.2156 -0.0206  0.2968
 7792TIP3    H147571   4.807   3.831   8.714 -0.7149 -0.2469  0.3569
 7792TIP3    H247572   4.902   3.767   8.614  0.4235  0.6850  0.8240
 7793TIP3   OH247573   0.704   4.057  10.748  0.4758 -0.2456 -0.0428
 7793TIP3    H147574   0.694   3.972  10.706  2.1403 -0.3622 -0.2575
 7793TIP3    H247575   0.626   4.106  10.722  0.5664 -0.9397 -1.7561
 7794TIP3   OH247576   4.802   5.500   9.388 -0.5823 -0.5087  0.1929
 7794TIP3    H147577   4.833   5.427   9.442 -1.0209 -1.8693 -1.3252
 7794TIP3    H247578   4.732   5.540   9.439  0.5330 -0.2854  1.6253
 7795TIP3   OH247579   3.649   5.430   8.633 -0.0227  0.4588  0.1704
 7795TIP3    H147580   3.567   5.474   8.655  0.9359  1.6669  1.4515
 7795TIP3    H247581   3.663   5.453   8.541 -1.0580  0.3030 -0.0485
 7796TIP3   OH247582   4.631   5.964   9.334  0.2971  0.2612 -0.2208
 7796TIP3    H147583   4.539   5.976   9.311 -0.6949 -1.2921  2.4726
 7796TIP3    H247584   4.671   5.928   9.254 -1.3869  0.9698 -1.4485
 7797TIP3   OH247585   3.998   3.279  10.496  0.2437  0.2950 -0.5401
 7797TIP3    H147586   4.059   3.300  10.566  0.0669  0.8701 -0.5579
 7797TIP3    H247587   4.032   3.326  10.419 -0.3258  0.7819 -0.5028
 7798TIP3   OH247588   5.191   1.031  10.863 -0.3283  0.9565  0.0726
 7798TIP3    H147589   5.244   1.106  10.891  0.8874  0.4550 -0.7968
 7798TIP3    H247590   5.192   1.035  10.768 -0.0146 -0.3040  0.0056
 7799TIP3   OH247591   3.554   5.686  11.404  0.6549  0.0019  0.7689
 7799TIP3    H147592   3.534   5.727  11.488 -1.2295  0.7595  0.0167
 7799TIP3    H247593   3.520   5.597  11.413 -0.3404  0.3460  0.5430
 7800TIP3   OH247594   3.599   3.089  11.072 -0.0034 -0.6243  0.1202
 7800TIP3    H147595   3.538   3.112  11.143 -0.5213 -1.2221 -0.1175
 7800TIP3    H247596   3.611   3.171  11.024  0.8297 -0.0654  1.2371
 7801TIP3   OH247597   4.970   4.220   9.246  0.2320  0.1272 -0.4234
 7801TIP3    H147598   5.058   4.200   9.214  0.1192 -0.4294 -0.4083
 7801TIP3    H247599   4.931   4.274   9.178  0.8599  1.0498 -0.0634
 7802TIP3   OH247600   2.169   0.532   8.930  0.0979  0.6322  0.8409
 7802TIP3    H147601   2.092   0.557   8.878 -0.4485 -0.4625  1.0942
 7802TIP3    H247602   2.172   0.436   8.924  1.2310  0.6323  1.1521
 7803TIP3   OH247603   4.522   3.621   9.609 -0.4796 -0.6990 -0.0317
 7803TIP3    H147604   4.616   3.638   9.598 -0.7100 -0.5791 -2.3516
 7803TIP3    H247605   4.494   3.684   9.676  1.1326 -0.9763  0.9451
 7804TIP3   OH247606   3.314   4.273  10.661  0.0766 -0.4325  0.1725
 7804TIP3    H147607   3.391   4.329  10.648 -0.2560  0.0992  0.4889
 7804TIP3    H247608   3.248   4.309  10.602 -0.6294  0.4479  1.4759
 7805TIP3   OH247609   4.447   1.675  11.636  0.1206  0.1791  0.4068
 7805TIP3    H147610   4.537   1.642  11.640 -0.7014 -2.4730 -0.8306
 7805TIP3    H247611   4.410   1.655  11.721  0.8834  2.0603  1.2323
 7806TIP3   OH247612   3.986   5.417   9.869  0.2126  0.3223  0.0271
 7806TIP3    H147613   3.974   5.492   9.811 -1.8593  0.0643  0.0377
 7806TIP3    H247614   3.901   5.408   9.914  1.4310 -0.0729  2.4003
 7807TIP3   OH247615   2.748   5.470   8.865 -0.4905 -0.1108 -0.0798
 7807TIP3    H147616   2.769   5.376   8.860 -2.9909 -0.7213 -0.4489
 7807TIP3    H247617   2.791   5.499   8.945  1.7070 -1.1461 -0.7948
 7808TIP3   OH247618   2.283   3.159   9.341 -0.2137  0.3655  0.4484
 7808TIP3    H147619   2.268   3.154   9.247  0.1163  0.5797  0.3854
 7808TIP3    H247620   2.377   3.150   9.351 -0.4119 -1.8768  0.9057
 7809TIP3   OH247621   1.995   3.604   9.299 -0.0225  0.1991 -0.3831
 7809TIP3    H147622   1.961   3.519   9.270 -1.8925  1.2989 -1.6026
 7809TIP3    H247623   2.015   3.651   9.218  1.4407  0.8082  0.2825
 7810TIP3   OH247624   1.821   3.147  10.830 -0.2958 -0.4481  0.4541
 7810TIP3    H147625   1.726   3.144  10.847 -0.9384  1.8778 -2.0545
 7810TIP3    H247626   1.833   3.097  10.749  0.9551 -2.0739  1.5727
 7811TIP3   OH247627   3.381   2.354  11.686  0.1330 -0.0787  0.1903
 7811TIP3    H147628   3.411   2.445  11.677 -0.9130  0.2383 -0.3119
 7811TIP3    H247629   3.315   2.357  11.755  0.7770 -0.6468  0.8428
 7812TIP3   OH247630   0.815   4.660  10.019  0.4115 -0.7366  0.2471
 7812TIP3    H147631   0.854   4.747  10.023  1.6247 -1.2296 -0.2970
 7812TIP3    H247632   0.833   4.630   9.929 -0.6325 -1.2577  0.1961
 7813TIP3   OH247633   4.755   1.135   9.497  0.1349 -0.3542 -0.0890
 7813TIP3    H147634   4.784   1.057   9.450  1.6669  0.7364 -1.0087
 7813TIP3    H247635   4.758   1.205   9.433 -1.2291  0.4965  0.7199
 7814TIP3   OH247636   6.398   4.064  10.391  0.6734 -0.1811 -0.0467
 7814TIP3    H147637   6.344   4.119  10.448  0.6581  1.0872 -1.2519
 7814TIP3    H247638   6.398   3.978  10.435  1.7270  1.0411  2.5455
 7815TIP3   OH247639   6.045   6.179   9.855  0.1881 -0.0329  0.1962
 7815TIP3    H147640   6.026   6.102   9.801 -2.0452 -0.0977  0.9399
 7815TIP3    H247641   6.006   6.252   9.807 -2.6661 -0.2119  1.9509
 7816TIP3   OH247642   6.159   1.949   9.717 -0.2974 -0.3915 -0.1982
 7816TIP3    H147643   6.124   1.888   9.782 -0.4332  0.7762  0.8587
 7816TIP3    H247644   6.228   1.996   9.763 -0.6168  0.6898 -0.7812
 7817TIP3   OH247645   3.521   1.981  10.176 -0.4513 -0.0344 -0.1671
 7817TIP3    H147646   3.528   2.047  10.246  0.2794  0.1741 -0.4255
 7817TIP3    H247647   3.609   1.976  10.140 -0.6801 -0.6177 -0.6474
 7818TIP3   OH247648   2.335   6.335  11.129 -0.3165  0.3099  0.2300
 7818TIP3    H147649   2.259   6.393  11.130  0.0799  0.8425  0.2684
 7818TIP3    H247650   2.328   6.285  11.210 -1.1353 -0.3333 -0.2260
 7819TIP3   OH247651   2.513   6.261   9.763 -0.3444 -0.2888  0.1326
 7819TIP3    H147652   2.424   6.229   9.773  0.0282 -0.9077  1.8290
 7819TIP3    H247653   2.539   6.233   9.676 -1.5227 -0.8092 -0.0716
 7820TIP3   OH247654   5.583   3.253   9.088  0.4027 -0.7712  0.5470
 7820TIP3    H147655   5.532   3.275   9.010  0.5914  0.6582  0.7922
 7820TIP3    H247656   5.674   3.247   9.057  0.8777  2.3460  0.9904
 7821TIP3   OH247657   5.866   3.313   9.052 -0.0288  0.3776 -0.6522
 7821TIP3    H147658   5.904   3.291   8.967 -0.8269 -0.3120 -0.8519
 7821TIP3    H247659   5.930   3.284   9.116 -0.8539 -2.2726 -0.9148
 7822TIP3   OH247660   0.815   5.578  11.623  0.5974 -0.0641  0.1137
 7822TIP3    H147661   0.743   5.559  11.684  1.3284 -0.2971  0.9411
 7822TIP3    H247662   0.877   5.629  11.675  1.3927 -0.5492 -0.3318
 7823TIP3   OH247663   5.325   2.133  10.736  0.2177 -0.5739 -0.3407
 7823TIP3    H147664   5.340   2.074  10.810  1.3187 -0.6968 -0.6313
 7823TIP3    H247665   5.322   2.220  10.775  0.7168 -0.6440 -0.1287
 7824TIP3   OH247666   4.883   3.458   8.977 -0.6947 -0.3578 -0.1096
 7824TIP3    H147667   4.894   3.469   8.882  1.5616  0.0771  0.1498
 7824TIP3    H247668   4.872   3.364   8.989  0.5619 -0.6115 -0.7157
 7825TIP3   OH247669   5.056   6.699   9.433 -0.0278  0.2644  0.2726
 7825TIP3    H147670   4.983   6.638   9.421 -0.6061  1.1075 -0.6371
 7825TIP3    H247671   5.049   6.761   9.360  0.2000  1.7615  1.4524
 7826TIP3   OH247672   2.670   5.069  10.277 -0.1581  0.3279 -0.5663
 7826TIP3    H147673   2.602   5.010  10.307  0.2117 -2.5142 -4.5812
 7826TIP3    H247674   2.632   5.113  10.200  1.8475  0.0502 -1.7926
 7827TIP3   OH247675   0.418   1.013  10.666  0.1492 -0.8164  0.0459
 7827TIP3    H147676   0.462   1.081  10.614  1.4568 -1.0150  0.8688
 7827TIP3    H247677   0.425   0.934  10.613  0.8504 -0.8615  0.2057
 7828TIP3   OH247678   3.210   5.585  10.125  0.4385 -0.1174  1.0884
 7828TIP3    H147679   3.225   5.679  10.113 -0.6067  0.0572  1.1017
 7828TIP3    H247680   3.176   5.578  10.214 -1.1272 -0.3031  0.4973
 7829TIP3   OH247681   4.351   6.586  11.552 -0.1990 -0.1536 -0.3780
 7829TIP3    H147682   4.371   6.606  11.460 -0.0197  1.2705 -0.0524
 7829TIP3    H247683   4.265   6.626  11.567 -1.5450 -2.7417 -0.6449
 7830TIP3   OH247684   1.959   3.920  12.810  0.7822 -0.2333 -0.0365
 7830TIP3    H147685   2.041   3.871  12.801 -0.0164 -2.6789  3.8141
 7830TIP3    H247686   1.894   3.853  12.830 -0.9983  2.1126  2.6183
 7831TIP3   OH247687   5.505   3.028  10.040 -1.0314 -0.1054 -0.0000
 7831TIP3    H147688   5.573   2.978  10.086  0.9829  0.7677 -1.8397
 7831TIP3    H247689   5.467   2.965   9.979 -1.9906 -0.6210  1.0928
 7832TIP3   OH247690   4.873   3.144  11.875 -0.3507 -0.2207  0.7246
 7832TIP3    H147691   4.843   3.221  11.828 -1.3007 -1.0390 -0.0476
 7832TIP3    H247692   4.825   3.147  11.958  0.2350  0.4380  1.0558
 7833TIP3   OH247693   3.683   3.934   9.919  0.1317  0.1492  0.2836
 7833TIP3    H147694   3.712   3.891   9.839  1.4910 -0.6287  1.1616
 7833TIP3    H247695   3.756   3.992   9.943  0.2490 -0.4867  1.5633
 7834TIP3   OH247696   4.151   5.604  11.599  0.1787  0.0055 -0.0727
 7834TIP3    H147697   4.111   5.672  11.545 -0.6000 -0.6810 -0.3880
 7834TIP3    H247698   4.078   5.567  11.649  0.5541 -0.6950 -0.0224
 7835TIP3   OH247699   6.422   6.679  10.557  0.5466 -0.4087  1.0254
 7835TIP3    H147700   6.357   6.694  10.488 -1.1337 -1.1974  2.3749
 7835TIP3    H247701   6.494   6.739  10.536 -0.2110 -0.1489 -1.0152
 7836TIP3   OH247702   1.976   5.678   9.075  0.2628  0.4699  0.2235
 7836TIP3    H147703   1.884   5.699   9.065  0.7418  2.7039  0.0831
 7836TIP3    H247704   1.983   5.645   9.165 -0.8237 -0.9367 -0.1598
 7837TIP3   OH247705   6.091   0.813  11.533 -0.1332 -0.0704 -0.3624
 7837TIP3    H147706   6.110   0.890  11.587  2.6012 -1.2466  0.5248
 7837TIP3    H247707   6.024   0.765  11.581  0.9909 -0.2047  1.1226
 7838TIP3   OH247708   0.311   0.884   9.337 -0.3860  0.1608  0.5128
 7838TIP3    H147709   0.296   0.879   9.243 -0.2608  0.7383  0.4582
 7838TIP3    H247710   0.372   0.958   9.348  1.2319 -1.1496  0.8493
 7839TIP3   OH247711   4.636   6.132  10.460  0.3979  0.1777  0.3034
 7839TIP3    H147712   4.698   6.205  10.458 -1.1370  1.5221 -1.1999
 7839TIP3    H247713   4.691   6.053  10.458  2.0500  1.3104 -1.0713
 7840TIP3   OH247714   2.285   4.000  12.692  0.3562 -0.2725 -0.1954
 7840TIP3    H147715   2.303   4.049  12.773  1.2506  0.4430 -0.7990
 7840TIP3    H247716   2.260   3.913  12.722  0.2924  0.0956  0.8689
 7841TIP3   OH247717   3.466   1.572  12.024  0.1681  0.3465  0.3058
 7841TIP3    H147718   3.384   1.622  12.020  1.4350  2.5800  0.2472
 7841TIP3    H247719   3.515   1.601  11.948  2.1035  1.1863  1.7744
 7842TIP3   OH247720   1.636   6.076  11.286  0.7758  0.2606 -0.6703
 7842TIP3    H147721   1.633   6.055  11.193 -0.8006  0.7936 -0.7627
 7842TIP3    H247722   1.613   6.169  11.290  1.1070  0.3104  0.2424
 7843TIP3   OH247723   5.841   1.583   9.061  0.3624  1.1707 -0.3070
 7843TIP3    H147724   5.906   1.651   9.045 -0.0763  1.2262 -2.0337
 7843TIP3    H247725   5.789   1.580   8.981 -1.0659  0.3560  0.6030
 7844TIP3   OH247726   5.857   2.193   8.740 -0.3508  0.4443  0.1396
 7844TIP3    H147727   5.905   2.273   8.720  1.7337 -0.5120  0.9880
 7844TIP3    H247728   5.875   2.176   8.832 -2.3690  0.0018  0.5066
 7845TIP3   OH247729   5.507   2.842  11.097  0.0157 -0.7685  0.4318
 7845TIP3    H147730   5.523   2.886  11.014 -0.4045 -0.0739  0.7166
 7845TIP3    H247731   5.506   2.749  11.074  0.8137 -0.6446 -0.1881
 7846TIP3   OH247732   4.480   1.706  10.589 -0.3042  0.2920 -0.2487
 7846TIP3    H147733   4.560   1.662  10.561 -0.7275  0.3628 -1.6895
 7846TIP3    H247734   4.508   1.772  10.651  0.6697 -0.1674 -0.1919
 7847TIP3   OH247735   5.781   0.852   8.661  0.1342 -0.3639  0.3505
 7847TIP3    H147736   5.727   0.811   8.729  3.1446 -0.3724  2.9727
 7847TIP3    H247737   5.741   0.825   8.579 -2.2965 -2.4449  2.0612
 7848TIP3   OH247738   4.238   5.304  11.634  0.1450  0.4791 -0.0345
 7848TIP3    H147739   4.297   5.374  11.661 -0.7366  2.0899 -1.9930
 7848TIP3    H247740   4.283   5.224  11.658  0.9936  1.6553  2.7496
 7849TIP3   OH247741   0.231   4.358  11.409  0.6114 -0.5175  0.1891
 7849TIP3    H147742   0.266   4.292  11.350  0.1220 -0.9027  0.3316
 7849TIP3    H247743   0.137   4.358  11.393  0.6476  0.4204 -0.0933
 7850TIP3   OH247744   1.065   5.893   9.144  0.3178  0.1584 -0.5186
 7850TIP3    H147745   1.153   5.931   9.142 -0.0931  1.3104  1.1902
 7850TIP3    H247746   1.073   5.819   9.205  0.8595 -1.9968 -3.0152
 7851TIP3   OH247747   3.246   3.950   9.615  0.5271 -0.6678 -0.5903
 7851TIP3    H147748   3.181   3.889   9.651  0.6250 -0.6568 -0.3904
 7851TIP3    H247749   3.299   3.975   9.691 -0.6742  1.1304 -0.2993
 7852TIP3   OH247750   5.483   0.185  11.185  0.3066 -0.9727 -0.3176
 7852TIP3    H147751   5.472   0.164  11.092 -3.2046 -1.3719  0.0661
 7852TIP3    H247752   5.462   0.104  11.231 -0.3589 -0.1574  0.8718
 7853TIP3   OH247753   4.017   1.909  10.862  0.1917  0.9065  0.0579
 7853TIP3    H147754   3.992   1.842  10.925 -2.3351  2.4144  0.8082
 7853TIP3    H247755   4.106   1.886  10.836  0.0498 -1.6977  1.5749
 7854TIP3   OH247756   6.310   0.350  10.005 -0.6240  0.2255  0.0158
 7854TIP3    H147757   6.292   0.386   9.919  1.0983  0.1617 -0.4167
 7854TIP3    H247758   6.225   0.344  10.048 -1.3897  1.1584 -1.3213
 7855TIP3   OH247759   1.483   6.491   9.166 -0.0742  0.4758 -0.0402
 7855TIP3    H147760   1.511   6.400   9.154  0.5279  0.6512 -0.0338
 7855TIP3    H247761   1.530   6.520   9.244 -1.1976  0.4338  0.6642
 7856TIP3   OH247762   3.412   6.657  10.714 -0.0600  0.0508 -0.2271
 7856TIP3    H147763   3.351   6.585  10.700 -0.2226 -0.0213  0.7899
 7856TIP3    H247764   3.357   6.736  10.708 -0.5263 -0.0667  1.9639
 7857TIP3   OH247765   1.308   1.248  10.384 -0.6976 -0.1627  0.4399
 7857TIP3    H147766   1.231   1.229  10.439 -0.9903  0.6282  0.3298
 7857TIP3    H247767   1.276   1.239  10.294 -1.0610  1.5089  0.3669
 7858TIP3   OH247768   5.582   0.594   9.272 -0.2067  0.1287  0.2110
 7858TIP3    H147769   5.620   0.543   9.200  1.1796  0.2542  0.8092
 7858TIP3    H247770   5.616   0.682   9.260 -0.1961  0.2196  0.8485
 7859TIP3   OH247771   1.158   5.586  10.951  0.2173 -0.1007  0.1790
 7859TIP3    H147772   1.165   5.561  11.043  3.0942 -1.2508 -0.2644
 7859TIP3    H247773   1.248   5.590  10.919 -0.6500  0.8785 -2.4579
 7860TIP3   OH247774   3.883   1.438   9.369  0.2970  0.1433 -0.5025
 7860TIP3    H147775   3.815   1.505   9.363  0.0959  0.0643  0.6863
 7860TIP3    H247776   3.839   1.356   9.349  0.0686  0.1079  0.1404
 7861TIP3   OH247777   3.194   1.455  11.847  0.3459 -0.3321  0.5880
 7861TIP3    H147778   3.273   1.498  11.814 -0.6244  0.0160 -1.4501
 7861TIP3    H247779   3.125   1.483  11.787 -1.1401 -1.4030  1.7316
 7862TIP3   OH247780   2.344   1.005   9.503 -0.0327 -0.3207 -0.2289
 7862TIP3    H147781   2.308   1.094   9.504  0.3535 -0.1217 -2.0006
 7862TIP3    H247782   2.271   0.950   9.529 -0.4759  0.4412  0.1912
 7863TIP3   OH247783   5.906   3.788  11.610  0.7924 -0.0895  0.4014
 7863TIP3    H147784   5.848   3.858  11.580 -2.5053 -2.3833  0.8869
 7863TIP3    H247785   5.971   3.779  11.540 -0.2815  1.6855 -0.9147
 7864TIP3   OH247786   1.646   1.392  10.246 -0.4181  0.1075 -0.0250
 7864TIP3    H147787   1.736   1.412  10.272 -0.5028  0.6423 -0.1363
 7864TIP3    H247788   1.605   1.478  10.232 -0.5473 -0.1480 -1.3422
 7865TIP3   OH247789   0.748   0.958  11.515 -0.4954  0.1835 -0.5488
 7865TIP3    H147790   0.797   0.958  11.598 -2.5657  0.8519  0.7567
 7865TIP3    H247791   0.750   1.049  11.486 -0.3372  0.0705 -0.8988
 7866TIP3   OH247792   1.413   0.749  11.627 -0.4056 -1.0893 -0.0759
 7866TIP3    H147793   1.500   0.766  11.661 -0.6977 -1.0579  0.6731
 7866TIP3    H247794   1.419   0.768  11.533  0.0537  0.2163  0.1973
 7867TIP3   OH247795   1.846   0.670  12.104  0.5930 -0.5775 -0.1483
 7867TIP3    H147796   1.794   0.743  12.139 -0.0951 -0.8192 -0.6440
 7867TIP3    H247797   1.842   0.603  12.172  1.2310 -0.1508  0.3107
 7868TIP3   OH247798   1.507   2.752   9.032  0.1563 -0.4634 -0.3998
 7868TIP3    H147799   1.439   2.788   9.088  0.4023  2.4032 -1.8056
 7868TIP3    H247800   1.460   2.698   8.968 -0.7628  0.8949 -0.9122
 7869TIP3   OH247801   3.102   0.823  10.940 -0.2186 -0.0433  0.2588
 7869TIP3    H147802   3.142   0.857  11.020 -1.9645  0.2214  1.0740
 7869TIP3    H247803   3.082   0.732  10.960 -0.2596 -0.1024 -0.0476
 7870TIP3   OH247804   4.580   6.690  11.697 -0.3693 -0.3905 -0.3758
 7870TIP3    H147805   4.545   6.617  11.646  2.2505 -1.0844 -1.3169
 7870TIP3    H247806   4.660   6.655  11.737  0.6403  1.7940 -0.3582
 7871TIP3   OH247807   3.075   6.293   9.584  0.0286  0.0059 -0.7029
 7871TIP3    H147808   3.167   6.301   9.609 -0.7977  0.0296  2.9254
 7871TIP3    H247809   3.077   6.266   9.492  3.5674  1.6162 -1.2451
 7872TIP3   OH247810   5.762   1.221  10.862 -0.0244 -0.4753  0.1540
 7872TIP3    H147811   5.743   1.204  10.769  3.3028 -1.9399 -0.3896
 7872TIP3    H247812   5.703   1.161  10.909 -2.3060  0.8256 -0.8625
 7873TIP3   OH247813   0.853   2.206   9.743 -0.1418  0.1789  0.3267
 7873TIP3    H147814   0.895   2.126   9.710 -0.8572 -1.0525  2.2324
 7873TIP3    H247815   0.838   2.188   9.836 -0.4406  2.5082  0.7869
 7874TIP3   OH247816   4.590   3.315   9.043  0.1223 -0.0660  0.3987
 7874TIP3    H147817   4.664   3.263   9.013  0.8831  0.9925  0.4062
 7874TIP3    H247818   4.602   3.401   9.003  0.1662  0.8301  2.2131
 7875TIP3   OH247819   4.228   5.936  10.682  0.5070  0.1479 -0.4399
 7875TIP3    H147820   4.203   5.853  10.640 -1.5593  0.8590 -0.7458
 7875TIP3    H247821   4.274   5.984  10.613 -0.4191  0.1986 -1.0427
 7876TIP3   OH247822   6.365   2.957   9.695  0.6928  0.0008  0.3549
 7876TIP3    H147823   6.442   2.904   9.674 -0.7878 -2.3794  0.6240
 7876TIP3    H247824   6.340   2.928   9.783 -0.8380  0.3123  0.0421
 7877TIP3   OH247825   2.381   5.917  12.078  0.1770 -0.3472 -0.1689
 7877TIP3    H147826   2.286   5.916  12.091  0.3954  0.4170  1.9288
 7877TIP3    H247827   2.408   6.005  12.104  1.2204  0.3941 -3.3484
 7878TIP3   OH247828   3.460   6.103  10.320  0.4504  0.0512 -0.3256
 7878TIP3    H147829   3.385   6.092  10.379  1.2841 -2.1414  0.4265
 7878TIP3    H247830   3.423   6.096  10.232 -0.3701  0.2208 -0.0035
 7879TIP3   OH247831   5.370   5.131  10.553 -0.2358 -0.5213  0.2859
 7879TIP3    H147832   5.319   5.076  10.494 -0.5751 -1.4657  1.4365
 7879TIP3    H247833   5.323   5.215  10.554 -1.5852 -1.2570  1.0409
 7880TIP3   OH247834   4.560   5.724  11.006  0.2721 -0.4755  0.2749
 7880TIP3    H147835   4.547   5.819  11.013  0.4178 -0.5367  1.9615
 7880TIP3    H247836   4.502   5.696  10.936 -0.0573  0.8156  0.0121
 7881TIP3   OH247837   1.019   2.045  10.795 -0.2060  0.8360  0.6180
 7881TIP3    H147838   1.022   1.987  10.718 -0.9765  2.1030 -0.4064
 7881TIP3    H247839   1.098   2.024  10.844  0.9442  0.8437 -1.1696
 7882TIP3   OH247840   0.922   5.397   9.063  0.9471  0.2196  0.5676
 7882TIP3    H147841   0.926   5.305   9.090 -0.2786  0.3230  1.1735
 7882TIP3    H247842   0.832   5.424   9.082  1.0717  1.3392 -0.3059
 7883TIP3   OH247843   6.286   0.296  10.386  0.6025 -1.2448  0.0679
 7883TIP3    H147844   6.334   0.358  10.441  0.3777 -0.8697 -0.1485
 7883TIP3    H247845   6.353   0.242  10.346  0.8395 -0.7904 -0.1513
 7884TIP3   OH247846   2.967   3.693  10.781 -0.3062  0.4377 -0.0814
 7884TIP3    H147847   3.021   3.665  10.855 -0.9419  0.0926  0.2619
 7884TIP3    H247848   3.029   3.701  10.708  0.1238 -0.5143  0.1605
 7885TIP3   OH247849   0.519   5.208   9.468 -0.5358 -0.3159  0.0058
 7885TIP3    H147850   0.613   5.200   9.480 -0.4047  1.1915  0.2244
 7885TIP3    H247851   0.503   5.182   9.377  0.0008 -1.1493  0.1463
 7886TIP3   OH247852   5.693   3.027  12.081  0.3529  0.1174  0.1383
 7886TIP3    H147853   5.720   2.977  12.158 -0.0966 -1.5348 -0.7165
 7886TIP3    H247854   5.725   2.975  12.007  0.2156  1.3308 -0.8011
 7887TIP3   OH247855   3.516   5.262   8.841 -0.5000 -0.0841 -0.3570
 7887TIP3    H147856   3.437   5.254   8.789  0.2217  0.1439 -1.5318
 7887TIP3    H247857   3.583   5.292   8.779  0.1869  1.0897  0.8826
 7888TIP3   OH247858   0.727   2.194  11.806  0.3705  0.0642 -0.0560
 7888TIP3    H147859   0.756   2.273  11.760  1.2961 -0.9261 -1.2734
 7888TIP3    H247860   0.766   2.200  11.892  2.0278  0.0554 -0.7739
 7889TIP3   OH247861   3.423   1.724  10.191  0.0035 -0.0607 -0.9112
 7889TIP3    H147862   3.458   1.813  10.191  0.7442 -0.3067  0.8024
 7889TIP3    H247863   3.448   1.688  10.106 -1.4323  1.7542 -2.1641
 7890TIP3   OH247864   6.420   4.609   9.587 -0.2771 -0.1196  0.5157
 7890TIP3    H147865   6.375   4.598   9.503 -2.4419 -1.2349  1.7439
 7890TIP3    H247866   6.448   4.521   9.612  0.1921  0.1724  1.0509
 7891TIP3   OH247867   0.069   0.787  10.819 -0.2359  0.0447 -0.0168
 7891TIP3    H147868  -0.010   0.738  10.798  0.4876 -0.9130 -0.5719
 7891TIP3    H247869   0.112   0.736  10.888  1.3491 -1.0711 -1.7183
 7892TIP3   OH247870   3.377   4.978   9.700 -0.1673  0.1309 -0.0083
 7892TIP3    H147871   3.316   4.958   9.629 -1.5840  0.0723  1.1635
 7892TIP3    H247872   3.330   5.040   9.755  0.7193 -0.1360  1.1013
 7893TIP3   OH247873   6.532   6.141  11.126 -0.0905  0.7121 -0.3545
 7893TIP3    H147874   6.445   6.162  11.094  0.0540  0.3708 -0.9728
 7893TIP3    H247875   6.580   6.224  11.120 -0.1135  0.6890 -0.8577
 7894TIP3   OH247876   2.156   4.216  10.247  0.6101  0.3308  0.1102
 7894TIP3    H147877   2.220   4.286  10.236  0.4110  0.5937  0.6225
 7894TIP3    H247878   2.087   4.237  10.185  0.4105  0.7540  0.4720
 7895TIP3   OH247879   6.496   5.847   9.032  0.3182 -0.0156 -0.1046
 7895TIP3    H147880   6.413   5.799   9.032  0.7573 -1.3302  4.5686
 7895TIP3    H247881   6.558   5.787   9.072  3.4129  1.2758 -2.5877
 7896TIP3   OH247882   3.054   0.312   9.455 -0.0467  0.0724 -0.3457
 7896TIP3    H147883   3.097   0.397   9.451 -0.5971  0.3534 -0.3788
 7896TIP3    H247884   3.018   0.298   9.368 -0.1361 -0.0970 -0.2846
 7897TIP3   OH247885   3.796   5.765  10.604  0.6752 -0.1560 -0.0840
 7897TIP3    H147886   3.733   5.827  10.568  0.0406  0.4107  1.8793
 7897TIP3    H247887   3.772   5.681  10.566  0.0211  0.4017 -0.9208
 7898TIP3   OH247888   3.232   5.209   8.761 -0.2476 -0.0644  0.3484
 7898TIP3    H147889   3.186   5.196   8.678 -0.7247 -1.0326  0.7457
 7898TIP3    H247890   3.206   5.134   8.814  1.9145 -0.7455  0.5300
 7899TIP3   OH247891   1.380   4.553  11.446 -0.7726  0.2988 -0.5909
 7899TIP3    H147892   1.473   4.568  11.463 -1.2710  1.3114  1.6580
 7899TIP3    H247893   1.376   4.464  11.411  1.2444  1.1709 -3.3766
 7900TIP3   OH247894   1.670   4.141  11.043  0.0148 -0.1072  0.0473
 7900TIP3    H147895   1.686   4.162  10.951 -2.5676  0.1619 -0.4158
 7900TIP3    H247896   1.588   4.187  11.064 -0.1570 -1.2428  2.0939
 7901TIP3   OH247897   3.877   3.360  10.957  0.6160  0.1447  0.1916
 7901TIP3    H147898   3.920   3.289  11.005  0.1142  0.1112  0.5901
 7901TIP3    H247899   3.950   3.409  10.918  1.0836  0.5682  1.5243
 7902TIP3   OH247900   4.506   4.232   9.314 -0.3614  0.6752 -0.4464
 7902TIP3    H147901   4.593   4.193   9.307  0.1714  1.8338 -0.6112
 7902TIP3    H247902   4.497   4.254   9.407 -1.4345 -1.4873  0.0123
 7903TIP3   OH247903   5.790   0.217  10.891  0.2111 -0.7862  0.6604
 7903TIP3    H147904   5.834   0.292  10.851  2.9714 -2.7213 -0.2525
 7903TIP3    H247905   5.707   0.210  10.844  0.0530  1.3883  0.5029
 7904TIP3   OH247906   4.377   4.198  10.536 -0.4718 -0.6314 -0.4139
 7904TIP3    H147907   4.431   4.234  10.466  0.4397 -0.2983  0.4345
 7904TIP3    H247908   4.363   4.272  10.595  1.5381 -1.6242  1.4313
 7905TIP3   OH247909   4.468   5.203  10.161 -0.3701 -0.0028 -0.3905
 7905TIP3    H147910   4.462   5.263  10.235 -2.2331 -1.4127  0.6907
 7905TIP3    H247911   4.498   5.258  10.088  0.3455  1.6848  1.0963
 7906TIP3   OH247912   0.299   0.523  11.407 -0.4154  0.4964 -0.3363
 7906TIP3    H147913   0.250   0.578  11.468  1.2500  2.2346 -0.4331
 7906TIP3    H247914   0.236   0.501  11.338 -1.5882  0.8360  0.6005
 7907TIP3   OH247915   6.504   3.846  20.084  0.4448 -0.1614  0.0230
 7907TIP3    H147916   6.596   3.873  20.084 -0.2393  2.4420 -1.0597
 7907TIP3    H247917   6.472   3.870  20.171  0.2274  1.2180 -0.4159
 7908TIP3   OH247918   1.604   5.570  11.769 -0.2219  0.2248 -0.2032
 7908TIP3    H147919   1.565   5.518  11.839 -0.1109  0.1049 -0.2308
 7908TIP3    H247920   1.614   5.657  11.807 -1.4900  0.5373 -0.5328
 7909TIP3   OH247921   0.456   0.581  10.508  0.0772  0.1454  0.3364
 7909TIP3    H147922   0.398   0.642  10.554  0.1775 -0.9426  1.9757
 7909TIP3    H247923   0.428   0.495  10.537  2.1586 -0.4403  0.7527
 7910TIP3   OH247924   3.781   5.812   8.821  0.1365 -0.1345  0.4460
 7910TIP3    H147925   3.746   5.836   8.906 -0.5375  0.5955 -0.0318
 7910TIP3    H247926   3.851   5.749   8.841 -0.6455 -0.7055  1.4735
 7911TIP3   OH247927   5.333   4.310   8.520  0.1278  0.1404 -0.1785
 7911TIP3    H147928   5.249   4.346   8.549  0.6076 -0.6058  2.3642
 7911TIP3    H247929   5.386   4.386   8.498 -0.1624  0.8039  1.3401
 7912TIP3   OH247930   1.206   2.791  10.061  0.3855  0.2101 -0.5269
 7912TIP3    H147931   1.203   2.886  10.052  1.1990  0.0699 -2.7980
 7912TIP3    H247932   1.277   2.775  10.124  0.6252  1.0792 -0.5650
 7913TIP3   OH247933   4.910   3.099  11.518  0.6885 -0.0273  0.1895
 7913TIP3    H147934   4.984   3.039  11.524  0.2974 -0.5633 -0.2049
 7913TIP3    H247935   4.876   3.104  11.607 -0.1316 -1.5214  0.0037
 7914TIP3   OH247936   0.962   4.394  11.506  0.4829  0.0323 -0.0487
 7914TIP3    H147937   1.039   4.340  11.521  1.3083  0.1670 -3.1200
 7914TIP3    H247938   0.997   4.483  11.494 -0.3797  0.4683  0.5850
 7915TIP3   OH247939   4.409   4.617   8.877 -0.5434 -0.7909 -0.2150
 7915TIP3    H147940   4.486   4.672   8.891  0.5166 -1.4305 -2.8020
 7915TIP3    H247941   4.335   4.671   8.905  0.7757 -0.1047  2.2180
 7916TIP3   OH247942   1.915   0.579   8.856 -0.5219 -0.3515 -0.6328
 7916TIP3    H147943   1.893   0.539   8.772  1.1173 -2.0709 -0.3261
 7916TIP3    H247944   1.876   0.521   8.922  1.2766 -1.1566 -0.1907
 7917TIP3   OH247945   4.031   2.273  11.184  0.0331  0.2913  0.1162
 7917TIP3    H147946   4.035   2.311  11.096  0.2777  1.6538  0.6840
 7917TIP3    H247947   4.021   2.349  11.242 -1.9836 -0.6841  1.1479
 7918TIP3   OH247948   2.923   5.547  10.056  0.8527 -0.0770  0.1418
 7918TIP3    H147949   3.016   5.571  10.062  0.6537  0.5751  0.7048
 7918TIP3    H247950   2.886   5.570  10.141 -0.1722  1.2021 -0.6209
 7919TIP3   OH247951   3.317   0.413   9.651 -0.1154 -0.4165  0.3636
 7919TIP3    H147952   3.349   0.392   9.563  0.1110 -1.4031  0.6696
 7919TIP3    H247953   3.227   0.444   9.636  0.0226 -0.2798 -0.2405
 7920TIP3   OH247954   2.225   3.710   9.797 -0.3107 -0.2225 -0.0364
 7920TIP3    H147955   2.136   3.738   9.818 -0.6192 -1.1152 -0.1493
 7920TIP3    H247956   2.217   3.665   9.713  0.5034  1.0288 -0.8182
 7921TIP3   OH247957   1.527   1.632  11.835  0.0447 -0.6736 -0.3409
 7921TIP3    H147958   1.541   1.682  11.916  0.0404 -0.3993 -0.5088
 7921TIP3    H247959   1.604   1.575  11.829  0.6506  0.1687 -0.7766
 7922TIP3   OH247960   2.498   1.916  11.542 -0.1312  0.3508  0.2184
 7922TIP3    H147961   2.564   1.849  11.525  1.4749  1.7110  0.7456
 7922TIP3    H247962   2.489   1.917  11.637 -2.1277 -0.8839  0.0791
 7923TIP3   OH247963   5.493   5.470   9.283  0.0344 -0.6721 -0.6094
 7923TIP3    H147964   5.476   5.423   9.365 -0.7045  2.1925  1.0504
 7923TIP3    H247965   5.587   5.488   9.285 -0.1400  0.2565  0.1909
 7924TIP3   OH247966   0.292   6.099  11.763  0.1592 -0.3225 -0.4990
 7924TIP3    H147967   0.380   6.090  11.727  0.2869  0.5203 -0.4007
 7924TIP3    H247968   0.264   6.008  11.779  0.7762 -0.6253 -1.0677
 7925TIP3   OH247969   2.557   1.573   9.829 -0.1253 -0.9958 -0.4388
 7925TIP3    H147970   2.598   1.600   9.911  0.6243 -0.7065 -0.8911
 7925TIP3    H247971   2.563   1.651   9.773  0.3220 -1.5051 -1.1165
 7926TIP3   OH247972   2.552   4.131  10.919 -0.2096 -0.5527  0.1271
 7926TIP3    H147973   2.645   4.126  10.941  0.2925 -2.4196 -2.0206
 7926TIP3    H247974   2.508   4.093  10.995  0.8255 -0.2063  0.9259
 7927TIP3   OH247975   2.088   0.557   9.187  0.0457  0.2907 -0.6166
 7927TIP3    H147976   2.077   0.487   9.251  0.9037  1.3625  0.7836
 7927TIP3    H247977   2.127   0.514   9.111 -0.5781 -0.9437 -0.2646
 7928TIP3   OH247978   3.662   1.578  11.820  0.7720  0.1040  0.1703
 7928TIP3    H147979   3.706   1.654  11.857  0.8538  0.0097  0.2656
 7928TIP3    H247980   3.714   1.503  11.850  0.5237 -0.0090  0.3153
 7929TIP3   OH247981   2.668   3.933   9.932  0.4201 -0.1109  0.5713
 7929TIP3    H147982   2.695   3.884  10.010 -1.2239 -0.6996  0.8135
 7929TIP3    H247983   2.595   3.883   9.897 -0.2924  1.3434 -0.0863
 7930TIP3   OH247984   2.329   0.548  11.762 -0.3803  0.0110  0.1130
 7930TIP3    H147985   2.383   0.471  11.779 -0.8915 -0.4706 -0.3686
 7930TIP3    H247986   2.239   0.516  11.770 -0.5971  0.6068  0.0970
 7931TIP3   OH247987   6.405   2.987  11.106  0.0409  0.4679 -0.1425
 7931TIP3    H147988   6.325   2.942  11.079  0.0756  1.7361 -2.6286
 7931TIP3    H247989   6.392   3.005  11.199 -1.0689 -2.2686  0.3389
 7932TIP3   OH247990   5.762   2.256  10.379 -0.6230  0.0748 -0.2586
 7932TIP3    H147991   5.761   2.290  10.290 -0.8906  1.3732  0.2121
 7932TIP3    H247992   5.669   2.246  10.402 -0.5652  0.1622  0.0200
 7933TIP3   OH247993   0.134   4.509   9.191 -0.0694  0.5473 -0.0880
 7933TIP3    H147994   0.132   4.602   9.169  0.7188 -0.1071 -3.5028
 7933TIP3    H247995   0.213   4.499   9.244  0.0903  1.7374 -0.0727
 7934TIP3   OH247996   4.267   2.604  11.679  0.1401 -0.3642  0.4012
 7934TIP3    H147997   4.266   2.580  11.771 -1.0857 -1.4292  0.1355
 7934TIP3    H247998   4.337   2.551  11.641  1.6887  1.1622  0.9311
 7935TIP3   OH247999   2.008   5.608  10.718  0.8685 -0.6505  0.4475
 7935TIP3    H148000   2.100   5.628  10.701  0.8162  0.3535  1.2165
 7935TIP3    H248001   1.984   5.668  10.789 -0.4841 -0.6251 -0.0100
 7936TIP3   OH248002   5.083   2.039   9.787 -0.1612 -0.2489  0.1171
 7936TIP3    H148003   5.015   2.064   9.725 -0.1572 -2.7034 -0.9666
 7936TIP3    H248004   5.155   2.100   9.769  0.2525 -1.5106 -3.1323
 7937TIP3   OH248005   1.643   3.622  11.286 -0.2521 -0.2786  0.2848
 7937TIP3    H148006   1.707   3.555  11.262  0.6230  0.5063  0.3878
 7937TIP3    H248007   1.687   3.676  11.352 -0.0142  1.8598 -1.5118
 7938TIP3   OH248008   2.895   2.440   9.800 -0.5215  0.0040 -0.5253
 7938TIP3    H148009   2.809   2.481   9.792 -0.2723  0.5245 -0.5772
 7938TIP3    H248010   2.950   2.507   9.840 -0.2503 -0.4873 -0.0588
 7939TIP3   OH248011   2.367   1.688  11.221  0.0154 -0.6296  0.8536
 7939TIP3    H148012   2.299   1.656  11.280 -0.3593 -1.3075  0.0800
 7939TIP3    H248013   2.448   1.650  11.254 -0.2503 -1.3467  0.6865
 7940TIP3   OH248014   2.531   4.035   9.345  0.2500  0.6159 -0.0241
 7940TIP3    H148015   2.574   4.116   9.372  1.1575 -0.3921  1.6833
 7940TIP3    H248016   2.588   3.965   9.377 -0.2106 -0.7305 -1.9438
 7941TIP3   OH248017   1.411   3.866   9.830  0.1809  0.2274  0.4868
 7941TIP3    H148018   1.475   3.794   9.832 -0.3727 -0.3110 -0.5419
 7941TIP3    H248019   1.385   3.873   9.739 -3.1086 -1.2792  1.1441
 7942TIP3   OH248020   0.859   6.041   9.864 -0.2563  0.2792 -0.5628
 7942TIP3    H148021   0.864   6.061   9.770  1.7388 -1.2959 -0.8628
 7942TIP3    H248022   0.913   6.109   9.905 -0.6462  0.6225 -0.6105
 7943TIP3   OH248023   2.629   6.338  10.422  0.3525 -0.4778 -0.0508
 7943TIP3    H148024   2.573   6.287  10.481  0.8759  0.2194  1.0717
 7943TIP3    H248025   2.572   6.406  10.388 -0.4649 -1.9710 -1.8715
 7944TIP3   OH248026   3.585   5.501  11.071  0.3467  0.1947 -0.1905
 7944TIP3    H148027   3.578   5.437  11.141 -0.7539 -0.2090 -0.6448
 7944TIP3    H248028   3.501   5.547  11.072  0.4598  0.4399 -0.9922
 7945TIP3   OH248029   1.707   1.789  12.837 -1.0131  0.2591  0.1137
 7945TIP3    H148030   1.709   1.705  12.791  2.3347 -0.4625  1.2696
 7945TIP3    H248031   1.662   1.771  12.919  0.6931 -0.8069  0.8678
 7946TIP3   OH248032   1.792   0.440   9.257  0.3892 -0.0733  0.4990
 7946TIP3    H148033   1.759   0.411   9.342  0.1740 -1.2474  0.0418
 7946TIP3    H248034   1.885   0.417   9.259  0.0939 -1.4208 -0.0918
 7947TIP3   OH248035   2.242   0.940  11.095  0.2511 -0.3306  0.4154
 7947TIP3    H148036   2.241   1.004  11.166  0.2816 -1.9359  1.9241
 7947TIP3    H248037   2.331   0.945  11.059  0.4898 -0.0935  1.0321
 7948TIP3   OH248038   5.216   1.303  12.290  0.3390  0.5002  0.1607
 7948TIP3    H148039   5.152   1.242  12.253 -0.1173  1.1439 -0.1300
 7948TIP3    H248040   5.171   1.344  12.364  1.2123 -0.7108  1.4189
 7949TIP3   OH248041   5.085   5.254   8.854 -0.3711  0.1979  0.2240
 7949TIP3    H148042   5.167   5.248   8.903 -0.8428  1.3083  1.1856
 7949TIP3    H248043   5.022   5.203   8.906 -0.3724 -0.4238 -0.3689
 7950TIP3   OH248044   1.270   0.550   9.192 -0.2544 -0.1219 -0.6822
 7950TIP3    H148045   1.176   0.534   9.184 -0.3782  0.4497 -0.4046
 7950TIP3    H248046   1.308   0.462   9.196 -0.7497 -0.3600 -1.0414
 7951TIP3   OH248047   0.921   6.692   9.288 -0.9335  0.1418 -0.2451
 7951TIP3    H148048   0.954   6.609   9.253  1.2205  0.4309  0.9884
 7951TIP3    H248049   0.855   6.666   9.352 -0.4801 -0.6081 -0.0728
 7952TIP3   OH248050   5.794   5.528   9.277  0.1686 -0.5105  0.1823
 7952TIP3    H148051   5.856   5.600   9.290  1.7184 -2.0676  2.0190
 7952TIP3    H248052   5.849   5.453   9.255 -1.4377 -1.1267 -2.1194
 7953TIP3   OH248053   5.116   6.363  11.012  0.9766  0.1113 -0.3232
 7953TIP3    H148054   5.109   6.269  10.998 -0.0199  0.3787 -1.8319
 7953TIP3    H248055   5.209   6.382  10.999  1.8784 -1.0678  3.2382
 7954TIP3   OH248056   1.323   2.123  10.697  0.5321 -0.1401  0.2403
 7954TIP3    H148057   1.402   2.153  10.742 -0.0099 -1.1818  2.0026
 7954TIP3    H248058   1.297   2.043  10.744 -1.8238  0.4223  0.0359
 7955TIP3   OH248059   0.824   5.454   9.389  0.0704  0.1728  0.1360
 7955TIP3    H148060   0.791   5.373   9.429  1.0866 -0.5231 -0.3887
 7955TIP3    H248061   0.761   5.473   9.319 -0.0273 -0.3283  0.0805
 7956TIP3   OH248062   5.370   4.384  10.998 -0.3396  0.4824 -0.1606
 7956TIP3    H148063   5.291   4.330  11.000 -0.3867  0.2952 -3.0959
 7956TIP3    H248064   5.338   4.473  11.010 -0.7947  0.2619  0.2822
 7957TIP3   OH248065   2.838   3.547  11.359  0.3882  0.5236 -0.3637
 7957TIP3    H148066   2.790   3.618  11.401 -1.2560  0.0480 -1.3581
 7957TIP3    H248067   2.850   3.576  11.269 -2.0467 -1.1788 -1.3451
 7958TIP3   OH248068   3.398   3.026   9.619  0.3655  0.2611  0.0229
 7958TIP3    H148069   3.470   3.073   9.662  0.6851 -0.0174 -0.2042
 7958TIP3    H248070   3.433   3.003   9.533  0.6236 -1.3883  0.5282
 7959TIP3   OH248071   1.675   5.579  10.599 -0.1163 -0.2145  0.5998
 7959TIP3    H148072   1.693   5.622  10.515 -0.4568 -0.7410  0.2525
 7959TIP3    H248073   1.719   5.495  10.593 -0.9024 -0.6363  0.5753
 7960TIP3   OH248074   4.877   1.790   9.717 -0.2052 -0.1701  0.0572
 7960TIP3    H148075   4.787   1.822   9.724 -0.0121  0.6045 -0.8489
 7960TIP3    H248076   4.868   1.696   9.703 -1.0552  0.3359 -3.5064
 7961TIP3   OH248077   5.323   4.619  10.181  0.2513  0.3379  0.2725
 7961TIP3    H148078   5.314   4.712  10.164  2.3123  0.8498  1.6960
 7961TIP3    H248079   5.234   4.584  10.172 -0.3204  2.1053 -1.8738
 7962TIP3   OH248080   5.241   3.249  10.487 -0.0421  0.1441 -0.4846
 7962TIP3    H148081   5.240   3.197  10.406  0.7146 -2.8694  1.2908
 7962TIP3    H248082   5.165   3.217  10.536  0.1279  1.1438  0.4553
 7963TIP3   OH248083   3.934   0.530  10.987 -0.1394 -0.5827  0.0552
 7963TIP3    H148084   3.958   0.623  10.990 -0.5120 -0.4958  0.4695
 7963TIP3    H248085   3.881   0.516  11.065 -0.5839 -1.0075 -0.3141
 7964TIP3   OH248086   3.542   1.776   9.242  0.1396  0.5183  0.1630
 7964TIP3    H148087   3.563   1.849   9.300  0.2324  0.9757 -0.4345
 7964TIP3    H248088   3.513   1.706   9.301  1.7284  0.4330  0.8890
 7965TIP3   OH248089   1.584   1.599  10.907  0.2876  0.0154  0.5421
 7965TIP3    H148090   1.603   1.593  10.813 -0.0530  0.1456  0.4615
 7965TIP3    H248091   1.500   1.555  10.917 -1.9693  3.7529  0.0365
 7966TIP3   OH248092   1.423   2.634  11.236 -0.2785  0.0094  0.0198
 7966TIP3    H148093   1.470   2.697  11.290  0.1045 -0.6620  0.4817
 7966TIP3    H248094   1.438   2.663  11.146  1.0300 -0.1930  0.1522
 7967TIP3   OH248095   0.923   2.749   8.740  0.3850 -0.2938  0.3707
 7967TIP3    H148096   0.871   2.679   8.778  2.0335 -1.4340  0.6303
 7967TIP3    H248097   0.918   2.736   8.646  0.0738 -0.2821  0.3847
 7968TIP3   OH248098   3.173   4.819  12.204  0.0903 -0.4232  0.2243
 7968TIP3    H148099   3.256   4.773  12.217  1.8636  2.2949 -0.6115
 7968TIP3    H248100   3.106   4.754  12.225  2.3999 -2.1339  3.0147
 7969TIP3   OH248101   6.409   2.243   9.297  0.0493 -0.2891  0.1638
 7969TIP3    H148102   6.470   2.169   9.295 -0.4908 -0.7395  0.2242
 7969TIP3    H248103   6.323   2.203   9.285 -0.5159  0.0340  2.7578
 7970TIP3   OH248104   4.019   3.521  10.800 -0.8193 -0.3596 -0.1841
 7970TIP3    H148105   4.106   3.519  10.839 -1.6405  2.7808  2.2141
 7970TIP3    H248106   4.034   3.553  10.711  0.4948  0.0574  0.1656
 7971TIP3   OH248107   4.589   5.652  11.648 -0.4987 -0.1955 -0.3446
 7971TIP3    H148108   4.681   5.627  11.640 -0.7121 -1.1214  0.0660
 7971TIP3    H248109   4.548   5.618  11.569 -0.4717  0.3104 -0.5785
 7972TIP3   OH248110   4.369   1.454  11.066  0.3588  0.1852  0.3131
 7972TIP3    H148111   4.329   1.541  11.072  1.9863  0.9052  1.9186
 7972TIP3    H248112   4.295   1.394  11.061 -0.8185  1.6288 -0.5739
 7973TIP3   OH248113   1.464   3.298  10.188 -0.0202  0.1137 -0.0792
 7973TIP3    H148114   1.504   3.233  10.130 -1.3841  0.4968 -1.5154
 7973TIP3    H248115   1.370   3.284  10.178 -0.2990  1.1356  0.9678
 7974TIP3   OH248116   3.429   2.257  10.058  0.2349  0.8982  0.0439
 7974TIP3    H148117   3.365   2.191  10.084  0.6403  0.1072 -0.8791
 7974TIP3    H248118   3.466   2.289  10.140  0.9481 -0.9599  0.5075
 7975TIP3   OH248119   3.239   0.362  10.836  0.6067  0.0954  0.7239
 7975TIP3    H148120   3.242   0.307  10.758 -1.2867  0.5113  0.3281
 7975TIP3    H248121   3.302   0.321  10.896  0.0138 -1.8835  0.0668
 7976TIP3   OH248122   1.370   3.762  10.962 -0.2585  0.3757 -0.3556
 7976TIP3    H148123   1.397   3.844  11.003  0.3672  0.7226 -1.4405
 7976TIP3    H248124   1.385   3.696  11.029  1.5855  0.8126 -0.2876
 7977TIP3   OH248125   0.318   0.929  10.159 -0.4785  0.1975 -0.1694
 7977TIP3    H148126   0.366   0.994  10.108 -1.2928  0.3726 -0.7269
 7977TIP3    H248127   0.228   0.933  10.126 -0.8095 -0.3708  0.6117
 7978TIP3   OH248128   0.698   0.644   9.272 -0.0600  0.9368 -0.5074
 7978TIP3    H148129   0.785   0.667   9.239  0.0438 -0.3031 -1.1594
 7978TIP3    H248130   0.692   0.688   9.357  1.3897  0.6823 -0.2408
 7979TIP3   OH248131   4.528   2.147  11.521 -0.1737 -0.4796 -0.2298
 7979TIP3    H148132   4.495   2.062  11.493 -0.5797 -0.6214  0.6323
 7979TIP3    H248133   4.600   2.166  11.462  0.4869 -1.8291  0.1056
 7980TIP3   OH248134   1.692   1.534   9.884  1.3614 -0.1507  0.3147
 7980TIP3    H148135   1.743   1.615   9.880  0.5884  0.3730  0.7396
 7980TIP3    H248136   1.739   1.479   9.947  1.8261  0.0084  0.1129
 7981TIP3   OH248137   2.592   1.579  11.319 -0.0422  0.5342 -0.7818
 7981TIP3    H148138   2.662   1.540  11.267  0.9675 -1.1358  1.5944
 7981TIP3    H248139   2.637   1.627  11.388 -1.2890  1.8701 -0.8529
 7982TIP3   OH248140   2.109   3.347   9.618  0.3557 -0.0848  0.1288
 7982TIP3    H148141   2.129   3.439   9.603  0.4040 -0.0669  0.3017
 7982TIP3    H248142   2.018   3.347   9.648  0.4664 -0.0629  0.4622
 7983TIP3   OH248143   2.408   2.454  11.121 -0.2603  0.4511 -0.0612
 7983TIP3    H148144   2.433   2.438  11.212  0.8368 -1.0385 -0.5752
 7983TIP3    H248145   2.322   2.494  11.126 -0.9789 -1.1585  1.5915
 7984TIP3   OH248146   4.775   4.647  10.729 -0.2745 -0.2592  0.0141
 7984TIP3    H148147   4.853   4.641  10.675  0.0875  3.6006 -0.2002
 7984TIP3    H248148   4.808   4.667  10.817 -0.9836 -1.3026  0.5378
 7985TIP3   OH248149   5.234   5.701   9.733  0.0687 -0.2918 -0.2177
 7985TIP3    H148150   5.216   5.649   9.655 -2.1455  1.1520 -0.7377
 7985TIP3    H248151   5.297   5.767   9.703 -1.3817  0.7621 -1.0524
 7986TIP3   OH248152   1.618   3.317  12.124  0.3914  0.0876  0.0683
 7986TIP3    H148153   1.548   3.275  12.175  0.0790  1.3163  0.6930
 7986TIP3    H248154   1.633   3.258  12.050 -1.8104  0.1364 -0.4850
 7987TIP3   OH248155   4.181   3.474  11.175  0.2741  0.0848  0.4802
 7987TIP3    H148156   4.087   3.487  11.166  0.3737 -0.5261 -2.8785
 7987TIP3    H248157   4.210   3.545  11.233 -2.1609  0.5230  1.2637
 7988TIP3   OH248158   2.316   0.211  11.940 -0.0831 -0.3194 -0.1798
 7988TIP3    H148159   2.345   0.245  12.024 -0.2576 -1.0522  0.1812
 7988TIP3    H248160   2.235   0.165  11.959  0.8637 -2.1633 -0.3890
 7989TIP3   OH248161   1.493   4.329  11.702  0.2480 -0.0292  0.8834
 7989TIP3    H148162   1.549   4.288  11.637  0.4906 -1.7614  2.1042
 7989TIP3    H248163   1.541   4.406  11.731  0.3602  0.4737 -0.5747
 7990TIP3   OH248164   6.041   2.955  10.868  0.3651  0.1331 -0.5638
 7990TIP3    H148165   6.107   3.023  10.883 -0.2181  0.6635 -0.3395
 7990TIP3    H248166   6.041   2.942  10.773  1.2500 -0.3493 -0.5072
 7991TIP3   OH248167   1.438   5.820  12.178 -0.4232 -0.1569 -0.9358
 7991TIP3    H148168   1.444   5.910  12.212 -0.7940 -0.5590  0.2372
 7991TIP3    H248169   1.347   5.795  12.193 -0.0363 -1.1368 -0.1673
 7992TIP3   OH248170   5.171   5.507  11.448 -0.1582 -0.2248  0.1166
 7992TIP3    H148171   5.132   5.464  11.524 -1.1112 -0.4737 -0.5021
 7992TIP3    H248172   5.258   5.467  11.441 -0.4716 -0.9928  0.4349
 7993TIP3   OH248173   1.908   6.320   9.262 -0.0767  0.1562  0.3144
 7993TIP3    H148174   1.888   6.227   9.260 -0.1714  0.1784  0.2288
 7993TIP3    H248175   1.983   6.327   9.321 -0.8809  0.1825  1.3627
 7994TIP3   OH248176   1.227   2.379  10.946 -0.1750 -0.2381 -0.2193
 7994TIP3    H148177   1.317   2.350  10.931 -0.0018  0.4418 -0.5548
 7994TIP3    H248178   1.173   2.314  10.901  0.1038 -1.0498  0.5869
 7995TIP3   OH248179   4.087   4.544   9.305  0.4753 -0.3136 -0.2553
 7995TIP3    H148180   4.034   4.468   9.281  1.5424 -1.7419  1.5454
 7995TIP3    H248181   4.151   4.509   9.368  0.1516  2.3362  1.7366
 7996TIP3   OH248182   5.632   6.331  12.150  0.2020 -0.0393  0.1126
 7996TIP3    H148183   5.701   6.279  12.192  0.2203  0.8974  1.3145
 7996TIP3    H248184   5.678   6.392  12.093  0.1862 -1.2173 -1.2224
 7997TIP3   OH248185   1.607   5.526   9.058  0.0357 -0.1743 -0.0002
 7997TIP3    H148186   1.542   5.579   9.104 -0.2755 -1.2284  0.8025
 7997TIP3    H248187   1.555   5.466   9.005  0.3521 -0.7639  0.3470
 7998TIP3   OH248188   3.937   0.658  11.234  0.3153  0.1571  0.1496
 7998TIP3    H148189   4.027   0.681  11.256  0.5798 -0.2231 -0.4966
 7998TIP3    H248190   3.910   0.723  11.170 -0.2974  0.9937  1.2289
 7999TIP3   OH248191   5.233   3.915  11.538 -0.3675 -0.0339  0.3425
 7999TIP3    H148192   5.265   3.829  11.566 -1.9679 -0.9341 -0.4049
 7999TIP3    H248193   5.310   3.960  11.504  0.7945 -0.5651  2.1121
 8000TIP3   OH248194   4.904   1.007  10.227  0.3851 -0.1573 -0.2963
 8000TIP3    H148195   4.849   1.003  10.149  1.1050  1.3300 -0.9154
 8000TIP3    H248196   4.960   0.929  10.221 -1.0762 -1.2819 -0.0415
 8001TIP3   OH248197   1.227   3.687   9.151  0.1980 -0.1825  0.4987
 8001TIP3    H148198   1.283   3.612   9.130  1.2376  1.1822 -2.0468
 8001TIP3    H248199   1.155   3.681   9.088  0.7939  1.4142 -0.3860
 8002TIP3   OH248200   3.682   4.349  11.496  0.2202  0.0525 -0.1415
 8002TIP3    H148201   3.647   4.438  11.503  1.0526  0.2870  1.3551
 8002TIP3    H248202   3.605   4.294  11.482 -0.2367  1.0582 -1.8542
 8003TIP3   OH248203   5.442   0.907   9.447  0.1051 -0.1766 -0.4922
 8003TIP3    H148204   5.435   0.818   9.481 -2.2477 -0.3564 -1.2379
 8003TIP3    H248205   5.535   0.927   9.452  0.7359 -2.7217 -0.4115
 8004TIP3   OH248206   1.075   4.220  11.880 -0.2470  0.3278  0.6578
 8004TIP3    H148207   0.991   4.265  11.872  1.0005  3.0360  1.7747
 8004TIP3    H248208   1.090   4.213  11.974  1.2165  0.7680  0.4716
 8005TIP3   OH248209   4.229   2.483  10.015 -0.1177  0.1235 -0.3698
 8005TIP3    H148210   4.165   2.550  10.040  0.0304  0.4926 -0.9689
 8005TIP3    H248211   4.176   2.411   9.980 -0.1794  0.6614 -1.4051
 8006TIP3   OH248212   4.593   4.134   8.991 -0.2994 -0.6742 -0.3547
 8006TIP3    H148213   4.531   4.204   8.971  0.0323 -0.0880  0.6146
 8006TIP3    H248214   4.539   4.063   9.027 -0.6470 -0.9714 -1.4358
 8007TIP3   OH248215   3.847   5.993   9.593 -0.8606 -0.2026 -0.1829
 8007TIP3    H148216   3.891   5.946   9.663 -2.5688  0.4243  1.3955
 8007TIP3    H248217   3.890   6.078   9.590 -2.5978  0.8827  2.2115
 8008TIP3   OH248218   5.287   5.884  11.280  0.0959  0.1174 -0.2854
 8008TIP3    H148219   5.284   5.915  11.371 -3.0030 -0.1989 -0.1545
 8008TIP3    H248220   5.352   5.814  11.281  0.0546  0.0404  1.7313
 8009TIP3   OH248221   2.011   0.982  11.303  0.2210 -0.6162  0.1986
 8009TIP3    H148222   2.040   0.906  11.253  1.5242  0.9811 -1.6268
 8009TIP3    H248223   2.089   1.038  11.310 -0.8895  0.9458  0.7246
 8010TIP3   OH248224   2.398   4.840  10.220  0.4844  0.4650 -0.1004
 8010TIP3    H148225   2.400   4.846  10.315  0.2259  2.0248 -0.1689
 8010TIP3    H248226   2.313   4.877  10.195  0.4053 -0.2289 -0.9229
 8011TIP3   OH248227   0.047   2.718  11.124 -0.2017  0.2645  0.1703
 8011TIP3    H148228   0.125   2.697  11.175 -1.1043 -0.3081  1.3877
 8011TIP3    H248229  -0.009   2.767  11.185 -1.5773 -0.9783 -0.0133
 8012TIP3   OH248230   5.698   4.648  11.623  0.3438 -0.4981 -0.7332
 8012TIP3    H148231   5.652   4.571  11.655  1.9706 -1.9204 -1.6841
 8012TIP3    H248232   5.755   4.616  11.553  0.8641  1.6137 -1.3637
 8013TIP3   OH248233   2.507   5.486   9.842  0.1918  0.2208  0.4590
 8013TIP3    H148234   2.545   5.560   9.795  0.4756  1.0221  1.9008
 8013TIP3    H248235   2.572   5.417   9.834 -0.6266 -0.3891 -2.0092
 8014TIP3   OH248236   5.919   4.937  10.621  0.1017 -0.6070 -0.0424
 8014TIP3    H148237   5.870   4.855  10.617 -0.4565 -0.2755 -0.0612
 8014TIP3    H248238   5.976   4.935  10.544  1.7426 -2.0022  1.1267
 8015TIP3   OH248239   3.709   5.949  10.111  0.5779  0.4184  0.3788
 8015TIP3    H148240   3.638   6.000  10.071  1.8180  1.9733  0.0460
 8015TIP3    H248241   3.732   5.885  10.044  1.0430  1.4684 -0.5155
 8016TIP3   OH248242   0.757   4.180  10.373 -0.3813 -0.1476 -0.3001
 8016TIP3    H148243   0.803   4.170  10.456 -0.9867 -1.5210 -0.0964
 8016TIP3    H248244   0.698   4.254  10.388 -1.4347 -1.1814  0.9885
 8017TIP3   OH248245   3.433   0.738  11.175 -0.4718 -0.0320  0.1252
 8017TIP3    H148246   3.397   0.823  11.149 -0.8250 -0.9188 -2.7194
 8017TIP3    H248247   3.364   0.697  11.227 -0.6732  1.0233  0.7170
 8018TIP3   OH248248   1.094   2.736  11.840  0.2042 -0.3456 -0.0825
 8018TIP3    H148249   1.044   2.771  11.767  2.9738  1.3681 -1.2945
 8018TIP3    H248250   1.033   2.677  11.885 -1.8829 -0.7904 -3.2169
 8019TIP3   OH248251   6.309   4.054  11.798 -0.2328 -0.3597  0.0688
 8019TIP3    H148252   6.300   4.147  11.816 -0.9838 -0.5971  1.0506
 8019TIP3    H248253   6.394   4.030  11.836 -0.5663 -0.2932  0.8901
 8020TIP3   OH248254   0.551   4.311   9.817 -0.4097  0.0779 -0.3834
 8020TIP3    H148255   0.542   4.342   9.907  3.7120  0.3850  0.1456
 8020TIP3    H248256   0.551   4.391   9.764 -2.9270 -0.1084 -0.7813
 8021TIP3   OH248257   3.317   3.212  10.193 -0.7048 -0.1313  0.0226
 8021TIP3    H148258   3.300   3.281  10.129  1.5336 -0.4238 -0.9620
 8021TIP3    H248259   3.371   3.254  10.260 -0.8068 -0.4924  0.3366
 8022TIP3   OH248260   1.048   0.990   9.914 -0.5388  0.1448 -0.4802
 8022TIP3    H148261   0.977   0.957   9.968  0.4166  1.9691  2.0831
 8022TIP3    H248262   1.032   1.084   9.909  0.9143  0.3879 -1.0581
 8023TIP3   OH248263   2.372   3.546  10.102 -0.0240  0.4320 -0.5569
 8023TIP3    H148264   2.388   3.631  10.143  0.5910 -0.4867  1.1486
 8023TIP3    H248265   2.444   3.491  10.131 -0.7630 -0.8665 -1.1221
 8024TIP3   OH248266   3.367   4.410   9.989 -0.1905  0.6409 -0.7666
 8024TIP3    H148267   3.420   4.489   9.978 -0.6602  1.2128  0.8447
 8024TIP3    H248268   3.315   4.426  10.068  0.4208 -1.6679  0.1956
 8025TIP3   OH248269   4.269   2.266  12.006 -0.0810 -0.0114  0.1462
 8025TIP3    H148270   4.232   2.354  12.011 -1.0692 -0.4540  1.3183
 8025TIP3    H248271   4.317   2.255  12.088 -0.9035 -0.9350  0.5306
 8026TIP3   OH248272   3.051   0.769  11.789  0.0159  0.4324 -0.0523
 8026TIP3    H148273   3.036   0.677  11.812 -1.3612  0.5783 -0.2954
 8026TIP3    H248274   3.107   0.802  11.859  1.2795 -0.8169 -0.4377
 8027TIP3   OH248275   1.925   0.467  10.730  0.3102 -0.1310 -0.3002
 8027TIP3    H148276   1.840   0.444  10.768  0.9789  0.0624  1.4078
 8027TIP3    H248277   1.960   0.385  10.697 -0.0055 -0.4301  0.1018
 8028TIP3   OH248278   5.731   5.418  10.383 -0.2283 -0.3306 -0.4852
 8028TIP3    H148279   5.761   5.413  10.293 -1.5358 -0.2819 -0.9464
 8028TIP3    H248280   5.713   5.327  10.407 -2.5704 -0.1361 -1.2633
 8029TIP3   OH248281   1.453   4.862  10.429  0.2121 -0.2401 -0.4473
 8029TIP3    H148282   1.372   4.859  10.479  1.4083  0.6000  1.6862
 8029TIP3    H248283   1.494   4.777  10.444  0.5964  0.0321  0.0875
 8030TIP3   OH248284   2.169   4.997  10.162  0.1463  0.1383  0.2308
 8030TIP3    H148285   2.160   5.000  10.258 -0.5056 -0.2477  0.1837
 8030TIP3    H248286   2.080   4.989  10.130  0.3951 -0.1215 -0.3988
 8031TIP3   OH248287   0.448   6.412   9.162 -0.5501 -0.7076 -0.0921
 8031TIP3    H148288   0.516   6.459   9.115 -1.7567  0.6820 -0.5042
 8031TIP3    H248289   0.496   6.348   9.215  1.0861  0.4358 -0.1152
 8032TIP3   OH248290   5.849   6.566   9.847  1.0358  0.0720  0.6109
 8032TIP3    H148291   5.877   6.650   9.881  0.4889  0.3062  0.4977
 8032TIP3    H248292   5.911   6.546   9.776 -0.4136  1.6950 -1.2311
 8033TIP3   OH248293   1.634   0.309  11.217  0.1983 -0.0563 -0.1799
 8033TIP3    H148294   1.719   0.269  11.234  1.2716  1.5476 -1.5039
 8033TIP3    H248295   1.591   0.248  11.157  0.9490 -0.2478 -0.5299
 8034TIP3   OH248296   4.474   1.235  11.933  0.0703  0.3752  0.1849
 8034TIP3    H148297   4.407   1.282  11.983 -0.3919 -1.0353  0.9615
 8034TIP3    H248298   4.509   1.170  11.995  0.6150 -0.3554 -0.8517
 8035TIP3   OH248299   5.561   3.149  10.493  0.1088  0.3495  0.2574
 8035TIP3    H148300   5.616   3.073  10.513 -0.0216  0.2581  0.2689
 8035TIP3    H248301   5.479   3.132  10.540  0.4409  0.9704  1.0929
 8036TIP3   OH248302   5.812   4.029  11.164 -0.6794  0.1430  0.3938
 8036TIP3    H148303   5.797   4.107  11.110 -0.4890  0.0744  0.2385
 8036TIP3    H248304   5.842   3.963  11.102  1.6004  0.6619  0.8394
 8037TIP3   OH248305   0.545   5.774  11.843  0.0890  0.3816  0.3178
 8037TIP3    H148306   0.595   5.702  11.880 -0.4778 -0.2237 -0.0672
 8037TIP3    H248307   0.563   5.770  11.749 -0.5307  0.2618  0.1978
 8038TIP3   OH248308   2.478   4.967  10.861  0.6787 -0.0124 -0.4001
 8038TIP3    H148309   2.505   4.991  10.950  1.8798  2.2688 -1.2971
 8038TIP3    H248310   2.508   4.876  10.851  0.3819 -0.3815  1.5388
 8039TIP3   OH248311   5.205   0.661   9.392 -0.3870  0.3038  0.3560
 8039TIP3    H148312   5.241   0.576   9.366 -1.3972 -0.3868  1.1171
 8039TIP3    H248313   5.209   0.714   9.312 -0.3070 -0.6520 -0.2972
 8040TIP3   OH248314   2.010   2.978  11.147 -0.4013  0.1417  0.1453
 8040TIP3    H148315   2.033   2.929  11.226 -0.1528 -2.7298 -1.5762
 8040TIP3    H248316   1.971   2.913  11.089 -0.3861  2.0798 -2.1937
 8041TIP3   OH248317   6.688   3.258   9.548 -0.0918  0.3255 -0.5284
 8041TIP3    H148318   6.611   3.203   9.541 -1.2987  1.6964  1.0797
 8041TIP3    H248319   6.724   3.261   9.459 -0.9694 -1.5909 -0.9872
 8042TIP3   OH248320   4.278   0.636  10.503 -0.1936 -0.2191 -0.4174
 8042TIP3    H148321   4.218   0.707  10.479  0.6044  0.6681  0.1302
 8042TIP3    H248322   4.223   0.558  10.508 -1.1435  0.4149 -0.7552
 8043TIP3   OH248323   6.302   0.962  11.423  0.2391  0.1347  0.3223
 8043TIP3    H148324   6.239   1.033  11.413  0.7266  0.7119  1.1603
 8043TIP3    H248325   6.266   0.907  11.493  0.3442  0.1029  0.3518
 8044TIP3   OH248326   3.115   5.362   9.029 -1.0177  0.1426  0.5496
 8044TIP3    H148327   3.036   5.411   9.050 -1.6972 -0.1778 -1.0470
 8044TIP3    H248328   3.099   5.330   8.940  0.3963 -0.9686  0.6675
 8045TIP3   OH248329   3.101   6.251   9.299 -0.3821 -0.1473 -0.2832
 8045TIP3    H148330   3.111   6.181   9.234 -1.1878 -1.0226  0.4960
 8045TIP3    H248331   3.114   6.332   9.250 -1.0039 -0.7818 -1.5496
 8046TIP3   OH248332   1.349   6.658  11.242 -0.4705  0.0063 -0.4075
 8046TIP3    H148333   1.387   6.726  11.298 -1.3487  0.7149 -0.6450
 8046TIP3    H248334   1.422   6.628  11.187  0.4766 -0.9161  1.2910
 8047TIP3   OH248335   1.370   3.156  11.905  0.3518 -0.0792 -0.1353
 8047TIP3    H148336   1.399   3.167  11.996  1.6832  1.0510 -0.6727
 8047TIP3    H248337   1.391   3.239  11.863 -2.1671  0.1913 -1.0171
 8048TIP3   OH248338   4.107   3.961  11.564 -0.9310  0.5262 -0.3299
 8048TIP3    H148339   4.111   3.992  11.655 -3.1172  1.5981 -0.5625
 8048TIP3    H248340   4.158   3.879  11.566  1.2253  1.7750  1.2554
 8049TIP3   OH248341   1.487   5.296   9.646 -0.0491  0.1898  0.6022
 8049TIP3    H148342   1.561   5.246   9.612  1.2368  1.8711  0.7448
 8049TIP3    H248343   1.461   5.352   9.573 -0.9717 -0.1404  0.6690
 8050TIP3   OH248344   2.283   1.437  10.098 -0.1005 -0.0062  0.3035
 8050TIP3    H148345   2.271   1.495  10.023 -1.5710 -0.9530 -0.2422
 8050TIP3    H248346   2.284   1.495  10.174 -0.0989  0.8497 -0.3440
 8051TIP3   OH248347   5.542   6.222  10.727  0.3700 -0.1564 -0.0826
 8051TIP3    H148348   5.488   6.193  10.653  0.0913 -0.5045  0.2547
 8051TIP3    H248349   5.513   6.167  10.800  1.5027 -0.6830 -0.0074
 8052TIP3   OH248350   0.831   3.079  12.040  0.4479 -0.0489  0.1724
 8052TIP3    H148351   0.874   3.122  12.114  0.8859  1.7296 -1.0434
 8052TIP3    H248352   0.776   3.147  12.002 -1.5976 -1.5810  0.1988
 8053TIP3   OH248353   0.643   4.173  12.072 -0.0243  0.3486  0.1576
 8053TIP3    H148354   0.626   4.267  12.061  1.4391  0.5580 -0.5122
 8053TIP3    H248355   0.715   4.169  12.134  0.4264 -0.2983 -0.3960
 8054TIP3   OH248356   0.038   4.545   9.548 -0.3322  0.2146  0.0883
 8054TIP3    H148357   0.027   4.583   9.461  0.5963 -0.5936 -0.3998
 8054TIP3    H248358  -0.023   4.594   9.603  0.3986  2.0396 -0.6227
 8055TIP3   OH248359   1.655   5.046  10.431 -0.8334 -0.6995  0.0288
 8055TIP3    H148360   1.619   5.134  10.422 -0.1637 -0.3562  0.5612
 8055TIP3    H248361   1.582   4.987  10.410 -1.8000 -0.0455  1.4172
 8056TIP3   OH248362   4.060   5.725  10.549  0.0259  0.3721  0.1136
 8056TIP3    H148363   4.035   5.673  10.625  0.7367  0.3491  0.3383
 8056TIP3    H248364   3.978   5.764  10.518 -0.6222 -1.3949 -0.4722
 8057TIP3   OH248365   0.062   0.699  11.252  0.4032  0.2348 -0.2256
 8057TIP3    H148366   0.104   0.774  11.294 -1.4064  1.9490 -1.2915
 8057TIP3    H248367   0.007   0.737  11.184 -0.6835 -2.0646 -0.7441
 8058TIP3   OH248368   2.536   1.891  11.821  0.0826  0.0235  0.0375
 8058TIP3    H148369   2.540   1.822  11.887 -1.2903 -0.5093 -0.3912
 8058TIP3    H248370   2.499   1.966  11.867 -2.1960 -0.7586 -0.3749
 8059TIP3   OH248371   2.744   3.776  10.926  0.7037 -0.8810 -0.0388
 8059TIP3    H148372   2.809   3.745  10.863  2.1801  1.0086  0.4605
 8059TIP3    H248373   2.716   3.862  10.892 -0.3307 -0.9353  0.6107
 8060TIP3   OH248374   2.121   0.454  12.087 -0.6491  0.3566 -0.2820
 8060TIP3    H148375   2.206   0.423  12.118 -0.6400 -0.5607 -1.1502
 8060TIP3    H248376   2.066   0.456  12.165 -0.1702 -0.2659  0.0827
 8061TIP3   OH248377   6.612   0.137  10.463  0.3151 -0.2725 -0.2618
 8061TIP3    H148378   6.656   0.187  10.395 -0.8368  0.2011 -0.6747
 8061TIP3    H248379   6.618   0.046  10.434  0.9826 -0.2082 -0.3274
 8062TIP3   OH248380   2.568   3.501  11.971 -0.0532  0.5417  0.6113
 8062TIP3    H148381   2.540   3.537  12.055  0.1836 -0.2600  1.0398
 8062TIP3    H248382   2.633   3.435  11.993  1.6201  1.7975 -0.3239
 8063TIP3   OH248383   2.951   5.373  11.681  0.0415 -0.5247 -0.3727
 8063TIP3    H148384   2.910   5.413  11.603 -0.1416  0.4949  0.2223
 8063TIP3    H248385   2.881   5.322  11.722 -0.5526  0.8554  0.3992
 8064TIP3   OH248386   1.351   6.332  10.951  0.2373  0.7789 -0.2439
 8064TIP3    H148387   1.434   6.343  10.905  1.1118 -2.4670  0.3060
 8064TIP3    H248388   1.286   6.324  10.881  0.7926  0.7474 -0.7632
 8065TIP3   OH248389   0.208   4.987  11.204  0.3717 -0.2689 -0.1920
 8065TIP3    H148390   0.273   4.980  11.133  1.7564  1.3330  0.8383
 8065TIP3    H248391   0.258   5.022  11.278 -1.2176 -1.1123  1.3398
 8066TIP3   OH248392   5.665   5.565  11.163 -0.1987  0.3029 -0.0949
 8066TIP3    H148393   5.692   5.502  11.229  1.2674  1.3311  0.3249
 8066TIP3    H248394   5.736   5.565  11.098 -0.4188  1.1419 -0.3538
 8067TIP3   OH248395   0.411   0.981  11.380 -0.4121 -0.1033  0.0379
 8067TIP3    H148396   0.432   0.888  11.382  0.2398  0.0470  0.6959
 8067TIP3    H248397   0.381   1.000  11.469  0.9492  0.6379  0.3603
 8068TIP3   OH248398   6.323   2.408   9.041 -0.1354  0.1119 -0.5367
 8068TIP3    H148399   6.308   2.399   8.947  0.0466  1.1674 -0.6731
 8068TIP3    H248400   6.384   2.482   9.049 -0.5460  0.3604  0.4356
 8069TIP3   OH248401   2.548   5.328  11.498  0.2771  0.0502  0.0617
 8069TIP3    H148402   2.551   5.346  11.592 -0.5337  0.1791  0.0716
 8069TIP3    H248403   2.527   5.413  11.459 -0.2490 -0.1749 -0.1575
 8070TIP3   OH248404   6.537   5.969   9.425 -0.1651 -0.2443 -0.5143
 8070TIP3    H148405   6.475   5.896   9.416 -0.4829  0.1246 -1.5043
 8070TIP3    H248406   6.621   5.934   9.397  0.3988 -1.1136  2.0439
 8071TIP3   OH248407   3.773   0.711   8.855  0.1627  0.1008  0.4450
 8071TIP3    H148408   3.853   0.762   8.842 -0.9352  1.6309 -0.6960
 8071TIP3    H248409   3.702   0.775   8.847 -1.2083 -1.2509  1.1833
 8072TIP3   OH248410   1.764   1.192  11.271 -0.1981  0.3594 -0.0136
 8072TIP3    H148411   1.707   1.139  11.328 -1.3679  0.4965 -1.0147
 8072TIP3    H248412   1.830   1.130  11.239 -1.0345 -0.3214 -0.4875
 8073TIP3   OH248413   4.271   3.464  10.907  0.1246 -0.2279 -0.8078
 8073TIP3    H148414   4.363   3.440  10.913  0.0577 -0.0798  1.8364
 8073TIP3    H248415   4.243   3.479  10.998 -1.7970  2.4513 -1.7076
 8074TIP3   OH248416   0.787   4.640  11.861 -0.0326  0.3440  0.0786
 8074TIP3    H148417   0.785   4.734  11.878 -0.0769  0.3505  0.0347
 8074TIP3    H248418   0.766   4.631  11.768  1.7233  0.4134 -0.3690
 8075TIP3   OH248419   0.391   4.724  11.456  0.7101 -0.0226  0.8626
 8075TIP3    H148420   0.381   4.658  11.524  0.0389 -0.2611  0.5423
 8075TIP3    H248421   0.422   4.802  11.502  0.9315 -0.3858  1.3296
 8076TIP3   OH248422   2.693   4.671  10.323  0.1329 -0.0966  0.1358
 8076TIP3    H148423   2.666   4.638  10.409 -1.1655  0.4434 -0.0458
 8076TIP3    H248424   2.629   4.636  10.262  0.5004  0.2969 -0.4835
 8077TIP3   OH248425   3.278   1.543  10.981 -0.6480 -0.0522  0.0857
 8077TIP3    H148426   3.359   1.592  10.998 -1.3683  0.8967  0.9085
 8077TIP3    H248427   3.306   1.468  10.929  0.8448 -0.0117  0.7692
 8078TIP3   OH248428   6.543   2.292  10.322 -0.3624  0.5281  0.2354
 8078TIP3    H148429   6.465   2.294  10.266 -0.0005  1.2279 -0.2531
 8078TIP3    H248430   6.590   2.372  10.300  1.0610 -0.4089 -0.2653
 8079TIP3   OH248431   2.523   5.233  10.569  0.2186  0.0932  0.0190
 8079TIP3    H148432   2.481   5.147  10.577 -0.2405  0.4208  1.6747
 8079TIP3    H248433   2.457   5.288  10.528  0.7929 -0.4920 -1.7713
 8080TIP3   OH248434   2.396   5.120   9.301  0.1744 -0.1887  0.2309
 8080TIP3    H148435   2.453   5.153   9.371  1.9486 -0.2835 -1.1083
 8080TIP3    H248436   2.315   5.095   9.346  0.7951  0.8942  2.0602
 8081TIP3   OH248437   6.139   5.014  10.804  0.0324  0.3632  0.3161
 8081TIP3    H148438   6.135   4.930  10.849  0.6400  0.5284  0.6926
 8081TIP3    H248439   6.064   5.013  10.744 -0.5521 -0.0237  1.0360
 8082TIP3   OH248440   0.697   1.078  11.231 -0.2160 -0.1980  0.7301
 8082TIP3    H148441   0.787   1.055  11.251 -0.2212  0.1052  1.1188
 8082TIP3    H248442   0.644   1.007  11.266 -0.2071  0.2016  1.5706
 8083TIP3   OH248443   1.944   5.373   9.441 -0.6927 -0.7179  0.0250
 8083TIP3    H148444   1.894   5.292   9.434 -0.1811 -1.1745  1.3879
 8083TIP3    H248445   1.999   5.361   9.518  1.8951 -0.3999 -1.6790
 8084TIP3   OH248446   6.312   1.657  10.354  0.1996  0.7741  0.2934
 8084TIP3    H148447   6.264   1.602  10.415  0.8701 -0.0218  0.1136
 8084TIP3    H248448   6.248   1.723  10.326 -1.8342 -2.0140 -2.3216
 8085TIP3   OH248449   3.067   3.533   9.743 -0.4329 -0.0006  0.0454
 8085TIP3    H148450   3.082   3.480   9.665 -1.7028 -0.2225 -0.0809
 8085TIP3    H248451   3.151   3.535   9.788  0.8874  1.7316 -2.2744
 8086TIP3   OH248452   1.060   3.210   8.968  0.4447  0.2080 -0.2932
 8086TIP3    H148453   0.984   3.156   8.946  0.9283 -0.6435  0.0899
 8086TIP3    H248454   1.133   3.148   8.974  0.7946  0.7370  1.3038
 8087TIP3   OH248455   4.481   0.134  10.635 -0.1775 -0.1951  0.3942
 8087TIP3    H148456   4.413   0.156  10.698 -1.2391 -2.0362 -0.0303
 8087TIP3    H248457   4.434   0.123  10.552  1.0516  1.1853 -0.5491
 8088TIP3   OH248458   2.660   2.826  11.442  0.6939 -0.3156 -0.4736
 8088TIP3    H148459   2.672   2.909  11.489  1.4458 -0.3319 -0.6240
 8088TIP3    H248460   2.706   2.838  11.359  0.3447 -0.6942 -0.7239
 8089TIP3   OH248461   0.810   4.472  12.352 -0.4200  0.0531  0.8460
 8089TIP3    H148462   0.715   4.459  12.351 -0.3477 -0.5135  0.6711
 8089TIP3    H248463   0.835   4.456  12.443 -0.5734  0.8813  1.0407
 8090TIP3   OH248464   4.282   3.257  10.148 -0.1244  0.2651  0.0212
 8090TIP3    H148465   4.212   3.282  10.208 -2.0759 -1.3241 -1.4175
 8090TIP3    H248466   4.244   3.270  10.061  1.9125  0.6795 -0.8646
 8091TIP3   OH248467   4.594   6.690  11.127  0.3998 -0.1427  0.1823
 8091TIP3    H148468   4.652   6.658  11.197  0.0731 -0.6713  0.2220
 8091TIP3    H248469   4.636   6.770  11.095 -0.0353  0.7400  1.7438
 8092TIP3   OH248470   6.153   5.996  10.816  0.3472 -0.0573  0.5219
 8092TIP3    H148471   6.102   6.076  10.802 -0.6119 -0.4910  1.3630
 8092TIP3    H248472   6.184   5.972  10.729 -0.5425  0.4539  0.0375
 8093TIP3   OH248473   1.063   4.066   9.364 -0.0471 -0.0497  0.6282
 8093TIP3    H148474   1.013   3.990   9.393 -0.4734  0.5533  1.4999
 8093TIP3    H248475   1.119   4.032   9.294 -0.7915 -0.9917  0.4681
 8094TIP3   OH248476   2.116   4.583  10.348  0.0852  0.2975  0.5792
 8094TIP3    H148477   2.137   4.676  10.351 -0.0125  0.3520 -0.3906
 8094TIP3    H248478   2.117   4.560  10.255 -1.3569 -0.3465  0.6980
 8095TIP3   OH248479   3.537   5.493  10.036  0.3736  0.0792  0.0581
 8095TIP3    H148480   3.443   5.508  10.046  0.6605  2.1922  0.0187
 8095TIP3    H248481   3.545   5.449   9.952 -0.7143 -2.0935  1.0145
 8096TIP3   OH248482   1.915   5.545  10.075 -0.1759 -0.2714  0.1460
 8096TIP3    H148483   1.918   5.508   9.987 -0.0952  1.2707 -0.5250
 8096TIP3    H248484   1.979   5.616  10.074 -0.7945  0.3314  1.1675
 8097TIP3   OH248485   0.425   4.195  10.289 -0.2069  0.0264 -0.0230
 8097TIP3    H148486   0.478   4.261  10.335 -2.9079  0.9200  2.1050
 8097TIP3    H248487   0.396   4.239  10.209 -1.7642  1.4554  1.2435
 8098TIP3   OH248488   2.063   1.426   9.825  0.0878 -0.7526  0.1904
 8098TIP3    H148489   2.087   1.333   9.833  1.3514 -0.7181 -2.1493
 8098TIP3    H248490   1.999   1.427   9.754 -1.7538 -0.0315  1.7855
 8099TIP3   OH248491   4.951   5.404  10.481 -0.0117  0.1620  0.1104
 8099TIP3    H148492   4.912   5.335  10.427  0.8608 -0.9601  0.8727
 8099TIP3    H248493   4.881   5.468  10.492 -1.8351 -1.9832  1.8089
 8100TIP3   OH248494   2.063   2.864  11.588  0.3039 -0.2914  0.0869
 8100TIP3    H148495   1.980   2.911  11.594  0.0266 -0.8465  0.7588
 8100TIP3    H248496   2.101   2.871  11.675  1.6494  1.1556 -0.5723
 8101TIP3   OH248497   2.712   3.193  10.037  0.1235 -0.5593 -0.0727
 8101TIP3    H148498   2.626   3.228  10.016 -0.2778 -0.6057  1.3657
 8101TIP3    H248499   2.698   3.139  10.115  1.1613 -1.9361 -0.7711
 8102TIP3   OH248500   5.600   3.616  11.091  0.2921 -0.2109 -0.0647
 8102TIP3    H148501   5.642   3.531  11.101 -0.3069 -0.5078 -0.0415
 8102TIP3    H248502   5.507   3.596  11.077  0.2378  0.4114 -0.6820
 8103TIP3   OH248503   5.836   4.998  11.371  0.3972  0.3505 -0.1146
 8103TIP3    H148504   5.812   4.919  11.322  2.1916  0.9032 -2.0435
 8103TIP3    H248505   5.814   5.070  11.313 -0.2715  1.2522  1.2117
 8104TIP3   OH248506   3.278   0.201   9.823  0.1978  0.1908  0.2981
 8104TIP3    H148507   3.372   0.188   9.829  0.0917 -0.1500  1.4869
 8104TIP3    H248508   3.268   0.283   9.775  1.1012  0.2765  0.2398
 8105TIP3   OH248509   5.092   1.253   8.969  0.1468 -0.0771 -0.5518
 8105TIP3    H148510   5.148   1.187   9.011 -0.7969  0.4787  1.7450
 8105TIP3    H248511   5.111   1.334   9.017 -0.7664  0.6797 -1.4367
 8106TIP3   OH248512   2.360   2.401  10.034 -0.3572  0.1865  0.2828
 8106TIP3    H148513   2.442   2.396  10.083 -0.2289  0.2683  0.0748
 8106TIP3    H248514   2.369   2.336   9.965  1.0841  2.7047 -2.0824
 8107TIP3   OH248515   5.965   4.055  10.410 -0.3422 -0.2306  0.2512
 8107TIP3    H148516   5.890   4.111  10.388  0.2463  0.3140 -0.4567
 8107TIP3    H248517   6.035   4.117  10.431  0.5597 -0.6465 -1.3235
 8108TIP3   OH248518   1.321   3.039  11.342  0.4444  0.4351  0.5071
 8108TIP3    H148519   1.279   3.122  11.364  0.2789  0.5479 -0.2082
 8108TIP3    H248520   1.387   3.062  11.277 -0.6800 -0.1970 -0.9092
 8109TIP3   OH248521   5.196   3.762  10.969  0.0247 -0.1769 -0.0718
 8109TIP3    H148522   5.186   3.773  10.874  0.8751 -2.3049 -0.4676
 8109TIP3    H248523   5.246   3.838  10.996 -0.0842  0.3932 -1.3701
 8110TIP3   OH248524   1.477   0.206  11.707 -0.4600 -0.0342  0.4351
 8110TIP3    H148525   1.570   0.209  11.687 -0.8059  0.6992 -1.1927
 8110TIP3    H248526   1.447   0.296  11.700 -1.5675 -0.4453 -0.5866
 8111TIP3   OH248527   3.754   2.266   8.776 -0.1661 -0.1243 -0.2217
 8111TIP3    H148528   3.668   2.281   8.816 -0.4449 -0.2775 -0.7526
 8111TIP3    H248529   3.737   2.266   8.682  0.0938 -1.9942 -0.3018
 8112TIP3   OH248530   3.772   1.838  11.356 -0.4716  0.5945  0.2818
 8112TIP3    H148531   3.813   1.916  11.318  2.0065 -1.2097 -1.0592
 8112TIP3    H248532   3.799   1.838  11.447  1.6088  0.1252 -0.2755
 8113TIP3   OH248533   6.505   1.115   9.292  0.6951  0.0290 -0.4354
 8113TIP3    H148534   6.479   1.204   9.268  2.4637  0.0175 -2.7600
 8113TIP3    H248535   6.429   1.061   9.272 -0.5210  0.9886  1.3247
 8114TIP3   OH248536   1.685   4.471  10.657  0.0783  0.0899 -0.0153
 8114TIP3    H148537   1.674   4.564  10.638 -0.2341  0.3753  1.4828
 8114TIP3    H248538   1.768   4.466  10.705 -0.4340 -0.2489  0.8554
 8115TIP3   OH248539   2.804   0.649   9.095  0.0340  0.2219 -0.7516
 8115TIP3    H148540   2.826   0.565   9.054 -1.7326 -0.1227 -1.0706
 8115TIP3    H248541   2.708   0.652   9.093 -0.1260  0.7275  2.2746
 8116TIP3   OH248542   0.492   2.504  11.697 -0.2328  0.0343  0.2184
 8116TIP3    H148543   0.509   2.472  11.786 -0.6252  0.8835  0.6073
 8116TIP3    H248544   0.515   2.597  11.699 -0.8020  0.2008 -0.4089
 8117TIP3   OH248545   4.317   4.356  10.292 -0.1113  0.0943  0.2535
 8117TIP3    H148546   4.323   4.421  10.362  0.2164  1.2981 -0.8358
 8117TIP3    H248547   4.224   4.336  10.285 -0.2211  0.4994  0.5637
 8118TIP3   OH248548   5.850   1.466   9.478  0.3654  0.3261  0.4052
 8118TIP3    H148549   5.792   1.505   9.412  0.9394  0.4748 -0.0180
 8118TIP3    H248550   5.854   1.531   9.547 -0.1321  0.2292  0.5311
 8119TIP3   OH248551   5.978   5.083   9.254 -0.1352 -0.1788 -0.0648
 8119TIP3    H148552   6.020   5.169   9.253 -2.9640  1.3474 -1.6154
 8119TIP3    H248553   6.017   5.036   9.181  1.1758 -0.0913  0.5615
 8120TIP3   OH248554   0.822   1.549  10.340  0.9540 -0.2875  0.3434
 8120TIP3    H148555   0.773   1.481  10.385 -1.0895  0.9712  0.1415
 8120TIP3    H248556   0.792   1.631  10.379  0.6085  0.7315 -1.8680
 8121TIP3   OH248557   3.040   0.556  10.260  0.3189  0.2258 -0.3188
 8121TIP3    H148558   3.055   0.649  10.239 -0.4594  0.0961 -1.6119
 8121TIP3    H248559   2.963   0.557  10.317  0.0927  0.3748 -0.6158
 8122TIP3   OH248560   4.906   6.688  17.908 -0.1740  0.2818  0.4533
 8122TIP3    H148561   4.843   6.743  17.863 -1.2607 -1.1606  0.1387
 8122TIP3    H248562   4.984   6.689  17.852 -0.8801 -0.0519 -0.5639
 8123TIP3   OH248563   0.375   3.088  11.631 -0.0106  0.6412  0.3653
 8123TIP3    H148564   0.465   3.120  11.635 -0.1864  1.0387  2.1172
 8123TIP3    H248565   0.325   3.161  11.594  0.0579  1.2705  1.4899
 8124TIP3   OH248566   5.113   4.679   9.554  0.6180 -0.4112 -0.2980
 8124TIP3    H148567   5.046   4.692   9.622 -0.3524  0.4664 -1.3895
 8124TIP3    H248568   5.196   4.680   9.602 -0.0448  0.1099  0.8891
 8125TIP3   OH248569   1.793   2.941  11.541 -0.1228 -0.2360  0.4479
 8125TIP3    H148570   1.738   2.865  11.521 -0.8857  0.1829  0.8801
 8125TIP3    H248571   1.735   3.000  11.589  0.8985 -0.0841  1.5622
 8126TIP3   OH248572   0.848   1.369  12.631  0.1283  0.0706 -0.0380
 8126TIP3    H148573   0.817   1.459  12.618  1.0534  0.5378  0.8822
 8126TIP3    H248574   0.817   1.322  12.553  1.5394  1.6797 -1.6680
 8127TIP3   OH248575   6.046   5.758  10.166 -0.1841 -0.2388 -0.7500
 8127TIP3    H148576   5.952   5.742  10.173 -0.3478  0.6349 -0.9065
 8127TIP3    H248577   6.084   5.715  10.243 -0.6287 -1.1669 -1.0280
 8128TIP3   OH248578   6.595   3.938   8.837 -0.0405 -0.4369  0.0209
 8128TIP3    H148579   6.629   3.991   8.765 -0.9591 -3.1739 -2.6302
 8128TIP3    H248580   6.672   3.894   8.872  0.4628  1.1551  1.0384
 8129TIP3   OH248581   3.046   3.752  10.279  0.3734 -0.1279  0.1884
 8129TIP3    H148582   3.073   3.669  10.320 -0.5408  0.5298  2.2520
 8129TIP3    H248583   3.002   3.725  10.198  0.0927 -1.6675  0.8124
 8130TIP3   OH248584   1.006   6.708  12.280  0.3148  0.1740  0.2009
 8130TIP3    H148585   1.061   6.772  12.234  0.1232  1.0896  1.2092
 8130TIP3    H248586   0.935   6.760  12.317 -0.1146 -0.7013  0.6233
 8131TIP3   OH248587   6.509   2.471  10.578  0.2968 -0.2039 -0.0528
 8131TIP3    H148588   6.546   2.384  10.569 -0.1831 -0.4602  0.3928
 8131TIP3    H248589   6.580   2.525  10.613  0.0948 -0.8369  1.4289
 8132TIP3   OH248590   6.037   0.183  10.400  0.0646 -0.1829 -0.2885
 8132TIP3    H148591   5.979   0.257  10.418  0.9603  0.6029 -0.5342
 8132TIP3    H248592   6.121   0.224  10.377  0.0769 -1.1968 -2.3010
 8133TIP3   OH248593   0.520   6.030  10.298  0.6682 -0.4159 -0.1973
 8133TIP3    H148594   0.473   6.111  10.278 -0.0345 -0.4637  1.0966
 8133TIP3    H248595   0.577   6.053  10.372  0.3136 -1.1272  0.3150
 8134TIP3   OH248596   4.676   5.253  18.149 -0.3230  0.1590  0.0168
 8134TIP3    H148597   4.766   5.270  18.120 -1.0080  1.9288 -1.2841
 8134TIP3    H248598   4.673   5.159  18.164  1.4494 -0.1058 -0.9833
 8135TIP3   OH248599   3.027   2.312   8.954 -0.1069  0.5846  0.1114
 8135TIP3    H148600   2.977   2.393   8.963 -2.4055 -0.9464  2.6158
 8135TIP3    H248601   3.041   2.282   9.043  1.2866 -1.4417 -0.7040
 8136TIP3   OH248602   3.465   6.013   9.237 -0.1834 -0.4568  0.1219
 8136TIP3    H148603   3.499   5.934   9.197  2.0487 -0.1017  1.1882
 8136TIP3    H248604   3.522   6.083   9.206 -1.3158  0.5572  0.2301
 8137TIP3   OH248605   3.749   2.843  10.279  0.0341 -0.3597 -0.4808
 8137TIP3    H148606   3.776   2.761  10.239  0.1462  0.1402 -1.4685
 8137TIP3    H248607   3.753   2.907  10.207  1.5252  0.8630  0.6130
 8138TIP3   OH248608   2.684   5.324   9.180 -0.3530  0.3439  0.3981
 8138TIP3    H148609   2.756   5.382   9.155 -0.3676  0.4348  0.5672
 8138TIP3    H248610   2.696   5.247   9.124  0.2976  0.0580  0.9108
 8139TIP3   OH248611   6.614   4.692  10.454  0.3725 -0.0318  0.2424
 8139TIP3    H148612   6.677   4.709  10.525  1.5580  2.3997 -1.2490
 8139TIP3    H248613   6.667   4.655  10.383 -0.3431 -0.1706 -0.2278
 8140TIP3   OH248614   3.243   3.951  12.312 -0.2375  0.0001 -0.4733
 8140TIP3    H148615   3.319   3.980  12.361  0.7667  0.0225 -1.9752
 8140TIP3    H248616   3.197   4.032  12.289 -0.3292  0.0351 -0.1700
 8141TIP3   OH248617   3.826   3.690  10.949 -0.0524  0.2152  0.7021
 8141TIP3    H148618   3.749   3.655  10.904 -0.3895  0.3067  1.1950
 8141TIP3    H248619   3.883   3.615  10.963  0.1753  0.2256 -0.0958
 8142TIP3   OH248620   0.019   1.201   8.804 -0.1544  0.2991 -0.5590
 8142TIP3    H148621   0.043   1.173   8.893 -1.2240 -1.2706 -0.7250
 8142TIP3    H248622   0.087   1.164   8.748  0.5187  1.2869 -0.4244
 8143TIP3   OH248623   1.507   3.067  11.149 -0.6064 -0.6363 -0.0145
 8143TIP3    H148624   1.495   3.135  11.083  1.4038  0.1096  0.3288
 8143TIP3    H248625   1.601   3.047  11.146 -0.9861 -2.7388  0.5441
 8144TIP3   OH248626   6.574   5.973  11.378  0.1391  0.6785 -0.1962
 8144TIP3    H148627   6.624   6.014  11.449  1.5520  0.8352 -1.2294
 8144TIP3    H248628   6.562   6.044  11.314  2.1019 -0.2846 -1.7450
 8145TIP3   OH248629   4.888   4.618  11.465 -0.5217  0.0505 -0.4041
 8145TIP3    H148630   4.834   4.548  11.428 -0.5413 -0.0725 -0.1428
 8145TIP3    H248631   4.977   4.598  11.435 -0.2814 -0.9311  0.9019
 8146TIP3   OH248632   0.475   6.240  11.394  0.2627 -0.4853 -0.2889
 8146TIP3    H148633   0.526   6.168  11.356  0.8374  0.7187 -1.9051
 8146TIP3    H248634   0.539   6.289  11.446  0.8548  1.0478 -2.3466
 8147TIP3   OH248635   2.700   1.617  11.755  0.6337 -0.0115  0.5555
 8147TIP3    H148636   2.607   1.637  11.744  1.0077  1.6194  0.1227
 8147TIP3    H248637   2.726   1.667  11.832  1.5629  1.0991 -0.4469
 8148TIP3   OH248638   3.364   1.205  11.724 -0.0350  0.0321 -0.4667
 8148TIP3    H148639   3.336   1.280  11.777 -1.0580  0.9856 -2.2338
 8148TIP3    H248640   3.458   1.200  11.737 -0.3271 -0.2829  1.9946
 8149TIP3   OH248641   5.258   5.342  10.147  0.1775 -0.3516  0.3452
 8149TIP3    H148642   5.314   5.401  10.098  0.1702 -0.6012  0.0325
 8149TIP3    H248643   5.230   5.393  10.223 -1.9693  1.0067 -1.2315
 8150TIP3   OH248644   6.287   1.562  12.500  0.0945 -0.1802 -1.3025
 8150TIP3    H148645   6.191   1.561  12.507  0.1639  0.3928  0.3246
 8150TIP3    H248646   6.316   1.592  12.587  1.8271 -2.6902 -0.9178
 8151TIP3   OH248647   4.967   3.851  11.487  0.5928  0.2594  0.4370
 8151TIP3    H148648   4.924   3.923  11.533 -0.2417 -1.0068  1.7261
 8151TIP3    H248649   5.058   3.854  11.518  0.6483  0.9446  0.2232
 8152TIP3   OH248650   5.767   5.997  10.985 -0.2991  0.2126 -0.0340
 8152TIP3    H148651   5.718   5.942  11.046  0.9126  0.0645  0.8605
 8152TIP3    H248652   5.834   5.938  10.949 -0.4025  0.5427 -0.7755
 8153TIP3   OH248653   2.030   1.125  11.733 -0.0452  0.4078 -0.0278
 8153TIP3    H148654   2.048   1.120  11.827  1.1585  1.1921 -0.1908
 8153TIP3    H248655   2.101   1.076  11.692 -1.0240 -0.6590 -0.5183
 8154TIP3   OH248656   3.785   0.434  12.456  0.1429 -0.1434 -0.1759
 8154TIP3    H148657   3.836   0.444  12.376  1.1589 -0.6534  0.3794
 8154TIP3    H248658   3.725   0.508  12.456 -0.3697 -0.5134 -1.7488
 8155TIP3   OH248659   1.620   4.303   9.952 -0.2602  0.6020  0.5268
 8155TIP3    H148660   1.672   4.275   9.877 -1.6141  0.8615 -0.5287
 8155TIP3    H248661   1.684   4.341  10.012  1.0666 -1.0284  0.2359
 8156TIP3   OH248662   0.861   3.608  10.199 -0.7307 -0.1834  0.2592
 8156TIP3    H148663   0.905   3.663  10.134  0.6064  1.0722  2.1200
 8156TIP3    H248664   0.879   3.518  10.171  3.2212  0.2337  0.8915
 8157TIP3   OH248665   6.325   0.400  11.230  1.1279  0.1443  0.1717
 8157TIP3    H148666   6.280   0.444  11.302  1.8180 -1.0352  1.3666
 8157TIP3    H248667   6.384   0.466  11.194 -1.4742  1.7629 -1.4737
 8158TIP3   OH248668   5.688   3.740   8.314 -0.7717  0.3178 -0.0466
 8158TIP3    H148669   5.633   3.663   8.304  1.2214 -1.0803 -0.9636
 8158TIP3    H248670   5.715   3.762   8.225  0.6340  0.5599  0.4060
 8159TIP3   OH248671   3.731   5.043   9.086  0.0990 -0.6132  0.2907
 8159TIP3    H148672   3.788   4.988   9.032  0.4918  0.2310 -0.1840
 8159TIP3    H248673   3.776   5.048   9.170  0.0680 -1.0024  0.3327
 8160TIP3   OH248674   2.259   5.333  10.552 -0.1082 -0.5630  0.0032
 8160TIP3    H148675   2.205   5.329  10.473  1.3674 -1.9673 -0.9916
 8160TIP3    H248676   2.200   5.304  10.622 -1.6071  1.2786 -0.4223
 8161TIP3   OH248677   1.734   4.933   8.994 -0.9919 -0.0257  0.4199
 8161TIP3    H148678   1.798   4.972   9.052 -1.8890  0.0058  1.4245
 8161TIP3    H248679   1.725   4.996   8.922  1.1117 -0.6934 -0.5018
 8162TIP3   OH248680   4.570   6.228  10.746  0.0885  0.2439  0.7338
 8162TIP3    H148681   4.640   6.210  10.809 -0.3664  0.0083  1.1869
 8162TIP3    H248682   4.612   6.220  10.661  0.2788 -1.5231  0.9351
 8163TIP3   OH248683   2.523   5.818   9.503 -0.5492 -0.4376 -0.5423
 8163TIP3    H148684   2.430   5.828   9.485 -1.0569 -1.6212  1.2083
 8163TIP3    H248685   2.553   5.907   9.523 -1.0169  0.1250 -2.2015
 8164TIP3   OH248686   3.289   4.619  10.701  0.6082  0.2479 -0.0273
 8164TIP3    H148687   3.351   4.564  10.652 -1.0309 -0.5344 -1.3234
 8164TIP3    H248688   3.295   4.588  10.791  1.0081 -0.8712 -0.4147
 8165TIP3   OH248689   4.501   3.512  10.681  0.0789  0.4205  0.2198
 8165TIP3    H148690   4.501   3.487  10.773  1.6063 -0.7344 -0.0438
 8165TIP3    H248691   4.512   3.429  10.634 -0.9184  0.9595 -1.0173
 8166TIP3   OH248692   1.063   2.442   9.352  0.3786 -0.1867 -0.1292
 8166TIP3    H148693   1.055   2.529   9.390 -1.2090 -0.7815  0.9996
 8166TIP3    H248694   1.126   2.396   9.409  2.1292  0.5200 -1.3994
 8167TIP3   OH248695   2.868   1.483  12.126  0.1649 -0.2486 -0.2641
 8167TIP3    H148696   2.778   1.491  12.160 -0.0668  1.5592 -1.2041
 8167TIP3    H248697   2.923   1.479  12.205 -0.6095  0.5604  0.3433
 8168TIP3   OH248698   3.450   5.152  10.776 -1.1174  0.0762 -0.6274
 8168TIP3    H148699   3.478   5.070  10.817 -1.5094 -0.4949 -1.4765
 8168TIP3    H248700   3.354   5.145  10.771 -1.4919  1.8212  1.8782
 8169TIP3   OH248701   4.241   0.508   9.355 -0.2910 -0.4342  0.2353
 8169TIP3    H148702   4.218   0.600   9.366 -2.0937 -0.8330  0.1269
 8169TIP3    H248703   4.213   0.487   9.266 -0.8745 -1.3369  0.6185
 8170TIP3   OH248704   2.311   5.473   9.427  0.0273  0.0189  0.2190
 8170TIP3    H148705   2.279   5.457   9.338  1.5362  0.4228 -0.4267
 8170TIP3    H248706   2.270   5.555   9.452 -0.6470 -0.2470  0.0376
 8171TIP3   OH248707   3.067   5.149  11.266 -0.0080 -0.5156  0.3082
 8171TIP3    H148708   3.106   5.226  11.308  0.7210  0.3864 -1.8714
 8171TIP3    H248709   3.141   5.103  11.227 -0.8557  0.5151 -2.7743
 8172TIP3   OH248710   6.425   3.588  10.532 -0.3620  0.8560  0.2147
 8172TIP3    H148711   6.426   3.505  10.579 -0.4698 -0.3099 -1.7210
 8172TIP3    H248712   6.370   3.572  10.456  0.3627  2.4227 -0.6926
 8173TIP3   OH248713   2.582   4.684   8.905 -0.0798 -0.0371  0.2600
 8173TIP3    H148714   2.667   4.641   8.898 -0.8942 -1.4652 -2.5007
 8173TIP3    H248715   2.541   4.644   8.982  1.5023  0.3178  1.3269
 8174TIP3   OH248716   1.683   5.493  11.051  0.8405 -0.4677  0.0550
 8174TIP3    H148717   1.624   5.537  11.113  0.1365 -0.8044 -0.3720
 8174TIP3    H248718   1.625   5.454  10.986  1.5191 -1.0927 -0.1856
 8175TIP3   OH248719   1.061   2.615  12.629 -0.5204  0.3651  0.1298
 8175TIP3    H148720   0.981   2.570  12.657 -1.8918  2.7708  0.3731
 8175TIP3    H248721   1.108   2.549  12.578 -2.6014 -1.1839  0.0363
 8176TIP3   OH248722   0.683   2.641  12.427 -0.3815  0.7468  0.2358
 8176TIP3    H148723   0.776   2.648  12.407 -0.4104 -0.1457 -0.2218
 8176TIP3    H248724   0.653   2.732  12.431  0.2792  1.0170 -0.6776
 8177TIP3   OH248725   1.982   2.741  11.300  0.4382 -0.4738  0.6070
 8177TIP3    H148726   1.899   2.700  11.323 -0.1798  1.2470  1.6668
 8177TIP3    H248727   2.023   2.761  11.384  0.4101  1.5625  0.1969
 8178TIP3   OH248728   0.127   1.754  11.269  0.0178  0.0501 -0.6585
 8178TIP3    H148729   0.076   1.805  11.331 -1.3797 -1.3252 -0.6330
 8178TIP3    H248730   0.112   1.798  11.185 -0.5819  0.1117 -0.5251
 8179TIP3   OH248731   1.799   4.348  12.644  0.2330 -0.0953 -0.1631
 8179TIP3    H148732   1.807   4.275  12.705 -0.8006  0.5736  0.8147
 8179TIP3    H248733   1.811   4.426  12.699  1.7161  0.4951 -1.2495
 8180TIP3   OH248734   2.703   1.057   9.761  0.7573 -0.3580 -0.0883
 8180TIP3    H148735   2.668   1.124   9.702  0.9333  0.8328  1.1318
 8180TIP3    H248736   2.795   1.049   9.737  0.6044 -0.6039 -0.6187
 8181TIP3   OH248737   6.424   1.460  11.762  0.2570 -0.7134 -0.3852
 8181TIP3    H148738   6.428   1.546  11.720 -1.8340 -0.7308 -0.7525
 8181TIP3    H248739   6.330   1.445  11.777  0.6874 -2.1565  1.3032
 8182TIP3   OH248740   1.177   4.248  11.574 -0.3612 -0.2730  0.8317
 8182TIP3    H148741   1.228   4.212  11.647  0.5113  0.3483  0.5415
 8182TIP3    H248742   1.205   4.196  11.498  1.3018  1.2901  0.3073
 8183TIP3   OH248743   5.172   1.514  10.134 -0.9944  0.2434 -0.5008
 8183TIP3    H148744   5.090   1.554  10.162 -1.1479 -1.1000  1.1183
 8183TIP3    H248745   5.145   1.439  10.081 -0.8630 -0.5980  0.5903
 8184TIP3   OH248746   0.598   5.322   9.730  0.2346 -0.1041  0.2431
 8184TIP3    H148747   0.645   5.402   9.707  0.5078 -0.0393  1.0003
 8184TIP3    H248748   0.535   5.310   9.658  1.5752 -0.3508 -0.9448
 8185TIP3   OH248749   1.961   2.448   9.292  0.0461 -0.2777  0.0336
 8185TIP3    H148750   2.001   2.519   9.342  0.6829  0.4232 -1.4102
 8185TIP3    H248751   1.962   2.479   9.201 -1.0362 -1.5184 -0.4376
 8186TIP3   OH248752   5.575   4.609   9.270  0.3404 -0.2472 -0.1857
 8186TIP3    H148753   5.617   4.647   9.348 -1.5732  2.0537 -0.1723
 8186TIP3    H248754   5.524   4.535   9.304 -0.3412  0.6253  0.7515
 8187TIP3   OH248755   2.631   4.653  11.421 -0.2536  0.6742  0.0261
 8187TIP3    H148756   2.543   4.674  11.453 -0.2039  2.0759 -0.6564
 8187TIP3    H248757   2.676   4.616  11.496 -1.2472  0.4790  0.5481
 8188TIP3   OH248758   0.892   4.447  10.542  0.0268 -0.4851 -0.0913
 8188TIP3    H148759   0.904   4.353  10.557  1.4068 -0.3960 -0.4956
 8188TIP3    H248760   0.883   4.455  10.447 -1.6964 -0.3497  0.0612
 8189TIP3   OH248761   5.284   5.820  10.586  0.1190 -0.1308 -0.4164
 8189TIP3    H148762   5.357   5.764  10.611  1.5153  1.3111 -1.0829
 8189TIP3    H248763   5.206   5.771  10.612  1.2529 -2.3605 -0.9810
 8190TIP3   OH248764   6.182   0.797  10.433 -0.0750 -0.0034  0.5884
 8190TIP3    H148765   6.248   0.789  10.365  0.1471  0.3294  0.7621
 8190TIP3    H248766   6.163   0.707  10.460 -0.2031 -0.1389  0.0495
 8191TIP3   OH248767   6.312   6.261  10.720 -0.1964  0.0434  0.2765
 8191TIP3    H148768   6.243   6.249  10.654 -0.3012  1.3848  0.1245
 8191TIP3    H248769   6.265   6.278  10.801 -0.1303  2.9721 -0.1901
 8192TIP3   OH248770   1.532   3.881   9.084  0.2509 -0.0336  0.3358
 8192TIP3    H148771   1.572   3.806   9.127  1.3008  1.0488  1.3050
 8192TIP3    H248772   1.563   3.876   8.993 -3.1650 -3.1730 -0.9445
 8193TIP3   OH248773   1.791   3.515   9.486  0.2646  0.3528  0.1286
 8193TIP3    H148774   1.765   3.427   9.457  0.5195  0.0966  0.6578
 8193TIP3    H248775   1.843   3.549   9.414  0.3483 -0.0188  0.0086
 8194TIP3   OH248776   3.155   5.119  10.775 -0.1557 -0.0103  0.2882
 8194TIP3    H148777   3.172   5.031  10.741 -1.2325 -0.5714  1.1427
 8194TIP3    H248778   3.062   5.118  10.798 -0.7030  1.9828 -1.5244
 8195TIP3   OH248779   2.378   0.579  10.715  0.3416 -0.4845 -0.3270
 8195TIP3    H148780   2.333   0.571  10.799 -0.1003 -0.0446 -0.5188
 8195TIP3    H248781   2.441   0.650  10.727 -0.2338  0.0802 -0.5835
 8196TIP3   OH248782   1.799   2.309   9.680  0.6038  0.1376  0.2606
 8196TIP3    H148783   1.709   2.274   9.678  0.2379  1.0212  0.7835
 8196TIP3    H248784   1.831   2.296   9.590 -0.4697  0.8753 -0.2492
 8197TIP3   OH248785   4.256   5.555   9.105  0.3220 -0.0365 -0.4449
 8197TIP3    H148786   4.180   5.497   9.099 -0.2476  0.7407 -1.0956
 8197TIP3    H248787   4.331   5.499   9.090 -0.1297 -0.8118  0.1334
 8198TIP3   OH248788   2.479   6.173   8.984  0.6707 -0.0495  0.1940
 8198TIP3    H148789   2.397   6.148   8.942  1.4410 -1.5833 -0.4592
 8198TIP3    H248790   2.470   6.267   9.000 -1.8475 -0.4427  1.6043
 8199TIP3   OH248791   4.292   2.197   9.093  0.2533 -0.5422 -0.4947
 8199TIP3    H148792   4.256   2.275   9.051 -0.5576 -0.6004  0.0721
 8199TIP3    H248793   4.259   2.200   9.183  1.5129 -0.7098 -0.0167
 8200TIP3   OH248794   3.689   3.559   9.177 -0.3955  0.0124  0.0706
 8200TIP3    H148795   3.712   3.647   9.207  0.7197 -0.4075  0.5204
 8200TIP3    H248796   3.682   3.507   9.257  2.6821 -1.1315 -0.2552
 8201TIP3   OH248797   2.535   6.339  10.945 -0.2995 -0.1042  0.3414
 8201TIP3    H148798   2.599   6.388  10.998 -0.3613 -0.4972  0.7901
 8201TIP3    H248799   2.459   6.328  11.003 -0.9784  0.7861 -0.3526
 8202TIP3   OH248800   3.943   5.024  10.090  0.2334 -0.2535  0.0250
 8202TIP3    H148801   4.003   4.952  10.107  2.2123  1.1113 -0.7142
 8202TIP3    H248802   3.991   5.102  10.118 -2.1716  0.7580  1.6314
 8203TIP3   OH248803   5.963   0.027   9.348 -0.4975 -0.2934 -0.5383
 8203TIP3    H148804   5.918   0.024   9.263 -0.3479 -0.7501 -0.6052
 8203TIP3    H248805   5.987   0.119   9.359  0.3109 -0.3843 -1.4246
 8204TIP3   OH248806   5.343   3.537  11.046  0.1647  0.6907 -0.3287
 8204TIP3    H148807   5.291   3.606  11.006 -1.1307  0.2159  0.4819
 8204TIP3    H248808   5.316   3.457  11.001  1.0630  0.5907 -0.7070
 8205TIP3   OH248809   5.430   1.714  10.739 -0.3154 -0.5388 -0.1043
 8205TIP3    H148810   5.394   1.705  10.650  0.4777  0.1354 -0.5073
 8205TIP3    H248811   5.524   1.705  10.728 -0.2089 -0.4006  0.6651
 8206TIP3   OH248812   3.964   4.873  11.263  0.5319 -0.0823  0.8269
 8206TIP3    H148813   3.976   4.934  11.336  0.1579  0.8081  0.1615
 8206TIP3    H248814   4.039   4.888  11.205  1.1783 -1.2516  1.3247
 8207TIP3   OH248815   2.349   2.970  11.376  0.2227  0.4629  0.2067
 8207TIP3    H148816   2.344   2.999  11.466 -0.0435  0.0624  0.3232
 8207TIP3    H248817   2.382   3.046  11.328  2.1576  0.1262  0.9153
 8208TIP3   OH248818   1.449   6.193   8.886  0.1081  0.1262  0.0293
 8208TIP3    H148819   1.487   6.251   8.952  0.2454 -0.1575  0.2019
 8208TIP3    H248820   1.496   6.110   8.896 -0.0154  0.0162 -0.2840
 8209TIP3   OH248821   5.270   4.096   9.258 -0.1749  0.1544  0.0167
 8209TIP3    H148822   5.278   4.048   9.341 -1.8193 -0.0385  0.0908
 8209TIP3    H248823   5.300   4.033   9.192 -0.3213 -0.2454  0.3213
 8210TIP3   OH248824   1.005   3.190   9.597  0.2501 -0.7987  0.1530
 8210TIP3    H148825   1.063   3.160   9.527  0.9762 -0.2685  0.5038
 8210TIP3    H248826   1.005   3.286   9.587 -1.6209 -0.8400 -0.6513
 8211TIP3   OH248827   6.300   0.683  12.365 -0.0004  0.2870 -0.2313
 8211TIP3    H148828   6.383   0.705  12.409 -0.6200 -0.4638  1.3907
 8211TIP3    H248829   6.244   0.759  12.381  0.1978  0.5854 -0.9088
 8212TIP3   OH248830   0.886   6.549  12.100 -0.2267 -0.1246 -0.0995
 8212TIP3    H148831   0.935   6.607  12.159 -0.4236  0.7152 -0.7341
 8212TIP3    H248832   0.875   6.601  12.020 -3.0137  0.1518  0.3512
 8213TIP3   OH248833   3.831   0.945   9.910 -0.7273 -1.1591  0.0636
 8213TIP3    H148834   3.761   0.998   9.871  0.3091  0.1499 -0.0968
 8213TIP3    H248835   3.849   0.987   9.994 -0.0801 -1.4333  0.0677
 8214TIP3   OH248836   4.379   6.358  11.692 -0.0258  0.1908 -0.3895
 8214TIP3    H148837   4.369   6.428  11.627  0.2472  1.2615  0.6879
 8214TIP3    H248838   4.469   6.364  11.721 -0.3479  0.2074  0.6286
 8215TIP3   OH248839   6.601   0.432   9.223  0.3371 -0.4936 -0.2716
 8215TIP3    H148840   6.673   0.372   9.206 -0.5775 -1.1265 -2.0865
 8215TIP3    H248841   6.548   0.388   9.290  1.7211  0.1130  1.3123
 8216TIP3   OH248842   3.643   0.958  11.076 -0.4475 -0.3740  0.0977
 8216TIP3    H148843   3.652   0.943  11.170  1.7992 -1.6045 -0.2425
 8216TIP3    H248844   3.663   1.051  11.065  2.7805 -0.9031  0.5681
 8217TIP3   OH248845   1.052   0.287   9.866 -0.4146 -0.9532  0.4234
 8217TIP3    H148846   1.052   0.238   9.948  0.8637 -1.9493 -0.1453
 8217TIP3    H248847   1.053   0.379   9.894 -0.2395 -1.2675  1.5123
 8218TIP3   OH248848   3.436   3.226  10.723  0.1903 -0.2383 -0.1097
 8218TIP3    H148849   3.439   3.133  10.746 -0.2209  0.4526  3.1664
 8218TIP3    H248850   3.526   3.256  10.733  0.1762 -0.1003 -0.3839
 8219TIP3   OH248851   5.714   5.118   9.312  0.1335 -0.5858 -0.3104
 8219TIP3    H148852   5.742   5.178   9.381  0.3513  0.8252 -1.5822
 8219TIP3    H248853   5.794   5.094   9.266 -0.1548 -0.3640 -0.9518
 8220TIP3   OH248854   4.464   5.808  10.390  0.2723 -0.4291 -0.6324
 8220TIP3    H148855   4.411   5.762  10.324 -0.9101 -1.8765  1.2127
 8220TIP3    H248856   4.424   5.895  10.396  0.9060  0.0149 -2.3510
 8221TIP3   OH248857   3.871   2.046  11.230  0.3327 -0.7116  0.4681
 8221TIP3    H148858   3.924   2.120  11.199  1.9032 -1.6261  0.8618
 8221TIP3    H248859   3.804   2.034  11.162 -0.2482  1.3199  0.6076
 8222TIP3   OH248860   0.050   0.609  10.590  0.2230 -0.4063 -0.1000
 8222TIP3    H148861  -0.009   0.669  10.545 -0.3385  0.2830  1.4730
 8222TIP3    H248862  -0.008   0.552  10.641  0.7882  2.1896  3.8948
 8223TIP3   OH248863   6.710   1.874  11.465 -0.1049 -0.1269  0.4166
 8223TIP3    H148864   6.737   1.933  11.535 -0.1440 -0.6245  0.8625
 8223TIP3    H248865   6.630   1.912  11.430 -0.9840 -0.7047  1.7269
 8224TIP3   OH248866   6.154   1.954  12.322 -0.1514 -0.8124  0.2401
 8224TIP3    H148867   6.234   2.006  12.335  1.2008 -2.3545 -1.3621
 8224TIP3    H248868   6.085   2.019  12.310  1.2611  0.6316 -0.5437
 8225TIP3   OH248869   5.229   0.882   9.973  0.6749 -0.2007  0.6087
 8225TIP3    H148870   5.268   0.963  10.006  0.0322 -0.0173  0.9200
 8225TIP3    H248871   5.285   0.813  10.008  2.0283  0.1520 -0.7507
 8226TIP3   OH248872   6.431   2.149  10.821 -0.1063 -0.0036 -0.1539
 8226TIP3    H148873   6.521   2.180  10.833 -0.1817 -0.1837  0.9059
 8226TIP3    H248874   6.417   2.155  10.726  1.3345 -0.8248 -0.4506
 8227TIP3   OH248875   4.923   1.670  10.544 -0.0137 -0.5784 -0.2317
 8227TIP3    H148876   4.976   1.627  10.477  0.1832  2.1255 -1.9706
 8227TIP3    H248877   4.978   1.668  10.623  1.7621  0.1721 -1.3877
 8228TIP3   OH248878   2.363   2.768  11.970  0.0377  0.4737  0.0458
 8228TIP3    H148879   2.403   2.709  11.907  1.8898  1.0151  0.6427
 8228TIP3    H248880   2.373   2.724  12.055  0.4991  1.1543  0.3600
 8229TIP3   OH248881   3.502   0.821  10.582  0.2166  0.3627  0.4574
 8229TIP3    H148882   3.446   0.780  10.516  0.0852  0.0032  0.7920
 8229TIP3    H248883   3.443   0.847  10.652 -0.2467  3.9640 -1.0056
 8230TIP3   OH248884   1.340   1.658  12.165  0.1709  0.1885 -0.4587
 8230TIP3    H148885   1.311   1.575  12.127 -2.0469  0.1847  1.0550
 8230TIP3    H248886   1.413   1.634  12.222  1.0400 -0.3508 -1.7604
 8231TIP3   OH248887   0.832   0.188   9.120 -0.4087  0.0278  0.2180
 8231TIP3    H148888   0.871   0.125   9.181  0.0622 -0.1477 -0.2521
 8231TIP3    H248889   0.854   0.154   9.033  0.0290  0.9348 -0.0470
 8232TIP3   OH248890   0.023   1.353   9.476  0.0569  0.5166  0.1493
 8232TIP3    H148891   0.004   1.269   9.435  0.3517 -1.0078  2.8849
 8232TIP3    H248892  -0.044   1.412   9.442 -0.9061 -1.1171 -0.9371
 8233TIP3   OH248893   2.574   0.661  11.607 -0.3255 -0.4125 -0.6045
 8233TIP3    H148894   2.552   0.605  11.682 -2.1783 -0.1435 -0.8829
 8233TIP3    H248895   2.635   0.725  11.642 -2.3334  0.6771  1.1364
 8234TIP3   OH248896   4.767   0.644  10.154  0.8469  0.1217 -0.1223
 8234TIP3    H148897   4.841   0.699  10.128  1.7954 -0.6588  0.8545
 8234TIP3    H248898   4.743   0.678  10.241 -0.1954  0.6026 -0.5800
 8235TIP3   OH248899   4.734   1.925  10.279  0.1131 -0.7297  0.8219
 8235TIP3    H148900   4.724   2.015  10.248  0.4864 -1.0324 -0.1983
 8235TIP3    H248901   4.646   1.897  10.303 -0.1365 -0.3869  0.3096
 8236TIP3   OH248902   2.509   3.391  10.924  0.3514  0.5440  0.1867
 8236TIP3    H148903   2.533   3.383  11.017 -0.1108 -1.5034  0.1900
 8236TIP3    H248904   2.590   3.415  10.880  0.7558  0.7791  1.0387
 8237TIP3   OH248905   2.231   3.497   9.082 -0.0759  0.2556 -0.4805
 8237TIP3    H148906   2.207   3.538   9.166 -1.4504  0.1135 -0.7681
 8237TIP3    H248907   2.293   3.558   9.043 -2.1914  2.2607 -0.9782
 8238TIP3   OH248908   0.889   4.800  10.485 -0.2076  0.3136  0.2624
 8238TIP3    H148909   0.877   4.733  10.552 -0.4363  1.2505  1.1971
 8238TIP3    H248910   0.978   4.785  10.452 -0.0572 -0.1126  0.8457
 8239TIP3   OH248911   4.720   4.295  11.040  0.0532  0.3559 -0.1674
 8239TIP3    H148912   4.712   4.200  11.049 -3.4417  0.4217 -1.0169
 8239TIP3    H248913   4.792   4.308  10.979 -1.5212 -2.0285 -2.7806
 8240TIP3   OH248914   4.565   0.215  10.009  0.0756 -0.3220 -0.0675
 8240TIP3    H148915   4.531   0.265   9.936 -0.8814 -1.5500 -0.5057
 8240TIP3    H248916   4.638   0.165   9.972 -0.1565 -0.6425 -0.1006
 8241TIP3   OH248917   2.003   2.270  11.935  0.2753 -0.2785  0.3427
 8241TIP3    H148918   1.986   2.259  11.841 -0.6661  1.7136  0.2208
 8241TIP3    H248919   1.985   2.184  11.972 -0.7733 -0.7428 -1.1246
 8242TIP3   OH248920   1.026   3.946   9.671  0.1156  0.2683 -0.2039
 8242TIP3    H148921   0.957   3.979   9.728  1.4607  0.4650  1.3941
 8242TIP3    H248922   1.078   4.023   9.649  0.0423  0.0684 -1.1113
 8243TIP3   OH248923   2.902   5.113  10.050 -0.3831 -0.2494 -0.1356
 8243TIP3    H148924   2.842   5.047  10.086 -0.9108 -1.0177 -2.2614
 8243TIP3    H248925   2.849   5.191  10.040 -0.3154 -0.1271  0.4404
 8244TIP3   OH248926   6.565   5.707  11.271  0.1684  0.6564 -0.3024
 8244TIP3    H148927   6.473   5.707  11.248  0.2182 -0.3138 -0.5669
 8244TIP3    H248928   6.578   5.786  11.324 -0.8549  0.6727 -0.0707
 8245TIP3   OH248929   5.386   2.761  11.344  0.0449 -0.2837  0.5074
 8245TIP3    H148930   5.412   2.799  11.260  0.5486 -0.2429  0.6774
 8245TIP3    H248931   5.436   2.679  11.349 -1.0148 -0.9649  0.1530
 8246TIP3   OH248932   6.139   1.836  11.069 -0.1815 -0.4989  0.4454
 8246TIP3    H148933   6.053   1.848  11.029 -0.6353  3.4969  2.1609
 8246TIP3    H248934   6.122   1.779  11.144 -1.4631  0.4983  0.9614
 8247TIP3   OH248935   4.843   6.001   8.551  0.5740  0.2979 -0.4366
 8247TIP3    H148936   4.880   5.915   8.569  1.2210  0.7871  0.6833
 8247TIP3    H248937   4.822   5.999   8.457 -2.6241 -2.2544  0.1829
 8248TIP3   OH248938   5.820   6.605  11.741 -0.3375 -0.3494 -0.4814
 8248TIP3    H148939   5.816   6.685  11.793  0.0446 -1.4855  1.4248
 8248TIP3    H248940   5.913   6.594  11.721 -0.4419 -0.0996 -1.1084
 8249TIP3   OH248941   3.655   6.342  11.177 -0.8078  0.3201  0.2307
 8249TIP3    H148942   3.631   6.277  11.243  0.1900 -1.3505 -0.9871
 8249TIP3    H248943   3.634   6.301  11.094  4.7308 -0.8952 -0.9654
 8250TIP3   OH248944   4.155   3.357   9.543 -0.3581  0.2156  0.3534
 8250TIP3    H148945   4.158   3.440   9.496 -1.3926 -0.2159 -0.5261
 8250TIP3    H248946   4.237   3.354   9.592 -0.3062  1.7475  0.4013
 8251TIP3   OH248947   3.815   2.281  11.734  0.2095  1.0228  0.1441
 8251TIP3    H148948   3.844   2.372  11.726  2.1615  0.3829 -0.6335
 8251TIP3    H248949   3.757   2.268  11.659 -0.4099  1.7253  0.4856
 8252TIP3   OH248950   4.487   2.841  10.799 -0.2729  0.1485 -0.2729
 8252TIP3    H148951   4.524   2.758  10.829 -0.8959 -0.2522 -0.5991
 8252TIP3    H248952   4.448   2.879  10.878 -0.9604 -0.3967 -0.3411
 8253TIP3   OH248953   4.894   0.135  10.875 -0.2864 -0.1599 -0.0971
 8253TIP3    H148954   4.892   0.083  10.955 -2.8913  0.6445  0.4544
 8253TIP3    H248955   4.842   0.085  10.812 -0.9836  0.7255 -0.2467
 8254TIP3   OH248956   2.537   5.292  10.973  0.0023 -0.7899  0.3946
 8254TIP3    H148957   2.556   5.257  11.060  2.0868 -0.4031  0.1501
 8254TIP3    H248958   2.620   5.284  10.925  0.0687  2.4946 -0.3046
 8255TIP3   OH248959   5.062   6.044   9.947 -0.2047 -0.1247  0.4747
 8255TIP3    H148960   5.139   5.990   9.966 -0.7616 -1.4224 -0.8077
 8255TIP3    H248961   5.034   6.017   9.860 -0.9493  1.7557  0.0735
 8256TIP3   OH248962   4.553   3.492  11.784  0.3410  0.1463 -0.0679
 8256TIP3    H148963   4.589   3.581  11.778  0.7613 -0.0306 -0.1616
 8256TIP3    H248964   4.509   3.490  11.869 -0.7916  0.8600 -0.6086
 8257TIP3   OH248965   1.726   2.014  10.855 -0.1485  0.3420 -0.4730
 8257TIP3    H148966   1.784   1.940  10.839 -1.0601 -0.2185 -1.3101
 8257TIP3    H248967   1.659   1.980  10.914 -0.4831  0.5407 -0.7332
 8258TIP3   OH248968   1.557   6.317  11.156  0.1456 -0.3864  0.2052
 8258TIP3    H148969   1.471   6.307  11.117  0.2093  0.0586 -0.0617
 8258TIP3    H248970   1.605   6.372  11.094  0.0255  0.9227  1.2102
 8259TIP3   OH248971   3.806   5.324  10.043  0.0092 -0.1037  0.3891
 8259TIP3    H148972   3.719   5.288  10.027  0.7052 -2.3482  1.3102
 8259TIP3    H248973   3.800   5.359  10.132 -0.0112 -0.0463  0.3653
 8260TIP3   OH248974   2.426   4.712  11.131 -0.3833  0.1826  0.0269
 8260TIP3    H148975   2.479   4.788  11.157 -1.2016  0.6907  0.2311
 8260TIP3    H248976   2.459   4.689  11.044 -1.9578  2.5377 -1.3240
 8261TIP3   OH248977   3.084   4.462  10.008 -0.1051  0.0631 -0.2558
 8261TIP3    H148978   3.062   4.531   9.946  0.2274 -1.1458 -1.7789
 8261TIP3    H248979   3.129   4.396   9.956  1.7574 -0.2537  1.6017
 8262TIP3   OH248980   0.720   4.763  12.284  0.5343  0.2605  0.4310
 8262TIP3    H148981   0.631   4.764  12.250  0.6798 -1.6221 -0.0949
 8262TIP3    H248982   0.739   4.671  12.300  2.6015  0.5626 -0.0038
 8263TIP3   OH248983   0.555   4.745   9.503 -0.0812 -0.2186  0.0945
 8263TIP3    H148984   0.572   4.743   9.409 -0.4796  1.4437 -0.0469
 8263TIP3    H248985   0.497   4.820   9.515  0.7561  0.2162  1.7777
 8264TIP3   OH248986   1.756   4.674  10.448 -0.2050 -0.2945  0.5560
 8264TIP3    H148987   1.764   4.725  10.367 -0.1036 -0.1571  0.6530
 8264TIP3    H248988   1.835   4.695  10.497 -0.3628 -0.2256  0.7799
 8265TIP3   OH248989   5.441   1.786   9.456  0.6969 -0.6399  0.8002
 8265TIP3    H148990   5.488   1.856   9.501  1.1790 -1.5551  1.7732
 8265TIP3    H248991   5.484   1.706   9.486 -0.3276 -1.3948  0.2947
 8266TIP3   OH248992   2.104   3.538  10.052 -0.5341  0.4859 -0.5246
 8266TIP3    H148993   2.069   3.625  10.035  0.1186  0.7691 -0.4310
 8266TIP3    H248994   2.198   3.551  10.064 -0.8891  0.3919  3.8145
 8267TIP3   OH248995   0.291   4.282  10.977  0.0971 -0.2067 -0.2163
 8267TIP3    H148996   0.292   4.373  11.005  0.3067 -0.2582 -0.0602
 8267TIP3    H248997   0.242   4.283  10.894 -1.7921 -0.2579  0.8298
 8268TIP3   OH248998   3.253   2.007  10.585  0.0980 -0.7504  0.2892
 8268TIP3    H148999   3.301   1.925  10.590  0.0924 -0.7223  0.8866
 8268TIP3    H249000   3.201   2.009  10.665 -0.2662 -0.3908  0.0447
 8269TIP3   OH249001   5.359   5.259   9.764 -0.0634  0.3188  0.3265
 8269TIP3    H149002   5.427   5.310   9.807  1.3718 -0.8559 -0.4589
 8269TIP3    H249003   5.373   5.273   9.670 -1.0034  0.1833  0.1516
 8270TIP3   OH249004   2.154   0.391  11.576  0.5787 -0.2195 -0.0512
 8270TIP3    H149005   2.076   0.340  11.555  1.1996 -1.0954 -0.3016
 8270TIP3    H249006   2.122   0.479  11.595 -0.5410 -0.7509  0.5857
 8271TIP3   OH249007   0.494   0.328  10.636 -0.1833  0.2000 -0.8905
 8271TIP3    H149008   0.432   0.258  10.656  1.2404 -1.0944 -0.8120
 8271TIP3    H249009   0.542   0.341  10.718 -1.0049  1.9371 -0.6308
 8272TIP3   OH249010   6.578   2.728  11.362  0.2197  0.0532  0.6784
 8272TIP3    H149011   6.567   2.724  11.457 -0.0305  0.5938  0.6777
 8272TIP3    H249012   6.491   2.748  11.328  0.2003 -0.6390  0.2922
 8273TIP3   OH249013   2.737   3.495  10.787  0.2446  0.7894  0.1020
 8273TIP3    H149014   2.766   3.409  10.756  1.3378  0.4759  1.8295
 8273TIP3    H249015   2.817   3.547  10.790 -0.1467  1.3739  0.5734
 8274TIP3   OH249016   1.067   3.168   9.943  0.5628 -0.0932  0.7186
 8274TIP3    H149017   1.143   3.110   9.940  1.8493  1.3010  3.3135
 8274TIP3    H249018   1.095   3.246   9.895 -1.3414 -1.5476 -3.2191
 8275TIP3   OH249019   2.084   0.006   9.181 -0.1163  0.3908 -0.2436
 8275TIP3    H149020   2.090  -0.027   9.270 -0.6582  0.6655 -0.0989
 8275TIP3    H249021   2.168   0.049   9.165  0.0167  0.2605  0.0996
 8276TIP3   OH249022   3.275   2.075   9.615 -0.3327  0.5366  0.1172
 8276TIP3    H149023   3.201   2.119   9.658  0.2539  1.8526 -0.1770
 8276TIP3    H249024   3.243   2.053   9.528 -0.8272 -0.1995  0.4716
 8277TIP3   OH249025   1.432   4.999   9.606 -0.2502 -0.0959  0.1848
 8277TIP3    H149026   1.388   4.967   9.685  1.3456 -1.0449  0.7374
 8277TIP3    H249027   1.374   4.973   9.534 -0.5000 -1.5146  0.8646
 8278TIP3   OH249028   5.312   6.710   9.437 -0.3455 -0.3585  0.3279
 8278TIP3    H149029   5.330   6.641   9.373 -0.5438 -1.9638  1.9240
 8278TIP3    H249030   5.217   6.713   9.444 -0.4092  1.0698 -0.7169
 8279TIP3   OH249031   1.926   5.140  10.466  0.3608  0.2718  0.4724
 8279TIP3    H149032   1.837   5.107  10.475  0.7101 -0.1634  3.1167
 8279TIP3    H249033   1.926   5.223  10.513  1.2760  0.3785  0.3081
 8280TIP3   OH249034   4.809   0.119   9.897 -0.1820 -0.4374 -0.0641
 8280TIP3    H149035   4.809   0.208   9.862  1.0323 -0.3982 -0.0068
 8280TIP3    H249036   4.896   0.084   9.876 -0.3391 -1.3177  0.6469
 8281TIP3   OH249037   6.185   4.230  10.514 -0.2035 -0.6665  0.3544
 8281TIP3    H149038   6.127   4.253  10.586 -0.8700 -1.1407 -0.0209
 8281TIP3    H249039   6.161   4.292  10.444 -1.2709 -1.7693 -0.2938
 8282TIP3   OH249040   6.554   2.441  11.790  0.3604 -0.2003 -0.0179
 8282TIP3    H149041   6.590   2.467  11.875  1.8211 -1.1894 -0.2986
 8282TIP3    H249042   6.518   2.353  11.805 -0.3752  0.0691 -0.1690
 8283TIP3   OH249043   1.837   1.488  12.845 -0.3004 -0.7113 -0.0955
 8283TIP3    H149044   1.890   1.559  12.882 -2.2630 -0.3064  2.1662
 8283TIP3    H249045   1.854   1.414  12.903 -1.5339 -0.8071  0.1639
 8284TIP3   OH249046   2.868   4.090  11.846  0.0106 -0.3477  0.0175
 8284TIP3    H149047   2.923   4.164  11.873  0.1052 -0.2581 -0.4269
 8284TIP3    H249048   2.780   4.113  11.878 -0.0069  0.0615 -0.3174
 8285TIP3   OH249049   0.144   1.574  11.491 -0.4294 -0.3724  0.3370
 8285TIP3    H149050   0.131   1.635  11.418  2.5140  1.5620  1.2479
 8285TIP3    H249051   0.148   1.488  11.449  1.5749  0.6940 -1.9522
 8286TIP3   OH249052   0.129   2.384  12.511  0.4886 -0.3739 -0.0554
 8286TIP3    H149053   0.072   2.392  12.587  0.4227  0.1166 -0.1537
 8286TIP3    H249054   0.122   2.468  12.466  1.0765 -0.4013 -0.2151
 8287TIP3   OH249055   3.723   4.698  10.144  0.4026  0.1654 -0.2939
 8287TIP3    H149056   3.628   4.707  10.146  0.3367  0.0177 -1.6177
 8287TIP3    H249057   3.756   4.788  10.155 -0.0012  0.7004 -2.7995
 8288TIP3   OH249058   4.394   5.397  12.022 -0.1206 -0.2805 -0.2560
 8288TIP3    H149059   4.405   5.437  11.935 -1.0196 -0.3586 -0.4111
 8288TIP3    H249060   4.378   5.305  12.003  2.0426 -0.7965  0.1050
 8289TIP3   OH249061   4.503   4.053  10.043  0.2341 -0.7827 -0.0403
 8289TIP3    H149062   4.532   4.143  10.062 -1.9600 -0.0333  0.0122
 8289TIP3    H249063   4.534   4.036   9.954  0.9177 -0.1052  0.0504
 8290TIP3   OH249064   3.888   1.126  11.693  0.1190 -0.0282  0.4086
 8290TIP3    H149065   3.916   1.150  11.605 -0.1983  1.8716  0.7696
 8290TIP3    H249066   3.963   1.082  11.732  0.5031 -0.2515 -0.5683
 8291TIP3   OH249067   3.423   6.501   9.636  0.2889 -0.7286 -0.1340
 8291TIP3    H149068   3.508   6.545   9.630 -0.2530  0.3778  0.0719
 8291TIP3    H249069   3.399   6.506   9.729  0.0084 -1.0523 -0.1866
 8292TIP3   OH249070   1.868   4.761  11.218  0.3669  0.5283  0.7910
 8292TIP3    H149071   1.822   4.679  11.235  1.2786 -1.5268 -4.5916
 8292TIP3    H249072   1.960   4.742  11.237  0.5622  0.2841 -0.3406
 8293TIP3   OH249073   3.290   6.055   9.685 -0.1746 -0.1727  0.4199
 8293TIP3    H149074   3.247   6.034   9.602  1.2560 -0.9459 -0.1479
 8293TIP3    H249075   3.358   6.118   9.662  0.1223 -0.2561  1.0464
 8294TIP3   OH249076   5.001   6.452  10.651 -0.2950  0.1556  0.7078
 8294TIP3    H149077   4.999   6.411  10.737 -0.8317  2.9740  2.1472
 8294TIP3    H249078   5.085   6.424  10.614  0.2508 -0.6072  2.4078
 8295TIP3   OH249079   2.283   5.797  10.279 -1.0125  0.0843 -0.0716
 8295TIP3    H149080   2.373   5.829  10.278 -0.9832  0.0858  1.1477
 8295TIP3    H249081   2.291   5.703  10.293 -1.1970  0.3206  2.0546
 8296TIP3   OH249082   3.628   4.151  10.503  0.1593  0.5795  0.4513
 8296TIP3    H149083   3.614   4.240  10.472  0.0625  0.3313 -0.2514
 8296TIP3    H249084   3.675   4.161  10.586  0.7238  1.2675  0.0623
 8297TIP3   OH249085   5.061   1.329  11.155 -0.1485 -0.6277 -0.4039
 8297TIP3    H149086   5.043   1.344  11.062  0.2103  2.1908 -0.1025
 8297TIP3    H249087   4.974   1.329  11.195 -0.2144  1.8970 -0.3540
 8298TIP3   OH249088   6.640   2.818   9.153 -0.3544 -0.0277 -0.0015
 8298TIP3    H149089   6.729   2.824   9.188 -0.6335  1.4472  0.5090
 8298TIP3    H249090   6.645   2.860   9.068 -0.5623  0.0077  0.0049
 8299TIP3   OH249091   4.976   1.373  12.397  0.2967 -0.3284  0.3966
 8299TIP3    H149092   4.894   1.374  12.448  1.1790 -0.6278  1.8926
 8299TIP3    H249093   4.963   1.303  12.332 -0.9352  0.1815  0.0641
 8300TIP3   OH249094   4.590   4.401  11.688 -0.3488  0.2456 -0.0526
 8300TIP3    H149095   4.549   4.355  11.762 -0.5830  1.8474  0.8561
 8300TIP3    H249096   4.591   4.336  11.618 -0.9394 -1.0488  1.0763
 8301TIP3   OH249097   0.286   2.424  10.783  0.7548  0.2154 -0.0872
 8301TIP3    H149098   0.305   2.516  10.802  0.9065  0.4030 -1.1120
 8301TIP3    H249099   0.371   2.384  10.765  0.6342  0.0112 -0.2188
 8302TIP3   OH249100   5.719   5.088  10.773 -0.1583  0.6583  0.0887
 8302TIP3    H149101   5.807   5.063  10.747 -0.7990 -0.5849 -1.0362
 8302TIP3    H249102   5.730   5.167  10.825  1.5988  0.5813 -0.1236
 8303TIP3   OH249103   4.557   0.995  11.476 -0.4009  0.6966 -0.2262
 8303TIP3    H149104   4.587   0.920  11.425  1.2155  0.8277  0.4760
 8303TIP3    H249105   4.612   1.067  11.447  0.7221  0.7295  1.8006
 8304TIP3   OH249106   6.408   0.916  11.165  0.7058  0.4262  0.2341
 8304TIP3    H149107   6.384   0.918  11.257  0.7868  0.9157  0.2481
 8304TIP3    H249108   6.354   0.984  11.125  0.7460  0.2867 -0.0622
 8305TIP3   OH249109   5.770   2.388  10.146  0.2585 -0.1366 -0.0273
 8305TIP3    H149110   5.850   2.406  10.096 -0.1537  1.0807 -0.3016
 8305TIP3    H249111   5.715   2.465  10.130 -0.0538  0.1221  2.0014
 8306TIP3   OH249112   2.335   3.893   8.892 -0.2610 -0.5824 -0.0809
 8306TIP3    H149113   2.329   3.971   8.948  1.5512 -0.9633  0.7162
 8306TIP3    H249114   2.278   3.912   8.818 -0.8487  0.9620  0.7264
 8307TIP3   OH249115   3.580   0.279  10.660  0.1446 -0.1674  0.0609
 8307TIP3    H149116   3.672   0.299  10.678 -0.0939  1.1109 -0.0038
 8307TIP3    H249117   3.583   0.207  10.596  1.1398  0.8153 -1.0572
 8308TIP3   OH249118   1.390   2.859  12.558  0.0016 -0.4542  0.6581
 8308TIP3    H149119   1.438   2.930  12.515  0.6575 -1.0188  0.4375
 8308TIP3    H249120   1.414   2.780  12.509  0.9044 -1.1444  2.1346
 8309TIP3   OH249121   3.211   4.462  11.631  0.1704  0.3519  0.4211
 8309TIP3    H149122   3.160   4.506  11.564  0.4905  0.2974  0.1408
 8309TIP3    H249123   3.156   4.466  11.710  0.5412  1.9706  0.6173
 8310TIP3   OH249124   2.655   4.300  11.746 -0.0265  0.0629  0.1093
 8310TIP3    H149125   2.628   4.391  11.745 -1.1228 -0.2523 -0.3576
 8310TIP3    H249126   2.666   4.279  11.839  0.1878  0.6535  0.2197
 8311TIP3   OH249127   0.291   3.933   8.988  0.1423 -0.3719 -0.4499
 8311TIP3    H149128   0.261   3.872   9.055  0.8333 -0.7680 -0.4914
 8311TIP3    H249129   0.381   3.906   8.969 -0.1520 -0.5065 -1.8076
 8312TIP3   OH249130   5.374   3.442   9.498  0.2028  0.3131  0.3817
 8312TIP3    H149131   5.363   3.525   9.544 -0.4938 -1.0612  2.8281
 8312TIP3    H249132   5.466   3.418   9.513  0.4092  0.6168 -0.3404
 8313TIP3   OH249133   3.766   0.689   9.952  0.3951  0.0946 -0.3773
 8313TIP3    H149134   3.847   0.649   9.920  0.9828  1.2706 -0.3903
 8313TIP3    H249135   3.781   0.783   9.947 -0.7867  0.3348  0.1139
 8314TIP3   OH249136   3.735   3.423   9.437 -0.3291  0.1008  0.1424
 8314TIP3    H149137   3.818   3.459   9.403  0.3909 -1.0552  0.6122
 8314TIP3    H249138   3.749   3.415   9.531 -0.9349 -0.2363  0.2078
 8315TIP3   OH249139   5.597   0.789  11.453  0.2480 -0.0546 -0.7724
 8315TIP3    H149140   5.550   0.789  11.537 -0.0674  1.7318 -0.9061
 8315TIP3    H249141   5.542   0.735  11.396 -0.5317  0.2317 -0.3222
 8316TIP3   OH249142   4.821   1.613  10.978  0.3416 -0.0165 -0.0919
 8316TIP3    H149143   4.751   1.571  10.927  0.5642  0.8243 -1.1382
 8316TIP3    H249144   4.806   1.707  10.967  0.9439  0.1805  0.6576
 8317TIP3   OH249145   2.558   5.380  10.319  0.6994 -0.3978  0.0578
 8317TIP3    H149146   2.643   5.369  10.362  0.3677 -2.0554  0.3337
 8317TIP3    H249147   2.571   5.347  10.230  0.7248  0.7816 -0.4042
 8318TIP3   OH249148   3.571   2.622   8.873 -0.3342 -0.0849 -0.1707
 8318TIP3    H149149   3.559   2.635   8.779  0.3026  0.8621 -0.1302
 8318TIP3    H249150   3.493   2.660   8.913 -0.5237 -0.3319 -0.3032
 8319TIP3   OH249151   3.473   5.737  10.564  0.2791  0.2243  0.4135
 8319TIP3    H149152   3.461   5.643  10.548 -2.5540  0.8572 -2.2523
 8319TIP3    H249153   3.541   5.764  10.503  0.2705  0.0923  0.3460
 8320TIP3   OH249154   6.051   5.320   9.970 -0.0288 -1.0390  0.3734
 8320TIP3    H149155   6.061   5.399   9.917 -0.2342 -1.6776 -0.6479
 8320TIP3    H249156   6.094   5.341  10.053  0.1004  0.0643  0.0429
 8321TIP3   OH249157   0.098   5.558   9.618  0.2572  0.3646 -0.0134
 8321TIP3    H149158   0.190   5.544   9.598 -0.0206 -0.6360 -0.6198
 8321TIP3    H249159   0.091   5.543   9.712  0.3347 -1.7784 -0.3054
 8322TIP3   OH249160   6.630   6.166  11.574 -0.4000 -1.0055 -0.4031
 8322TIP3    H149161   6.710   6.217  11.563  0.0305 -1.8240 -1.1883
 8322TIP3    H249162   6.650   6.106  11.646 -0.2933 -1.2349 -0.6238
 8323TIP3   OH249163   1.770   2.674  11.775  0.3353 -0.3423  0.0926
 8323TIP3    H149164   1.700   2.689  11.711  0.0133 -1.5803  0.1293
 8323TIP3    H249165   1.726   2.633  11.850  0.6233  1.5041  1.3446
 8324TIP3   OH249166   3.474   3.033   9.354 -0.2254  0.4746  0.0410
 8324TIP3    H149167   3.442   3.103   9.296  1.6770 -0.6269 -2.5463
 8324TIP3    H249168   3.569   3.042   9.351  0.0251 -1.7967  0.1873
 8325TIP3   OH249169   0.786   6.094  11.836  0.3278  0.0368 -0.0926
 8325TIP3    H149170   0.864   6.045  11.862  0.8026 -0.1461 -1.7304
 8325TIP3    H249171   0.799   6.181  11.874  0.9666 -0.2144  0.2766
 8326TIP3   OH249172   6.441   6.396  11.461 -0.0878  0.6161  0.1045
 8326TIP3    H149173   6.501   6.322  11.463 -1.2745 -0.4007 -0.7979
 8326TIP3    H249174   6.451   6.437  11.548 -0.3611 -1.3820  1.1287
 8327TIP3   OH249175   4.746   0.542  10.928 -0.5564 -0.0005  0.5337
 8327TIP3    H149176   4.658   0.542  10.966 -0.1977  1.4235  1.4568
 8327TIP3    H249177   4.758   0.631  10.894 -0.6470 -1.0538 -2.5672
 8328TIP3   OH249178   2.076   3.691  10.706  0.4158 -0.3060  0.5331
 8328TIP3    H149179   2.141   3.694  10.637  0.4061 -0.9704  0.4884
 8328TIP3    H249180   2.122   3.653  10.781 -0.1695 -1.7115  0.2069
 8329TIP3   OH249181   5.613   5.914  10.016 -0.0554  0.1453 -0.0195
 8329TIP3    H149182   5.523   5.908  10.048  0.6329 -1.7818  1.7584
 8329TIP3    H249183   5.657   5.973  10.078  0.4290 -0.7188  0.4709
 8330TIP3   OH249184   3.215   5.688   9.713 -0.3867  0.6767 -0.3729
 8330TIP3    H149185   3.245   5.691   9.623  0.1914 -0.7785 -0.2689
 8330TIP3    H249186   3.228   5.596   9.739 -2.6351  0.5534  0.4769
 8331TIP3   OH249187   0.439   5.001  10.748 -0.1611 -0.9611 -0.4114
 8331TIP3    H149188   0.389   4.966  10.674  1.4755 -1.4788 -1.3299
 8331TIP3    H249189   0.528   5.010  10.714  0.0345  1.6604  0.5794
 8332TIP3   OH249190   0.230   4.120  10.601  0.2964 -0.0012  0.1693
 8332TIP3    H149191   0.174   4.053  10.639 -1.3344  1.3315  0.1928
 8332TIP3    H249192   0.277   4.075  10.530 -1.9531 -0.8061 -0.8806
 8333TIP3   OH249193   0.367   6.320  12.120 -0.2432 -0.6070  0.3620
 8333TIP3    H149194   0.404   6.408  12.110  2.1247 -1.4106  1.2445
 8333TIP3    H249195   0.443   6.263  12.130 -1.6809 -2.8650 -0.7134
 8334TIP3   OH249196   2.590   2.652  11.667  0.3066 -0.4499  0.2048
 8334TIP3    H149197   2.588   2.707  11.589  2.3665 -0.3037  0.2009
 8334TIP3    H249198   2.498   2.629  11.683 -0.1629 -0.6954 -2.3885
 8335TIP3   OH249199   4.343   0.761   9.720  0.1373 -0.1287  0.1037
 8335TIP3    H149200   4.428   0.805   9.709  0.6311 -1.3630 -1.1833
 8335TIP3    H249201   4.313   0.791   9.806  0.4446  2.6961 -0.6618
 8336TIP3   OH249202   2.078   5.083  18.630  0.5225  0.5875 -0.2910
 8336TIP3    H149203   1.992   5.042  18.641  0.3494  0.9464 -0.2948
 8336TIP3    H249204   2.072   5.164  18.679  1.6840 -0.5245  1.8062
 8337TIP3   OH249205   1.684   6.440  10.942 -0.2791 -0.3525  0.6405
 8337TIP3    H149206   1.645   6.380  10.878 -1.9814  0.8726  0.4570
 8337TIP3    H249207   1.775   6.450  10.913 -0.8809 -0.1973 -1.3458
 8338TIP3   OH249208   1.901   1.344   8.985  0.1056  0.2398 -0.3068
 8338TIP3    H149209   1.922   1.311   9.072  0.0194  0.3618 -0.2391
 8338TIP3    H249210   1.964   1.414   8.970  0.2362  0.0997 -0.4162
 8339TIP3   OH249211   4.687   1.547  10.548  1.1549  0.6631  0.2935
 8339TIP3    H149212   4.780   1.569  10.548  0.8329  2.1984 -0.2284
 8339TIP3    H249213   4.676   1.492  10.470  1.9604 -1.3278  1.5215
 8340TIP3   OH249214   5.428   5.804  10.314 -0.2451  0.2313 -0.7382
 8340TIP3    H149215   5.427   5.710  10.332 -0.0190  0.5169  0.8434
 8340TIP3    H249216   5.405   5.845  10.397  2.2772  1.6715 -0.6519
 8341TIP3   OH249217   3.168   3.018   8.983  0.5692 -0.0364  0.5885
 8341TIP3    H149218   3.145   3.074   8.909  0.5061  0.7594  1.1946
 8341TIP3    H249219   3.086   2.975   9.007  0.8260 -1.1965 -0.5210
 8342TIP3   OH249220   2.912   4.926  10.867  0.1748  0.0996 -0.1438
 8342TIP3    H149221   2.881   4.984  10.936  1.3574 -0.1045  0.5806
 8342TIP3    H249222   2.973   4.867  10.910 -0.3815 -1.1726 -1.0265
 8343TIP3   OH249223   0.930   0.937  11.741 -0.8640 -0.4164  0.2823
 8343TIP3    H149224   0.931   0.954  11.835 -1.3802  0.6848  0.1004
 8343TIP3    H249225   0.997   0.869  11.728  1.3461  1.4989  1.0489
 8344TIP3   OH249226   1.222   5.644  10.199 -0.4737  0.4232 -0.3588
 8344TIP3    H149227   1.132   5.623  10.175 -0.9723  0.8312  1.0206
 8344TIP3    H249228   1.222   5.642  10.295  1.1830 -0.3550 -0.3365
 8345TIP3   OH249229   3.761   6.588  10.935 -0.3152 -0.3657 -0.6584
 8345TIP3    H149230   3.789   6.497  10.932  0.1961 -0.2521  0.1344
 8345TIP3    H249231   3.746   6.612  10.844 -0.7920 -1.3394 -0.8460
 8346TIP3   OH249232   1.817   4.303  11.608 -0.0071 -0.0347  0.4561
 8346TIP3    H149233   1.779   4.262  11.686 -2.6732  0.1224 -0.6483
 8346TIP3    H249234   1.859   4.231  11.561  0.6497 -0.3282  1.4605
 8347TIP3   OH249235   4.152   2.959  10.481 -0.0467 -0.1131  0.5933
 8347TIP3    H149236   4.132   3.052  10.491 -1.4034 -0.1089 -1.6968
 8347TIP3    H249237   4.149   2.943  10.387  0.7789 -2.3720  0.8852
 8348TIP3   OH249238   1.462   2.656  19.160  0.1598  0.0631  0.0088
 8348TIP3    H149239   1.368   2.646  19.142 -0.0905 -1.2337  1.7676
 8348TIP3    H249240   1.499   2.684  19.077 -1.6996  0.0429 -0.8891
 8349TIP3   OH249241   3.561   5.197  10.519 -0.2575  0.0574  0.1025
 8349TIP3    H149242   3.511   5.181  10.440 -1.7763 -0.7925  1.1812
 8349TIP3    H249243   3.513   5.151  10.588  1.8316 -0.5095  1.2749
 8350TIP3   OH249244   2.206   2.636  11.207  0.0799 -0.0566  0.3173
 8350TIP3    H149245   2.113   2.654  11.199 -0.2097 -1.9625 -1.5342
 8350TIP3    H249246   2.225   2.645  11.300 -1.8461  0.7357  0.6781
 8351TIP3   OH249247   0.376   1.551  11.911  0.0972  0.1076  0.7982
 8351TIP3    H149248   0.349   1.586  11.827 -0.8228  0.4525  1.2223
 8351TIP3    H249249   0.306   1.578  11.972  0.8051 -0.0211  1.6894
 8352TIP3   OH249250   4.546   5.903   8.867 -1.0964  0.1627  0.0094
 8352TIP3    H149251   4.605   5.969   8.830 -0.9059  0.2400  0.4462
 8352TIP3    H249252   4.459   5.936   8.847 -1.0041  0.6046  0.3132
 8353TIP3   OH249253   0.642   3.303  12.138 -0.0305 -0.0577  0.0570
 8353TIP3    H149254   0.551   3.273  12.138  0.8968 -3.2831 -0.4960
 8353TIP3    H249255   0.670   3.292  12.229 -0.2565  1.3232  0.3141
 8354TIP3   OH249256   0.827   2.356  10.551  0.4097  0.1414 -0.7203
 8354TIP3    H149257   0.788   2.270  10.541 -2.1051  1.2332 -0.9165
 8354TIP3    H249258   0.832   2.391  10.462 -0.0666  0.7890 -0.5020
 8355TIP3   OH249259   0.673   2.685   9.316  0.2474 -0.1318  0.7561
 8355TIP3    H149260   0.748   2.714   9.265 -0.2136 -0.0305  0.1273
 8355TIP3    H249261   0.696   2.597   9.346  0.3092 -0.3937 -0.0535
 8356TIP3   OH249262   1.604   0.060   9.959 -0.2704  0.4055 -0.1893
 8356TIP3    H149263   1.589   0.121  10.031 -0.4034  1.6143 -1.2208
 8356TIP3    H249264   1.517   0.029   9.934 -0.3043  0.7001 -0.4382
 8357TIP3   OH249265   0.938   1.416  10.128  0.3711 -0.2601 -0.3332
 8357TIP3    H149266   0.914   1.333  10.168  0.5957 -0.1445  0.0385
 8357TIP3    H249267   0.924   1.481  10.196  2.4253 -0.2707  0.1431
 8358TIP3   OH249268   0.462   5.573   9.414  0.6347 -0.0879 -0.4004
 8358TIP3    H149269   0.402   5.523   9.470 -1.8345  1.9375 -1.0411
 8358TIP3    H249270   0.428   5.561   9.325  1.0523  1.1941 -0.7648
 8359TIP3   OH249271   2.938   2.794  11.034  0.3475  1.0548  0.1840
 8359TIP3    H149272   2.848   2.766  11.050  0.3043  0.2693 -1.2031
 8359TIP3    H249273   2.982   2.785  11.119 -0.4740 -0.2132  0.5081
 8360TIP3   OH249274   0.045   3.640  10.955 -0.6279 -0.4964 -0.3228
 8360TIP3    H149275  -0.011   3.569  10.924 -0.3265 -0.6748 -0.4631
 8360TIP3    H249276   0.015   3.717  10.908 -2.4872 -0.0393  1.4961
 8361TIP3   OH249277   3.597   0.612   9.050 -0.3539 -0.5451  0.0534
 8361TIP3    H149278   3.569   0.521   9.041  1.6893 -1.1888 -0.4497
 8361TIP3    H249279   3.653   0.627   8.973  0.3447  0.7375  0.7805
 8362TIP3   OH249280   2.690   6.487   9.748  0.1976  0.5501  0.1541
 8362TIP3    H149281   2.654   6.572   9.771  1.8023  1.0610  0.8991
 8362TIP3    H249282   2.619   6.425   9.768 -0.4681  1.5594  1.0231
 8363TIP3   OH249283   0.770   3.341  11.909  0.1299  0.0526 -0.3131
 8363TIP3    H149284   0.861   3.363  11.927  0.0589  0.1533 -0.0765
 8363TIP3    H249285   0.725   3.353  11.993 -0.1815  0.4402 -0.5330
 8364TIP3   OH249286   1.155   3.675  10.564  0.1172  0.1761 -0.1032
 8364TIP3    H149287   1.071   3.682  10.611 -0.6261  0.5448 -1.4400
 8364TIP3    H249288   1.146   3.734  10.490  1.9493  0.9549  0.2327
 8365TIP3   OH249289   0.979   0.620  10.526 -0.2652 -0.5155 -0.1071
 8365TIP3    H149290   1.054   0.567  10.553  1.1643  2.0098  1.3118
 8365TIP3    H249291   0.903   0.563  10.538  1.1022 -2.0565  1.9462
 8366TIP3   OH249292   4.074   6.504  10.547 -0.5358  0.0009 -0.3191
 8366TIP3    H149293   4.054   6.585  10.593 -3.9144  1.2214 -3.4922
 8366TIP3    H249294   3.991   6.475  10.511  1.2813 -2.5709 -2.9473
 8367TIP3   OH249295   6.353   0.026   9.049  0.0249 -0.2466  0.2025
 8367TIP3    H149296   6.432   0.078   9.035  0.2583 -0.7487 -0.4110
 8367TIP3    H249297   6.383  -0.064   9.052 -0.7859 -0.8281 -3.5213
 8368TIP3   OH249298   5.174   3.313  11.495  0.0494 -0.4164  0.2073
 8368TIP3    H149299   5.086   3.348  11.480  0.1241  0.5943  1.9073
 8368TIP3    H249300   5.163   3.248  11.564  0.7274  0.2080  0.9113
 8369TIP3   OH249301   1.257   1.712  11.351 -0.4458  0.9700  0.4163
 8369TIP3    H149302   1.219   1.625  11.340 -0.5864  1.1140 -0.2774
 8369TIP3    H249303   1.326   1.700  11.416 -0.4294  0.3283  0.2889
 8370TIP3   OH249304   6.424   5.546  10.434  0.0217 -0.0425 -0.0566
 8370TIP3    H149305   6.460   5.465  10.397  0.5985  0.9460 -1.7893
 8370TIP3    H249306   6.416   5.528  10.528  0.8793 -1.8258 -0.2770
 8371TIP3   OH249307   1.234   5.240  11.026  0.1447 -0.2156  0.0035
 8371TIP3    H149308   1.286   5.223  11.105  0.5328 -0.9066 -0.3965
 8371TIP3    H249309   1.167   5.302  11.055 -0.3326 -1.2192  1.1238
 8372TIP3   OH249310   3.880   1.752  11.057  0.0542 -0.3365 -0.5074
 8372TIP3    H149311   3.815   1.686  11.033 -0.5758  0.5617 -1.3586
 8372TIP3    H249312   3.831   1.833  11.064  0.9621  0.2216 -0.3848
 8373TIP3   OH249313   4.619   5.186   9.187  0.0010 -0.3450 -0.2372
 8373TIP3    H149314   4.556   5.248   9.222  1.1708  0.1011  1.1522
 8373TIP3    H249315   4.666   5.153   9.263 -1.6542 -4.2338 -0.6751
 8374TIP3   OH249316   5.130   0.361  11.524 -0.3964 -0.2244  0.6222
 8374TIP3    H149317   5.118   0.429  11.591  0.6728  0.1039  0.5129
 8374TIP3    H249318   5.152   0.282  11.574 -2.0381 -0.6073  0.7701
 8375TIP3   OH249319   3.121   4.998   8.905 -0.6111  0.6367 -0.6261
 8375TIP3    H149320   3.178   4.922   8.919  2.6493  3.1033  0.7273
 8375TIP3    H249321   3.053   4.989   8.971  0.6391 -0.3455  0.5913
 8376TIP3   OH249322   4.841   3.194   8.990  0.2882 -0.2682 -0.0067
 8376TIP3    H149323   4.914   3.143   8.954  0.5137 -0.3061  0.4890
 8376TIP3    H249324   4.822   3.153   9.075  0.0982  0.1204  0.1426
 8377TIP3   OH249325   2.716   5.079   9.012 -0.0602 -0.4895 -0.0933
 8377TIP3    H149326   2.741   5.002   9.063 -0.3109 -0.0062  0.7708
 8377TIP3    H249327   2.646   5.046   8.954  1.5426 -1.4987 -1.5434
 8378TIP3   OH249328   1.216   5.205   9.658 -0.5118  0.7729 -0.3255
 8378TIP3    H149329   1.233   5.238   9.746 -0.0857 -1.5447  0.5406
 8378TIP3    H249330   1.302   5.209   9.615 -0.1240 -0.4603  0.2723
 8379TIP3   OH249331   6.473   4.026   9.547 -0.2492 -0.1542  0.6128
 8379TIP3    H149332   6.546   4.006   9.606 -0.6923 -0.1780  1.1653
 8379TIP3    H249333   6.435   3.941   9.526 -1.0041 -0.0470  1.4918
 8380TIP3   OH249334   2.677   0.743  10.562  0.5153 -0.1156  0.0456
 8380TIP3    H149335   2.746   0.682  10.586  0.2402 -0.9388 -1.2030
 8380TIP3    H249336   2.709   0.787  10.484 -1.7866 -3.2631 -3.0087
 8381TIP3   OH249337   0.938   2.757  11.617 -0.5302  0.1419 -0.3313
 8381TIP3    H149338   0.891   2.836  11.592  0.0424  0.9356  0.9684
 8381TIP3    H249339   0.875   2.686  11.604 -2.7904  1.3144  2.9571
 8382TIP3   OH249340   3.188   5.799  10.591  0.5496  0.0478 -0.2369
 8382TIP3    H149341   3.276   5.778  10.560  0.3428 -1.5054  0.1639
 8382TIP3    H249342   3.181   5.756  10.676  0.5695  2.9949  1.3653
 8383TIP3   OH249343   5.341   2.329   9.160 -0.5768  0.2842  0.2622
 8383TIP3    H149344   5.325   2.270   9.234 -3.0535  0.3709 -0.1344
 8383TIP3    H249345   5.311   2.281   9.084  0.6288  0.7508 -0.5350
 8384TIP3   OH249346   0.862   1.185  10.236 -0.0710 -0.2031 -0.0501
 8384TIP3    H149347   0.814   1.162  10.315  1.0772 -0.4994  0.5860
 8384TIP3    H249348   0.888   1.101  10.198  0.5205 -0.0431 -0.0092
 8385TIP3   OH249349   1.928   4.167  11.364  0.3816 -0.6150  0.4241
 8385TIP3    H149350   2.009   4.119  11.384  1.0862  0.3961  0.0623
 8385TIP3    H249351   1.956   4.241  11.311 -0.7769 -0.1677  0.4042
 8386TIP3   OH249352   1.937   1.463  10.344 -0.1489  0.5276  0.2730
 8386TIP3    H149353   1.958   1.458  10.251 -2.0418 -0.8728 -0.1425
 8386TIP3    H249354   1.946   1.373  10.376  0.2262  0.9428  1.3952
 8387TIP3   OH249355   1.519   5.586  11.256  0.0669 -0.1743  0.3081
 8387TIP3    H149356   1.495   5.676  11.276 -1.4631 -0.6878  0.9255
 8387TIP3    H249357   1.543   5.549  11.341 -0.3419 -0.6383  0.2240
 8388TIP3   OH249358   2.657   5.751   8.642 -0.3019  0.2805  0.3574
 8388TIP3    H149359   2.581   5.710   8.682 -0.7176 -1.0486 -1.6527
 8388TIP3    H249360   2.723   5.682   8.640  0.6179  1.1063  1.0959
 8389TIP3   OH249361   0.243   1.078  10.397 -0.4839  0.3188  0.3980
 8389TIP3    H149362   0.232   1.000  10.343  0.1168  0.1259  0.5462
 8389TIP3    H249363   0.337   1.096  10.394 -0.6706  1.3012  0.0067
 8390TIP3   OH249364   0.452   1.249   9.276  1.2646 -0.2763 -0.1030
 8390TIP3    H149365   0.464   1.170   9.223 -0.6429  0.1992 -1.3178
 8390TIP3    H249366   0.382   1.297   9.232 -0.2239  0.2938  2.6999
 8391TIP3   OH249367   0.593   4.623  10.874 -0.7439 -0.0245 -0.2185
 8391TIP3    H149368   0.627   4.550  10.924  1.3268  1.2346  0.3380
 8391TIP3    H249369   0.573   4.690  10.939  0.1914  0.9552 -0.8960
 8392TIP3   OH249370   3.406   3.674  11.650 -0.1207  0.1052  0.1480
 8392TIP3    H149371   3.400   3.659  11.744  0.5273 -1.1767  0.0052
 8392TIP3    H249372   3.488   3.632  11.624  0.1690  1.2231 -0.8529
 8393TIP3   OH249373   6.214   4.928  11.252  0.1985  0.0891  0.3777
 8393TIP3    H149374   6.273   4.859  11.284 -1.1708 -1.1059  0.4064
 8393TIP3    H249375   6.151   4.940  11.323 -0.2438  0.5681 -0.0925
 8394TIP3   OH249376   4.745   2.677  12.438 -0.9423 -0.0090 -0.0108
 8394TIP3    H149377   4.838   2.677  12.414 -0.9727  0.9051 -0.1537
 8394TIP3    H249378   4.717   2.587  12.423 -0.1001 -0.2755 -0.0475
 8395TIP3   OH249379   3.909   3.754  11.660  0.1361  0.6204  0.0029
 8395TIP3    H149380   3.969   3.813  11.614  0.4177  1.1326  1.0012
 8395TIP3    H249381   3.932   3.667  11.627  0.5771  0.9396 -0.5574
 8396TIP3   OH249382   0.946   1.988  11.955  0.4190  0.4352  0.1699
 8396TIP3    H149383   0.911   2.068  11.995 -0.9236 -0.6880  1.3512
 8396TIP3    H249384   0.963   2.013  11.864  0.2395  2.1120  0.5473
 8397TIP3   OH249385   3.949   2.515  12.565 -0.5686  0.3415 -0.0699
 8397TIP3    H149386   3.887   2.588  12.571 -1.6377 -0.2627 -2.3812
 8397TIP3    H249387   4.024   2.552  12.518  0.0547  0.5999  1.1021
 8398TIP3   OH249388   2.311   3.781  12.119  0.1139 -0.3286 -0.2579
 8398TIP3    H149389   2.342   3.867  12.089  1.1600 -0.6874 -0.2655
 8398TIP3    H249390   2.392   3.733  12.140 -0.3018 -2.1508 -2.5217
 8399TIP3   OH249391   3.690   0.508  11.179 -0.1932 -0.4968  0.2702
 8399TIP3    H149392   3.636   0.484  11.254 -0.3337  0.7002  0.5648
 8399TIP3    H249393   3.725   0.594  11.201 -0.1871 -0.1571 -1.0111
 8400TIP3   OH249394   2.860   5.836  11.130 -0.4361 -0.2237  0.0410
 8400TIP3    H149395   2.873   5.743  11.149 -0.5138 -0.1193  0.6054
 8400TIP3    H249396   2.852   5.878  11.215 -3.7423 -0.1707 -0.1457
 8401TIP3   OH249397   6.331   5.571  11.411 -0.5920  0.0640 -0.5548
 8401TIP3    H149398   6.298   5.605  11.328 -0.6028 -0.1910 -0.6561
 8401TIP3    H249399   6.340   5.649  11.467  0.1997  0.3501 -1.0560
 8402TIP3   OH249400   1.287   1.401  12.059  0.7431 -0.0401 -0.3547
 8402TIP3    H149401   1.206   1.413  12.010  0.4284  1.8260  0.4923
 8402TIP3    H249402   1.328   1.324  12.022 -1.0818 -0.6047 -1.2828
 8403TIP3   OH249403   6.457   2.773   9.881  0.9943  0.3427  0.4623
 8403TIP3    H149404   6.465   2.819   9.964  0.2830  0.7052  0.3411
 8403TIP3    H249405   6.409   2.693   9.902 -0.9728  1.3737  0.0996
 8404TIP3   OH249406   3.067   4.155   9.561 -0.2196 -0.2408 -0.0176
 8404TIP3    H149407   3.027   4.142   9.647  1.1859 -1.1526  0.5517
 8404TIP3    H249408   3.091   4.067   9.532  2.2732  0.2772  0.1964
 8405TIP3   OH249409   5.577   3.258  10.861 -0.1809  0.6958 -0.6568
 8405TIP3    H149410   5.650   3.269  10.800 -2.6757 -0.7900 -4.2758
 8405TIP3    H249411   5.513   3.324  10.834 -0.7123  1.2585  1.7076
 8406TIP3   OH249412   4.449   0.057   8.850 -0.6147  0.1411 -0.0441
 8406TIP3    H149413   4.519   0.057   8.916 -3.5653 -1.4517  3.4213
 8406TIP3    H249414   4.447  -0.032   8.817  0.4475  0.7863 -2.0354
 8407TIP3   OH249415   4.866   1.767  10.104  0.4816 -0.3617  0.3474
 8407TIP3    H149416   4.886   1.847  10.057 -1.6423 -0.6885 -1.2903
 8407TIP3    H249417   4.814   1.795  10.180 -1.9159 -0.2015 -1.2417
 8408TIP3   OH249418   2.958   6.365   9.936 -0.4238 -0.3979 -0.1443
 8408TIP3    H149419   2.926   6.326  10.017  2.2694 -0.1678  1.1341
 8408TIP3    H249420   3.046   6.328   9.925  0.3379  1.6416 -1.4863
 8409TIP3   OH249421   2.026   5.488   8.549  0.1404 -0.3321 -0.1768
 8409TIP3    H149422   2.071   5.571   8.534  0.3115 -0.4143 -0.1162
 8409TIP3    H249423   2.096   5.424   8.562  0.0080 -0.4583 -0.0729
 8410TIP3   OH249424   1.194   6.359  10.714  0.1532 -0.2724 -0.4932
 8410TIP3    H149425   1.261   6.397  10.658  0.5940 -0.2608  0.0331
 8410TIP3    H249426   1.185   6.269  10.683  1.2905 -0.6474  0.1985
 8411TIP3   OH249427   1.138   1.222   9.098 -0.4138  0.0962 -0.1100
 8411TIP3    H149428   1.146   1.308   9.058  0.0996  0.5167  0.8630
 8411TIP3    H249429   1.227   1.201   9.127 -1.0894  0.8747  2.9195
 8412TIP3   OH249430   5.313   3.416  10.178 -0.5098  0.2838  0.4703
 8412TIP3    H149431   5.392   3.460  10.209  0.2056 -0.4745 -0.2473
 8412TIP3    H249432   5.326   3.324  10.201  0.4985 -0.5176 -2.8251
 8413TIP3   OH249433   1.555   2.846  11.322 -0.2669 -0.1738  0.8853
 8413TIP3    H149434   1.497   2.882  11.255 -0.0603 -1.0166  0.2382
 8413TIP3    H249435   1.620   2.914  11.337 -1.1406  0.5974  1.2850
 8414TIP3   OH249436   5.105   0.629   8.607  0.2227 -0.3137 -0.2911
 8414TIP3    H149437   5.144   0.548   8.642  0.5729 -0.4241 -0.9159
 8414TIP3    H249438   5.014   0.606   8.591  0.4668 -0.7951 -1.0721
 8415TIP3   OH249439   2.539   1.088  11.193 -0.3690 -0.4348  0.8035
 8415TIP3    H149440   2.495   1.035  11.127 -1.6950 -2.6735  3.2434
 8415TIP3    H249441   2.630   1.058  11.191  0.1934  1.1790 -1.4272
 8416TIP3   OH249442   2.711   2.080  10.586 -0.2199  0.0430  0.4667
 8416TIP3    H149443   2.702   2.162  10.635  1.1366  1.0169 -0.8134
 8416TIP3    H249444   2.663   2.096  10.504 -2.2539 -1.4731  1.2572
 8417TIP3   OH249445   1.922   5.721  12.378  0.0661  0.3069  0.2149
 8417TIP3    H149446   1.912   5.653  12.445  0.9135  0.6127  0.6705
 8417TIP3    H249447   2.009   5.705  12.341 -0.5327 -0.0943 -1.1027
 8418TIP3   OH249448   5.334   3.092  11.060 -0.0236  0.1001  0.6226
 8418TIP3    H149449   5.359   3.129  11.145  0.6739 -0.1050  0.5111
 8418TIP3    H249450   5.416   3.090  11.010 -0.8876  3.0241 -1.1528
 8419TIP3   OH249451   3.695   6.172   9.325 -0.2202  0.1235  0.3858
 8419TIP3    H149452   3.692   6.246   9.386  2.8871  1.3769 -0.7721
 8419TIP3    H249453   3.711   6.096   9.380 -3.2718  0.2054  1.5909
 8420TIP3   OH249454   3.773   4.899   8.785  0.0263  0.0985  0.2501
 8420TIP3    H149455   3.811   4.986   8.777 -1.1079  0.5763 -0.1869
 8420TIP3    H249456   3.828   4.854   8.849  0.0143  1.4882  1.2702
 8421TIP3   OH249457   2.892   1.227  12.755 -0.0311  0.1977 -0.1841
 8421TIP3    H149458   2.865   1.135  12.764 -0.6502  0.3868 -0.0628
 8421TIP3    H249459   2.914   1.254  12.844  0.8479 -0.0392 -0.3238
 8422TIP3   OH249460   4.916   5.329  11.157 -0.1267  0.9033 -0.1935
 8422TIP3    H149461   4.880   5.285  11.080 -1.4759  0.8166  0.4556
 8422TIP3    H249462   4.877   5.417  11.154  1.2406  1.5264 -0.5779
 8423TIP3   OH249463   5.296   2.423  12.225 -0.0455 -0.5840  0.3219
 8423TIP3    H149464   5.210   2.457  12.198  0.1203 -1.1981 -1.0401
 8423TIP3    H249465   5.347   2.422  12.144  1.1414 -0.5735  1.0559
 8424TIP3   OH249466   1.813   3.729  10.753 -0.0413  0.1780  1.5078
 8424TIP3    H149467   1.908   3.717  10.747 -0.1724 -0.5041  0.4166
 8424TIP3    H249468   1.797   3.753  10.844  1.3939  2.4516  1.2273
 8425TIP3   OH249469   5.217   0.330  11.907  0.9295 -0.4382 -0.4364
 8425TIP3    H149470   5.163   0.379  11.844  2.1228 -0.2265 -1.3446
 8425TIP3    H249471   5.210   0.380  11.988  1.1770  0.5947 -1.0299
 8426TIP3   OH249472   0.883   3.170  10.815  0.2933  0.7530 -0.2899
 8426TIP3    H149473   0.875   3.130  10.902  2.0791 -0.2192 -0.5160
 8426TIP3    H249474   0.888   3.095  10.755  1.8830  1.3074 -0.9146
 8427TIP3   OH249475   1.929   5.046  11.171  0.2803 -0.3509 -0.5021
 8427TIP3    H149476   2.007   5.021  11.121  0.6773  0.8387 -0.5114
 8427TIP3    H249477   1.891   4.962  11.199  1.6231 -0.9604 -0.3986
 8428TIP3   OH249478   5.057   0.880   8.710 -0.1512  0.2590  0.2403
 8428TIP3    H149479   5.137   0.932   8.699 -0.9466  1.4305 -0.2214
 8428TIP3    H249480   5.067   0.808   8.648 -0.1160  1.2391 -0.9304
 8429TIP3   OH249481   1.678   1.998  10.575  0.4108  0.1167  0.0821
 8429TIP3    H149482   1.690   1.994  10.670  0.6597 -0.0082  0.0461
 8429TIP3    H249483   1.730   1.925  10.541  1.0288  0.6952 -0.2240
 8430TIP3   OH249484   5.322   1.024   8.704 -0.2585  0.3496  0.5946
 8430TIP3    H149485   5.278   1.109   8.701 -0.2563  0.3474  0.4985
 8430TIP3    H249486   5.415   1.045   8.695 -0.2481  0.3461  0.6937
 8431TIP3   OH249487   5.045   2.599  12.437 -0.4514  0.1375 -0.3241
 8431TIP3    H149488   5.059   2.688  12.405 -2.0590 -0.0428 -1.6380
 8431TIP3    H249489   4.998   2.554  12.366 -0.9193 -1.3526  0.8606
 8432TIP3   OH249490   0.667   2.895  11.716 -0.1869  0.3122 -0.6355
 8432TIP3    H149491   0.607   2.888  11.642  0.3106  2.6708 -1.3388
 8432TIP3    H249492   0.658   2.811  11.762 -1.7811 -0.5460 -2.3730
 8433TIP3   OH249493   2.126   3.655  10.398  0.1002  0.5102  0.9332
 8433TIP3    H149494   2.056   3.719  10.388  0.0355  0.3432  0.3202
 8433TIP3    H249495   2.104   3.585  10.336 -0.8590 -1.0372  2.8942
 8434TIP3   OH249496   6.239   1.793   9.235 -0.2502  0.1901 -0.1628
 8434TIP3    H149497   6.228   1.835   9.320  3.5632 -0.4015  0.8448
 8434TIP3    H249498   6.288   1.856   9.183  1.2094 -0.9979 -0.3267
 8435TIP3   OH249499   6.666   0.940  11.121  0.3970  0.2156  0.2525
 8435TIP3    H149500   6.659   0.960  11.027  1.2814 -0.0011  0.1342
 8435TIP3    H249501   6.576   0.917  11.147 -0.1216  1.5628 -0.2409
 8436TIP3   OH249502   3.685   2.414   9.260  0.1843 -0.2274 -0.2914
 8436TIP3    H149503   3.683   2.385   9.169  0.3422  1.0544 -0.7322
 8436TIP3    H249504   3.771   2.455   9.269  0.8229 -1.7267  0.9128
 8437TIP3   OH249505   6.302   1.956  12.626 -0.0840  0.1280 -0.3038
 8437TIP3    H149506   6.356   1.881  12.602  0.0476  0.1389 -0.0445
 8437TIP3    H249507   6.314   2.018  12.554  1.2495  0.6572  0.3307
 8438TIP3   OH249508   2.536   2.123  11.289 -0.4499 -0.1034 -0.1956
 8438TIP3    H149509   2.528   2.116  11.384 -0.8959 -4.1185 -0.3610
 8438TIP3    H249510   2.621   2.085  11.269 -0.8123 -0.2874 -1.4541
 8439TIP3   OH249511   0.420   5.530  10.766 -0.1862  0.6357  0.1310
 8439TIP3    H149512   0.446   5.484  10.846 -0.6254  0.0332 -0.0703
 8439TIP3    H249513   0.368   5.466  10.717 -1.3123  1.5301  0.1218
 8440TIP3   OH249514   1.166   6.584   9.504  0.4712 -0.2160  0.6620
 8440TIP3    H149515   1.190   6.535   9.582  1.1529  1.7237  1.7272
 8440TIP3    H249516   1.142   6.671   9.536  0.9959  0.7038 -1.2844
 8441TIP3   OH249517   0.250   5.202   9.754 -1.1593 -0.1013 -0.0915
 8441TIP3    H149518   0.301   5.166   9.826 -0.3254 -0.8408 -1.0193
 8441TIP3    H249519   0.161   5.210   9.789 -1.1501 -2.0703  0.5111
 8442TIP3   OH249520   0.558   4.997   9.681  0.2116  0.3761  0.1471
 8442TIP3    H149521   0.464   4.992   9.694  0.2491  0.3827  0.4493
 8442TIP3    H249522   0.570   5.061   9.611 -0.1115 -1.2954 -1.4970
 8443TIP3   OH249523   1.259   4.746  11.150  0.6558  0.0430  0.2088
 8443TIP3    H149524   1.194   4.677  11.132  0.4503  0.5549 -1.1398
 8443TIP3    H249525   1.288   4.729  11.240 -0.8328 -0.6184  0.5993
 8444TIP3   OH249526   4.066   1.885  11.312  0.3822  0.3486 -1.0232
 8444TIP3    H149527   4.052   1.794  11.288  1.9695  0.0615 -0.9597
 8444TIP3    H249528   4.027   1.935  11.241  0.1156 -0.4008 -1.4112
 8445TIP3   OH249529   0.192   5.186   9.417  0.2416  0.0472 -0.0722
 8445TIP3    H149530   0.102   5.154   9.406 -0.2361  1.1680  0.3724
 8445TIP3    H249531   0.183   5.265   9.471  1.2277  1.5282 -1.9466
 8446TIP3   OH249532   5.647   1.594  11.715 -0.1813  0.0908 -0.3984
 8446TIP3    H149533   5.622   1.540  11.789  0.0432  1.4679  0.7381
 8446TIP3    H249534   5.728   1.554  11.682 -0.4058 -0.6718 -0.0411
 8447TIP3   OH249535   6.701   1.503   9.070  0.0427 -0.2114  0.0791
 8447TIP3    H149536   6.644   1.565   9.116  0.0030  0.2148 -0.5267
 8447TIP3    H249537   6.643   1.461   9.005  0.3782  0.1138 -0.4356
 8448TIP3   OH249538   6.642   2.444   8.685  0.1357 -0.2202 -0.4986
 8448TIP3    H149539   6.709   2.452   8.753  0.6124 -1.1166 -0.8421
 8448TIP3    H249540   6.617   2.534   8.665  2.3544  0.2495 -1.4335
 8449TIP3   OH249541   0.173   2.965  11.417  0.5332 -0.7360 -0.8070
 8449TIP3    H149542   0.130   2.936  11.499  2.2519 -0.9308  0.0634
 8449TIP3    H249543   0.187   3.059  11.430  1.8971 -0.9886 -0.3370
 8450TIP3   OH249544   1.456   2.331   9.917  0.0699 -0.0070  0.2498
 8450TIP3    H149545   1.440   2.237   9.923 -0.3422 -0.1306 -1.8510
 8450TIP3    H249546   1.518   2.350   9.987 -0.0266 -1.7854  0.8671
 8451TIP3   OH249547   1.685   4.784  12.207  0.2782  0.2897 -0.1988
 8451TIP3    H149548   1.756   4.793  12.271  1.0357 -1.1157 -0.7881
 8451TIP3    H249549   1.645   4.871  12.203  0.2559  0.4405  2.1043
 8452TIP3   OH249550   0.215   6.428  10.384  0.3495 -0.7999 -0.4597
 8452TIP3    H149551   0.248   6.436  10.474 -4.0057  1.7559  1.2150
 8452TIP3    H249552   0.185   6.337  10.378 -0.6852 -0.6255  1.3028
 8453TIP3   OH249553   5.016   3.182  10.644 -0.0113  0.4415  0.0961
 8453TIP3    H149554   4.936   3.169  10.594  0.4872  0.3382 -0.6779
 8453TIP3    H249555   5.004   3.130  10.723 -1.1600  1.2717  0.4955
 8454TIP3   OH249556   3.604   5.384   9.772 -0.4180  0.5052 -0.0700
 8454TIP3    H149557   3.643   5.336   9.698  0.5963  1.0492  0.0862
 8454TIP3    H249558   3.578   5.315   9.834 -0.7003  0.0756 -0.6593
 8455TIP3   OH249559   0.850   0.870  11.258 -0.0242 -0.1007 -0.6670
 8455TIP3    H149560   0.884   0.781  11.252  0.1171 -0.0171 -1.0927
 8455TIP3    H249561   0.813   0.875  11.347  0.1414 -0.5179 -0.5719
 8456TIP3   OH249562   5.882   3.505   8.634  0.1429 -0.0238 -0.4480
 8456TIP3    H149563   5.875   3.524   8.727 -0.6205 -1.6020 -0.1495
 8456TIP3    H249564   5.818   3.564   8.593 -1.6517 -1.2836  0.3720
 8457TIP3   OH249565   0.642   1.486  10.075  0.1082 -0.0987 -0.1442
 8457TIP3    H149566   0.662   1.492   9.982  2.0158 -1.4010  0.1196
 8457TIP3    H249567   0.721   1.520  10.118 -0.3186 -0.5065  0.9844
 8458TIP3   OH249568   1.205   0.688   9.554  0.0497 -0.3352 -0.4976
 8458TIP3    H149569   1.178   0.609   9.507  0.9974 -0.5655 -0.6640
 8458TIP3    H249570   1.282   0.720   9.507 -0.6251  0.9906 -0.7455
 8459TIP3   OH249571   0.655   5.896   9.735 -0.1047  0.3662  0.0184
 8459TIP3    H149572   0.714   5.822   9.746 -0.0437  0.3604 -0.3613
 8459TIP3    H249573   0.662   5.945   9.817  1.2244  0.9536 -0.4279
 8460TIP3   OH249574   2.401   1.921   9.884 -0.3919  0.2693  0.2929
 8460TIP3    H149575   2.458   1.878   9.947 -1.0122  1.4906  1.7303
 8460TIP3    H249576   2.312   1.898   9.912 -0.7183  2.0717  0.8288
 8461TIP3   OH249577   2.889   2.283   9.200  0.0852  0.4650 -1.0717
 8461TIP3    H149578   2.916   2.362   9.247 -2.6053  1.1058 -0.4557
 8461TIP3    H249579   2.846   2.229   9.267 -1.0645 -0.0091 -2.1562
 8462TIP3   OH249580   1.461   2.504   9.692  0.2453 -0.0213  0.0450
 8462TIP3    H149581   1.408   2.560   9.749 -1.5255  0.0024 -1.5172
 8462TIP3    H249582   1.447   2.416   9.724  1.0105  0.1794  0.9606
 8463TIP3   OH249583   5.551   4.945   9.939  0.5946 -0.1847  0.4563
 8463TIP3    H149584   5.615   4.969   9.872  0.4939 -0.6748  0.1760
 8463TIP3    H249585   5.588   4.978  10.020  1.2881 -0.6031  0.3199
 8464TIP3   OH249586   4.983   2.035   9.429  0.5684 -0.3831  0.3260
 8464TIP3    H149587   5.031   1.952   9.440 -0.6144 -0.8365  2.4588
 8464TIP3    H249588   4.895   2.008   9.402 -0.1128  0.0913  1.9921
 8465TIP3   OH249589   5.620   1.788  11.500 -0.2644 -0.1366 -0.6657
 8465TIP3    H149590   5.539   1.808  11.455 -0.2900 -1.5324 -1.2683
 8465TIP3    H249591   5.596   1.722  11.566 -0.1324  1.4710  1.0932
 8466TIP3   OH249592   0.743   2.054  10.230  0.5347  0.4221  0.0215
 8466TIP3    H149593   0.783   2.136  10.200 -0.9882  1.4455  0.6022
 8466TIP3    H249594   0.658   2.052  10.186  0.0273 -0.1992  0.9805
 8467TIP3   OH249595   4.783   1.962  11.332  0.3618  0.3741 -0.2840
 8467TIP3    H149596   4.873   1.987  11.351  0.5935 -0.8034  0.2757
 8467TIP3    H249597   4.738   2.045  11.313  0.8489  1.3649  2.4052
 8468TIP3   OH249598   4.417   2.914  11.068  0.3416  0.3486 -0.3488
 8468TIP3    H149599   4.443   2.864  11.146  0.8355  0.2578 -0.5646
 8468TIP3    H249600   4.331   2.880  11.045  1.1022 -1.1637 -1.1089
 8469TIP3   OH249601   5.744   4.047   9.415  0.2560  0.2421 -0.4144
 8469TIP3    H149602   5.687   4.099   9.358 -1.1250 -0.4289  0.3083
 8469TIP3    H249603   5.694   3.967   9.433  1.0076  0.0632  1.0516
 8470TIP3   OH249604   4.681   1.033  11.965 -0.3454 -0.3689 -0.3014
 8470TIP3    H149605   4.728   0.984  12.032 -0.4967  0.8988  0.7655
 8470TIP3    H249606   4.620   0.969  11.927  0.1229 -1.2450  0.3806
 8471TIP3   OH249607   0.880   2.438  11.653 -0.0559 -0.0402 -0.2762
 8471TIP3    H149608   0.886   2.379  11.578 -0.0181  0.4839 -0.6929
 8471TIP3    H249609   0.963   2.426  11.700 -0.8065 -1.6681  0.6747
 8472TIP3   OH249610   6.382   1.374   9.574  0.2491  0.4961  0.6540
 8472TIP3    H149611   6.317   1.441   9.597  0.6140  0.5745  1.4838
 8472TIP3    H249612   6.425   1.353   9.657 -0.5578 -1.5211  0.6161
 8473TIP3   OH249613   4.058   3.476  11.984 -0.0000  0.0392 -0.4682
 8473TIP3    H149614   4.047   3.401  11.925 -0.4478 -0.9707  0.8618
 8473TIP3    H249615   4.152   3.494  11.982 -0.0783  0.4664 -1.9875
 8474TIP3   OH249616   2.629   6.585   9.386  0.2976 -0.2521 -0.1672
 8474TIP3    H149617   2.685   6.662   9.373  0.9845 -0.6637  0.2672
 8474TIP3    H249618   2.688   6.519   9.423 -0.3397 -0.9084 -0.3033
 8475TIP3   OH249619   3.967   3.243  11.840  0.3182 -0.0418 -0.0249
 8475TIP3    H149620   3.880   3.212  11.813  0.4414 -1.3870  1.0026
 8475TIP3    H249621   3.980   3.203  11.926  2.0794 -0.0935 -0.2953
 8476TIP3   OH249622   5.391   0.453   9.390 -0.1372  0.4107 -0.0962
 8476TIP3    H149623   5.473   0.491   9.358 -0.0782  0.3489 -0.0164
 8476TIP3    H249624   5.417   0.378   9.442 -0.2917 -0.2155 -0.9044
 8477TIP3   OH249625   5.793   6.013   9.237  0.5291 -0.0150  0.0178
 8477TIP3    H149626   5.836   6.039   9.156 -0.0161  0.5942 -0.0834
 8477TIP3    H249627   5.864   6.004   9.301  0.8383  0.6981 -0.2185
 8478TIP3   OH249628   4.036   2.256   9.977 -0.1982  0.4868 -0.0764
 8478TIP3    H149629   4.082   2.179   9.946 -0.0981  1.0899 -1.5142
 8478TIP3    H249630   3.968   2.222  10.035  1.0018 -0.5191  0.7920
 8479TIP3   OH249631   2.694   2.965  10.799  0.1267  0.0792  0.2624
 8479TIP3    H149632   2.622   2.999  10.852 -0.4492  0.8485 -0.9743
 8479TIP3    H249633   2.662   2.880  10.768 -0.4155  0.5854 -0.5902
 8480TIP3   OH249634   0.008   2.603  11.965 -0.1047  0.2587  0.0680
 8480TIP3    H149635   0.042   2.670  12.025  2.6912 -1.2077  0.2884
 8480TIP3    H249636   0.022   2.641  11.878 -2.1187  1.4675  0.2088
 8481TIP3   OH249637   6.305   2.515   9.679  0.1601  0.1885 -0.5339
 8481TIP3    H149638   6.264   2.521   9.593  0.6439  0.6353 -0.7394
 8481TIP3    H249639   6.398   2.502   9.661  0.6015  2.3214 -0.1293
 8482TIP3   OH249640   1.040   1.310  11.366  1.3231  0.0564  0.8440
 8482TIP3    H149641   1.038   1.224  11.408 -0.4802 -0.7721 -0.7847
 8482TIP3    H249642   0.952   1.346  11.382  1.7491  1.2170  0.6991
 8483TIP3   OH249643   0.315   1.786   9.028  0.2546  0.3979 -0.6431
 8483TIP3    H149644   0.278   1.701   9.006 -1.5943  0.8590  0.4579
 8483TIP3    H249645   0.383   1.766   9.093  0.1161 -0.2769 -0.6964
 8484TIP3   OH249646   1.168   3.072   9.393 -0.3994 -0.4521 -0.1068
 8484TIP3    H149647   1.085   3.057   9.348 -1.2904 -0.6200  1.4953
 8484TIP3    H249648   1.192   3.161   9.370 -0.6409 -0.6406 -1.1534
 8485TIP3   OH249649   1.684   5.105   9.552  0.0928 -0.3648  0.2577
 8485TIP3    H149650   1.709   5.095   9.461 -0.2931 -2.3253  0.3203
 8485TIP3    H249651   1.602   5.055   9.560  1.4090 -2.3923  2.1800
 8486TIP3   OH249652   5.729   1.610  10.783  0.1547 -0.3843 -0.2333
 8486TIP3    H149653   5.701   1.546  10.848 -0.6520  1.7680  1.6788
 8486TIP3    H249654   5.712   1.695  10.824 -1.0568  1.1340 -3.5228
 8487TIP3   OH249655   2.833   4.115  10.905  0.0067 -0.2272  0.3616
 8487TIP3    H149656   2.779   4.102  10.827 -3.1544 -1.1926  2.5219
 8487TIP3    H249657   2.923   4.113  10.872 -1.1421 -0.5185 -3.2228
 8488TIP3   OH249658   2.245   6.377  10.350 -0.0507  0.1416 -0.2975
 8488TIP3    H149659   2.159   6.355  10.386  0.6859  0.4088  1.7485
 8488TIP3    H249660   2.298   6.299  10.364  0.8107  0.9480  1.1188
 8489TIP3   OH249661   2.526   2.733  10.305 -0.8187  0.7710  0.5645
 8489TIP3    H149662   2.618   2.757  10.294 -0.7354  0.2929  0.1897
 8489TIP3    H249663   2.528   2.657  10.363 -0.7221 -1.1115 -1.7245
 8490TIP3   OH249664   0.421   4.462   9.364 -0.1006  0.3977 -0.4402
 8490TIP3    H149665   0.416   4.367   9.370 -1.0884  0.4404 -0.2980
 8490TIP3    H249666   0.377   4.493   9.444 -0.4644  0.9645 -0.8477
 8491TIP3   OH249667   0.431   5.715  11.031 -0.3682  0.8186 -0.0109
 8491TIP3    H149668   0.367   5.736  10.963 -1.3004 -0.8135  0.3192
 8491TIP3    H249669   0.458   5.625  11.011 -0.4087  0.4253  1.5928
 8492TIP3   OH249670   0.357   1.087  12.288  0.2897  0.6089 -0.1237
 8492TIP3    H149671   0.453   1.088  12.292  0.2373  1.0088  1.5058
 8492TIP3    H249672   0.329   1.127  12.370 -1.3087 -2.7704  1.1837
 8493TIP3   OH249673   5.244   0.456  10.504 -0.1441 -0.0247 -0.0861
 8493TIP3    H149674   5.305   0.510  10.552 -0.6161  0.8230 -0.4205
 8493TIP3    H249675   5.264   0.472  10.412 -2.2849  2.0293 -0.2886
 8494TIP3   OH249676   0.795   6.294  10.628 -0.4487  0.1172 -0.2219
 8494TIP3    H149677   0.783   6.317  10.536  1.5618 -1.7568 -1.0074
 8494TIP3    H249678   0.856   6.360  10.662  0.5521 -0.4787 -0.8430
 8495TIP3   OH249679   1.663   5.692  10.836  0.0682  0.7899  0.6172
 8495TIP3    H149680   1.644   5.665  10.746  0.5291  0.7818  0.5199
 8495TIP3    H249681   1.679   5.611  10.883 -0.0640  0.8007  0.6809
 8496TIP3   OH249682   2.126   0.300  10.814  0.2770  0.1907 -0.0617
 8496TIP3    H149683   2.131   0.270  10.723 -0.1149 -0.5054  0.1387
 8496TIP3    H249684   2.092   0.225  10.862  1.2707  0.2791  0.8034
 8497TIP3   OH249685   0.230   0.366  10.392 -0.1041 -0.3484 -0.1383
 8497TIP3    H149686   0.305   0.364  10.333 -0.4940  0.5335 -0.6956
 8497TIP3    H249687   0.174   0.294  10.364  0.1234 -0.4640 -0.2919
 8498TIP3   OH249688   1.498   5.479   9.420  0.8002 -0.0751  0.7688
 8498TIP3    H149689   1.467   5.396   9.384  0.9600 -0.1791  0.8730
 8498TIP3    H249690   1.418   5.527   9.441  0.7042 -0.0582  0.3782
 8499TIP3   OH249691   2.906   6.152   8.740 -0.0081  0.1639  0.0138
 8499TIP3    H149692   2.873   6.074   8.786 -1.3049 -0.0315 -1.1744
 8499TIP3    H249693   2.831   6.184   8.691  0.9664  1.1875 -0.8592
 8500TIP3   OH249694   4.431   1.113   9.940  0.1225  0.1887  0.1497
 8500TIP3    H149695   4.378   1.081  10.013  1.1639  0.1810  0.9338
 8500TIP3    H249696   4.381   1.091   9.862 -2.1955  2.3061  0.9023
 8501TIP3   OH249697   4.132   4.185  12.437 -0.5142 -0.5491 -0.1797
 8501TIP3    H149698   4.188   4.192  12.514  0.8934  0.4726 -1.2460
 8501TIP3    H249699   4.151   4.098  12.401  0.2113 -0.3113 -0.3857
 8502TIP3   OH249700   3.886   4.625  11.451 -0.1394 -0.2152 -0.1775
 8502TIP3    H149701   3.919   4.661  11.369 -0.2089 -0.1637 -0.1823
 8502TIP3    H249702   3.855   4.537  11.428  1.0254 -0.7059  0.0468
 8503TIP3   OH249703   3.841   2.492  11.060  0.1783 -0.5028  0.2240
 8503TIP3    H149704   3.870   2.475  10.971  1.3904 -1.2108  0.7279
 8503TIP3    H249705   3.784   2.417  11.081  1.0082 -1.0629  0.5108
 8504TIP3   OH249706   3.849   0.326  11.655  0.2822  0.0046  0.2025
 8504TIP3    H149707   3.866   0.391  11.587 -1.2760  0.1020 -0.1441
 8504TIP3    H249708   3.869   0.370  11.737  1.3848  0.1637 -0.1382
 8505TIP3   OH249709   1.359   5.573  10.500  0.1710  0.0044 -0.2969
 8505TIP3    H149710   1.454   5.584  10.487  0.4121 -1.1445  0.3730
 8505TIP3    H249711   1.334   5.508  10.434 -0.6815  2.2026 -2.2621
 8506TIP3   OH249712   2.234   2.020  11.419  0.9046 -0.1008 -0.1057
 8506TIP3    H149713   2.322   1.988  11.439  0.6638 -0.0763  1.0663
 8506TIP3    H249714   2.242   2.115  11.418  0.9165 -0.1019 -0.1742
 8507TIP3   OH249715   1.324   2.472   9.179  0.0493  0.1274  0.2183
 8507TIP3    H149716   1.409   2.438   9.151 -0.1783 -0.7906  0.5867
 8507TIP3    H249717   1.261   2.405   9.151 -0.5124  0.6237  0.2651
 8508TIP3   OH249718   2.640   3.371  11.181  0.1606  0.4174  0.3492
 8508TIP3    H149719   2.588   3.401  11.256 -0.5517  0.2227 -0.0557
 8508TIP3    H249720   2.672   3.285  11.207 -0.0957  0.3443  0.4305
 8509TIP3   OH249721   0.092   0.288   9.172  0.0076  0.6812 -0.1123
 8509TIP3    H149722   0.132   0.222   9.229 -0.5061  0.8184  0.4099
 8509TIP3    H249723   0.162   0.353   9.159  0.0149  0.8439  0.6750
 8510TIP3   OH249724   2.532   6.398  10.677 -0.3189  0.2527  0.1952
 8510TIP3    H149725   2.610   6.409  10.623 -0.3345  1.1375  0.3380
 8510TIP3    H249726   2.565   6.366  10.761 -0.3980 -2.2889 -0.6728
 8511TIP3   OH249727   0.090   1.230  10.567 -0.1833  0.4612  0.0804
 8511TIP3    H149728   0.138   1.183  10.499 -0.5826  0.0803  0.0606
 8511TIP3    H249729   0.081   1.167  10.639  1.3625  1.2535  1.0333
 8512TIP3   OH249730   2.830   4.592  10.800  0.1706  0.0220 -0.6305
 8512TIP3    H149731   2.859   4.531  10.733  0.5529 -0.2281 -0.2411
 8512TIP3    H249732   2.880   4.672  10.783 -0.1762  0.1642 -1.0097
 8513TIP3   OH249733   3.619   1.355  11.557 -0.1849 -0.0922 -0.1354
 8513TIP3    H149734   3.555   1.314  11.499 -1.8718  1.0055  0.8653
 8513TIP3    H249735   3.626   1.294  11.631 -2.4106  1.0997  1.1729
 8514TIP3   OH249736   5.190   6.297  10.511 -0.5876  0.1502  0.4668
 8514TIP3    H149737   5.143   6.215  10.498  1.8328 -1.2240 -0.2016
 8514TIP3    H249738   5.198   6.335  10.423  1.3409 -0.7499  0.1924
 8515TIP3   OH249739   6.497   3.042  10.019 -0.1107  0.0763  0.0721
 8515TIP3    H149740   6.529   3.126  10.052 -0.3178 -0.4580  1.7657
 8515TIP3    H249741   6.577   2.994   9.995 -0.0345  1.0718 -1.8685
 8516TIP3   OH249742   3.655   3.345  12.033  0.3726  0.0457 -0.0231
 8516TIP3    H149743   3.574   3.380  12.071  0.3774  1.3096 -1.0830
 8516TIP3    H249744   3.722   3.410  12.056  1.2410 -1.2909  1.3639
 8517TIP3   OH249745   3.510   0.693  10.025  0.2437 -0.1492  0.7382
 8517TIP3    H149746   3.478   0.605  10.041  0.0010 -0.6143 -1.8847
 8517TIP3    H249747   3.597   0.681   9.987 -0.8891  0.4500 -2.4087
 8518TIP3   OH249748   1.385   1.963  12.821  0.2755 -0.2364 -0.1448
 8518TIP3    H149749   1.347   1.892  12.768 -0.6881  0.1417  0.0258
 8518TIP3    H249750   1.478   1.940  12.828  0.3773 -0.4526 -1.7537
 8519TIP3   OH249751   0.771   5.710  10.948  0.4042  0.6411 -0.3579
 8519TIP3    H149752   0.804   5.620  10.950 -2.7397 -0.6426 -0.6052
 8519TIP3    H249753   0.745   5.728  11.039  0.4255  1.0309 -0.4284
 8520TIP3   OH249754   2.814   3.753  11.186  0.2668 -0.5197  0.4120
 8520TIP3    H149755   2.899   3.796  11.196  0.1380 -0.3107  0.6154
 8520TIP3    H249756   2.795   3.759  11.093  1.5832 -2.6863 -0.0646
 8521TIP3   OH249757   5.898   1.853  11.946  0.2550 -0.3116 -0.3281
 8521TIP3    H149758   5.921   1.850  12.039 -0.0903  1.9202 -0.1040
 8521TIP3    H249759   5.871   1.764  11.924  0.8544 -0.9963  1.5635
 8522TIP3   OH249760   4.921   4.189  11.353 -0.1067 -0.6463  0.2874
 8522TIP3    H149761   4.894   4.176  11.444  0.9623  0.8027  0.8636
 8522TIP3    H249762   4.863   4.133  11.302  0.7324 -3.2697  2.0133
 8523TIP3   OH249763   1.532   6.631  11.652  0.3956  0.1583 -0.0488
 8523TIP3    H149764   1.603   6.592  11.703  1.6557 -0.6163 -2.2439
 8523TIP3    H249765   1.573   6.658  11.570 -1.6607  0.6557 -0.9902
 8524TIP3   OH249766   1.327   5.946   9.075 -0.3794  0.3066  0.0042
 8524TIP3    H149767   1.401   5.893   9.046  0.2250  0.9760  0.3094
 8524TIP3    H249768   1.298   5.992   8.996  0.1324  0.7641  0.0781
 8525TIP3   OH249769   0.891   5.545  10.511 -0.0635 -0.0126 -0.2344
 8525TIP3    H149770   0.821   5.551  10.575  0.4104 -2.3324  0.6010
 8525TIP3    H249771   0.971   5.543  10.563  0.5166  0.7240 -1.0666
 8526TIP3   OH249772   0.513   0.596  11.106  0.0024 -0.7589 -0.0474
 8526TIP3    H149773   0.531   0.661  11.174 -1.9359 -0.5631  0.3131
 8526TIP3    H249774   0.499   0.515  11.154 -0.1662 -0.8855 -0.3131
 8527TIP3   OH249775   4.286   0.606  10.971 -0.0096  0.3556 -0.0696
 8527TIP3    H149776   4.276   0.621  11.065 -1.2832 -0.0478 -0.1236
 8527TIP3    H249777   4.379   0.620  10.954  0.4288 -0.5379  1.4313
 8528TIP3   OH249778   4.249   2.522  11.189  0.2240 -0.0559  0.1804
 8528TIP3    H149779   4.211   2.494  11.273  1.4180  0.8357  1.0568
 8528TIP3    H249780   4.328   2.470  11.180  0.4805  0.3627 -0.0194
 8529TIP3   OH249781   4.682   6.504  12.015 -0.5498  0.2914 -0.2463
 8529TIP3    H149782   4.689   6.565  12.089  1.6481  0.9740 -0.9485
 8529TIP3    H249783   4.729   6.547  11.943  0.3536 -1.8468 -1.0331
 8530TIP3   OH249784   5.531   0.831  10.926  0.2417 -0.2142  0.0398
 8530TIP3    H149785   5.543   0.762  10.992 -0.6372  1.6739  2.2999
 8530TIP3    H249786   5.437   0.840  10.917  0.3410  0.6834 -0.2198
 8531TIP3   OH249787   1.688   3.250   9.498 -0.3573 -0.0974  0.0159
 8531TIP3    H149788   1.597   3.223   9.504 -0.5430  0.8083  2.3549
 8531TIP3    H249789   1.738   3.169   9.503 -1.0027 -0.4414  1.1072
 8532TIP3   OH249790   2.512   1.030  11.749  0.1525  0.6512 -0.1901
 8532TIP3    H149791   2.538   1.067  11.834 -1.9644 -2.6940  2.1421
 8532TIP3    H249792   2.553   0.943  11.748 -2.6033 -0.7308 -0.9331
 8533TIP3   OH249793   3.473   1.278   9.437  0.0306  0.0568 -0.2087
 8533TIP3    H149794   3.464   1.303   9.345 -1.4356 -1.5910 -0.5796
 8533TIP3    H249795   3.542   1.212   9.438  0.2400  0.2759 -0.0735
 8534TIP3   OH249796   3.106   5.988   8.614 -0.0292 -0.2847  0.4951
 8534TIP3    H149797   3.061   6.072   8.620  0.3205 -0.1254  0.9567
 8534TIP3    H249798   3.044   5.925   8.651 -0.5950 -0.3618 -0.5359
 8535TIP3   OH249799   0.582   4.395  10.455  0.3754 -0.5453 -0.2858
 8535TIP3    H149800   0.525   4.394  10.532 -2.5619 -1.0082 -2.2901
 8535TIP3    H249801   0.599   4.488  10.439 -0.4306 -0.3446 -0.0347
 8536TIP3   OH249802   3.891   1.232   8.837  0.0536 -0.3367  0.0576
 8536TIP3    H149803   3.881   1.256   8.929  1.7740  1.1754 -0.0856
 8536TIP3    H249804   3.881   1.315   8.790  3.7358 -0.1519 -0.6952
 8537TIP3   OH249805   4.016   6.667   9.428  0.0978 -0.1095 -0.5674
 8537TIP3    H149806   3.971   6.644   9.510 -1.1600 -0.6815 -1.3918
 8537TIP3    H249807   4.025   6.762   9.432 -2.6735  0.2370 -1.0732
 8538TIP3   OH249808   1.482   2.643  10.157  0.4752 -0.6137  0.9365
 8538TIP3    H149809   1.543   2.667  10.087 -1.2009 -1.7172 -1.0082
 8538TIP3    H249810   1.495   2.549  10.169 -0.4350 -0.7517  0.8930
 8539TIP3   OH249811   2.981   1.011   9.359 -1.1634 -0.5377 -0.4269
 8539TIP3    H149812   3.045   0.975   9.298 -1.5725 -2.9324  0.4717
 8539TIP3    H249813   2.950   0.936   9.409 -2.8948  0.9282  0.8348
 8540TIP3   OH249814   1.895   1.020  10.786 -0.1360  0.1302 -0.1781
 8540TIP3    H149815   1.989   1.036  10.782 -0.1100 -0.0754 -0.4394
 8540TIP3    H249816   1.862   1.084  10.849 -0.0968  1.4569 -1.4421
 8541TIP3   OH249817   1.548   4.092  10.152 -0.4042  0.8495  0.4338
 8541TIP3    H149818   1.630   4.042  10.162 -1.0136 -0.9011 -2.3862
 8541TIP3    H249819   1.571   4.163  10.092 -1.0188  0.1334 -0.6593
 8542TIP3   OH249820   6.270   2.311  11.014 -0.7482 -0.2702  0.4708
 8542TIP3    H149821   6.334   2.240  11.009  0.9217  1.1370  0.8075
 8542TIP3    H249822   6.310   2.383  10.964 -2.6430  0.2728 -0.3742
 8543TIP3   OH249823   5.499   5.498  12.046  0.5354 -0.4764 -0.3282
 8543TIP3    H149824   5.563   5.429  12.059  0.4508 -1.7286 -4.8292
 8543TIP3    H249825   5.552   5.575  12.022  0.4771 -0.6761 -1.1193
 8544TIP3   OH249826   4.785   3.649   9.627  0.3240 -0.2806  0.3329
 8544TIP3    H149827   4.851   3.660   9.558 -0.2217 -0.2259 -0.1961
 8544TIP3    H249828   4.835   3.644   9.708  0.9078  1.8500  0.1866
 8545TIP3   OH249829   3.207   1.972  11.445 -0.0649 -0.1375 -0.0493
 8545TIP3    H149830   3.293   2.002  11.415  0.1919  0.3228  1.1214
 8545TIP3    H249831   3.200   1.882  11.411 -0.1090  0.5960 -2.1045
 8546TIP3   OH249832   4.387   4.974  10.031  0.0676 -0.0391  0.2548
 8546TIP3    H149833   4.415   5.052  10.079 -0.0510 -0.5208  1.1313
 8546TIP3    H249834   4.391   4.999   9.939 -0.5354  1.1833  0.5497
 8547TIP3   OH249835   4.647   6.114   8.706  0.0511  0.0364 -0.1100
 8547TIP3    H149836   4.704   6.151   8.773 -0.8694 -1.6338  1.6753
 8547TIP3    H249837   4.707   6.073   8.643  0.8856  0.0145  0.6818
 8548TIP3   OH249838   0.510   6.337  10.075  0.0472 -0.2086  0.1127
 8548TIP3    H149839   0.423   6.321  10.110 -1.0068  0.3525 -2.0747
 8548TIP3    H249840   0.540   6.251  10.044  0.3788 -0.4367  1.0388
 8549TIP3   OH249841   4.002   2.865  12.138  0.2583 -0.1479 -0.0277
 8549TIP3    H149842   4.083   2.813  12.141  0.1754 -0.3275 -0.5933
 8549TIP3    H249843   3.933   2.801  12.153  0.2615  0.1510  1.3229
 8550TIP3   OH249844   6.033   0.328  16.779 -0.2801 -0.1391  0.0116
 8550TIP3    H149845   5.977   0.349  16.854 -0.7104 -1.7843  0.1781
 8550TIP3    H249846   5.972   0.302  16.710  0.2061 -3.8417  0.7681
 8551TIP3   OH249847   0.877   1.200  12.053 -0.1660 -0.3154  0.2089
 8551TIP3    H149848   0.873   1.105  12.063  0.1937 -0.2142  1.4464
 8551TIP3    H249849   0.933   1.215  11.977 -2.0683 -1.1297 -1.4408
 8552TIP3   OH249850   6.397   4.145   8.957  0.2036  0.8126  0.1627
 8552TIP3    H149851   6.343   4.106   9.026  0.9894 -0.3402  0.1672
 8552TIP3    H249852   6.436   4.069   8.913  0.1363  1.5498 -1.2036
 8553TIP3   OH249853   3.144   1.956   9.005  0.2301  0.0257 -0.5293
 8553TIP3    H149854   3.187   1.975   9.089  0.7242  0.8360 -0.9533
 8553TIP3    H249855   3.059   1.921   9.029  1.4551 -2.6054  0.3851
 8554TIP3   OH249856   5.704   0.132  11.525 -0.2962  0.1616 -0.4290
 8554TIP3    H149857   5.794   0.108  11.501 -0.3082 -0.1338 -0.1780
 8554TIP3    H249858   5.695   0.223  11.495  0.1194  0.2282 -0.3605
 8555TIP3   OH249859   6.605   1.272  11.011  0.3083 -0.4090 -0.0713
 8555TIP3    H149860   6.551   1.193  11.016 -0.5089  0.0688 -0.9013
 8555TIP3    H249861   6.694   1.241  10.996 -0.1580 -1.1559 -1.4060
 8556TIP3   OH249862   6.426   4.408   9.018 -0.5905  0.1135 -0.0548
 8556TIP3    H149863   6.425   4.320   8.979  2.8076  0.0414 -0.2738
 8556TIP3    H249864   6.346   4.450   8.984 -0.9641 -1.9902 -2.0830
 8557TIP3   OH249865   0.016   3.033  10.410 -0.0698  0.1281  0.0222
 8557TIP3    H149866  -0.050   2.997  10.470 -0.8998 -0.6043 -1.2962
 8557TIP3    H249867   0.022   3.126  10.434  0.5214 -0.3632  2.0348
 8558TIP3   OH249868   6.154   2.161   9.334 -0.2317  0.0593  0.0962
 8558TIP3    H149869   6.092   2.099   9.294  0.6960 -0.2077 -0.9552
 8558TIP3    H249870   6.213   2.106   9.385 -1.7518  0.4356  2.4401
 8559TIP3   OH249871   2.121   1.848  10.323 -0.1635 -0.4947  1.0109
 8559TIP3    H149872   2.135   1.790  10.398  0.5017 -1.3517  0.2579
 8559TIP3    H249873   2.148   1.934  10.354  0.7310 -0.9548  1.5775
 8560TIP3   OH249874   1.154   5.281  10.608  0.0380 -0.6219 -0.0169
 8560TIP3    H149875   1.245   5.268  10.633  1.1405 -0.4052 -3.4874
 8560TIP3    H249876   1.139   5.375  10.619  0.5755 -0.4831 -0.4587
 8561TIP3   OH249877   0.709   6.657   9.455  0.2225 -0.6517  0.6088
 8561TIP3    H149878   0.711   6.579   9.510 -0.9471  0.8601  2.9774
 8561TIP3    H249879   0.654   6.719   9.504  2.5075  2.3019 -0.2439
 8562TIP3   OH249880   1.990   4.401  19.870 -0.0439  0.2540  0.7231
 8562TIP3    H149881   1.930   4.443  19.808  0.0450 -1.1534 -0.3697
 8562TIP3    H249882   1.935   4.380  19.946 -1.2757 -1.9417 -0.6663
 8563TIP3   OH249883   4.534   4.214  11.465 -0.1161 -0.1631 -0.2936
 8563TIP3    H149884   4.503   4.294  11.422 -1.5912 -0.5011  0.0995
 8563TIP3    H249885   4.464   4.151  11.453 -0.7741 -0.1892  2.8329
 8564TIP3   OH249886   5.457   2.937   8.799 -0.0151  0.0368  0.1127
 8564TIP3    H149887   5.377   2.965   8.844 -0.2780 -0.4277 -0.0579
 8564TIP3    H249888   5.428   2.867   8.741  0.9702 -2.2819  2.2433
 8565TIP3   OH249889   2.809   5.315  11.120  0.2368  0.4772 -0.6762
 8565TIP3    H149890   2.858   5.309  11.038  1.5983 -0.7116  0.1761
 8565TIP3    H249891   2.801   5.225  11.150  0.9811  0.9731  1.1652
 8566TIP3   OH249892   0.385   5.372   9.934  0.4117  0.5782 -0.2760
 8566TIP3    H149893   0.447   5.357   9.863  0.0914 -1.2233 -0.2133
 8566TIP3    H249894   0.431   5.341  10.013 -0.3623 -0.2736 -0.1544
 8567TIP3   OH249895   1.403   5.974   9.867  0.0765  0.3648  0.6310
 8567TIP3    H149896   1.417   5.881   9.883 -0.9884  0.0378 -0.1481
 8567TIP3    H249897   1.490   6.013   9.868  1.1673 -1.4063 -3.5939
 8568TIP3   OH249898   5.326   4.859   8.849 -0.2032  0.3049  0.3778
 8568TIP3    H149899   5.256   4.848   8.785  0.3153 -0.3000 -0.1064
 8568TIP3    H249900   5.324   4.952   8.871  0.7718  0.9555 -1.9251
 8569TIP3   OH249901   6.645   3.150  11.030 -0.3346  0.5988 -0.6700
 8569TIP3    H149902   6.725   3.099  11.047 -1.4408 -0.4942  1.7102
 8569TIP3    H249903   6.574   3.088  11.041 -1.5910  1.5443 -2.7806
 8570TIP3   OH249904   3.528   0.127  12.453  0.3611 -0.2646 -0.0342
 8570TIP3    H149905   3.588   0.132  12.527 -0.3479  0.2362  0.5165
 8570TIP3    H249906   3.461   0.065  12.480 -0.0817  0.1736 -0.1244
 8571TIP3   OH249907   0.951   1.753  11.464  0.3394  0.0455 -0.4043
 8571TIP3    H149908   1.009   1.793  11.399  1.0060  0.6858  0.5520
 8571TIP3    H249909   0.906   1.826  11.505  2.7319  0.1339  2.4813
 8572TIP3   OH249910   5.832   2.544   9.200 -0.6557  0.0107  0.2989
 8572TIP3    H149911   5.767   2.476   9.184 -0.5543  0.0050 -0.1097
 8572TIP3    H249912   5.917   2.500   9.189 -0.5837  0.4130 -0.9933
 8573TIP3   OH249913   0.040   3.244   9.293 -0.5438 -0.3615  0.1721
 8573TIP3    H149914   0.028   3.208   9.205 -1.5709 -1.1573  0.6120
 8573TIP3    H249915   0.085   3.327   9.279 -1.3632 -0.1132 -1.1552
 8574TIP3   OH249916   1.379   6.635   9.894 -0.2437 -0.0224  0.2447
 8574TIP3    H149917   1.299   6.589   9.919  0.3612 -1.2050  0.0591
 8574TIP3    H249918   1.378   6.634   9.798 -0.5608  0.9719  0.2269
 8575TIP3   OH249919   2.595   4.716  10.867 -0.2724 -0.5613 -0.2646
 8575TIP3    H149920   2.565   4.669  10.789 -0.7553  0.8400 -0.9404
 8575TIP3    H249921   2.679   4.675  10.888 -0.6413 -1.6885 -0.8565
 8576TIP3   OH249922   5.369   4.772   8.484  0.2415  0.0521 -0.3761
 8576TIP3    H149923   5.382   4.824   8.563 -1.0539  1.1110 -0.8365
 8576TIP3    H249924   5.434   4.701   8.492 -0.4685 -0.4234  2.0834
 8577TIP3   OH249925   2.159   1.750  11.609  0.2729  0.2556 -0.1754
 8577TIP3    H149926   2.155   1.771  11.516  0.6325  1.3860  0.0551
 8577TIP3    H249927   2.072   1.716  11.630  0.1363  0.1577 -0.8838
 8578TIP3   OH249928   1.681   5.038  10.710 -0.6100 -0.3183  0.0969
 8578TIP3    H149929   1.695   5.014  10.618  2.7599  0.3707  0.3255
 8578TIP3    H249930   1.687   4.956  10.758 -1.6445 -0.5767 -0.1846
 8579TIP3   OH249931   2.697   0.930   9.248 -0.1411  0.1276  0.1383
 8579TIP3    H149932   2.634   0.863   9.221  0.9488 -0.5397 -0.8153
 8579TIP3    H249933   2.777   0.908   9.201  0.9018  0.8015  1.5370
 8580TIP3   OH249934   4.559   3.769  12.309 -0.3446  0.3725  0.0817
 8580TIP3    H149935   4.632   3.716  12.276  0.2448  0.3704  1.3350
 8580TIP3    H249936   4.511   3.710  12.368 -2.2405 -0.0848 -1.7846
 8581TIP3   OH249937   0.753   1.227  10.771 -0.2842  0.6723 -0.5619
 8581TIP3    H149938   0.756   1.264  10.859 -1.8137  1.4898 -0.8233
 8581TIP3    H249939   0.737   1.301  10.713 -0.3209  0.0145 -1.4291
 8582TIP3   OH249940   0.742   3.251   9.567  0.2109 -0.2027 -0.3292
 8582TIP3    H149941   0.734   3.232   9.474 -0.0510  0.6547 -0.4934
 8582TIP3    H249942   0.821   3.205   9.594 -0.0292 -0.9415 -0.8389
 8583TIP3   OH249943   1.810   3.288  10.198 -0.6103 -0.3527 -0.3082
 8583TIP3    H149944   1.766   3.323  10.276  0.3995  1.4340 -0.4999
 8583TIP3    H249945   1.739   3.248  10.147 -1.6055  0.2170  0.5862
 8584TIP3   OH249946   5.199   3.323   9.023  0.4745 -0.4250 -0.3077
 8584TIP3    H149947   5.246   3.290   9.100  1.7293  2.3352  0.2071
 8584TIP3    H249948   5.129   3.377   9.059 -0.6237 -1.2388 -1.1428
 8585TIP3   OH249949   4.516   2.045  10.540  0.3473 -0.2122  0.2931
 8585TIP3    H149950   4.604   2.014  10.556  0.6971  0.7025  0.1896
 8585TIP3    H249951   4.515   2.135  10.574  0.1036  0.5425 -1.5735
 8586TIP3   OH249952   5.199   4.201  11.341 -0.3143  0.3602 -0.9550
 8586TIP3    H149953   5.196   4.157  11.256  1.0179 -1.0784 -0.3037
 8586TIP3    H249954   5.107   4.209  11.368 -0.6214 -1.8402 -1.2156
 8587TIP3   OH249955   0.056   4.689  10.921 -0.5008 -0.4022 -0.0914
 8587TIP3    H149956   0.142   4.647  10.916  0.8514  1.9787  0.9619
 8587TIP3    H249957   0.038   4.717  10.831 -0.6124 -1.6419 -0.4746
 8588TIP3   OH249958   2.758   3.006  10.520 -0.1856 -0.3052  0.0195
 8588TIP3    H149959   2.749   2.981  10.612 -0.2552 -2.0272 -0.4344
 8588TIP3    H249960   2.849   3.036  10.513 -0.8498  2.2707  1.1604
 8589TIP3   OH249961   0.397   0.293  11.817 -0.2789  0.5678  0.0979
 8589TIP3    H149962   0.406   0.261  11.906 -2.7431 -0.4042  0.0560
 8589TIP3    H249963   0.457   0.238  11.766 -1.5359 -1.3933  0.6380
 8590TIP3   OH249964   1.578   6.253   9.117  0.0903  0.1344 -0.3505
 8590TIP3    H149965   1.621   6.182   9.165 -0.5530 -0.2909 -0.3963
 8590TIP3    H249966   1.647   6.288   9.060  0.6554  0.1418  0.3165
 8591TIP3   OH249967   1.290   1.712   9.518 -0.3300 -0.4064  0.3921
 8591TIP3    H149968   1.234   1.702   9.595  0.4606 -1.0313  0.9052
 8591TIP3    H249969   1.378   1.696   9.551  0.1108  0.1954 -0.4763
 8592TIP3   OH249970   4.726   4.022  10.935  0.4500  0.2106 -0.0334
 8592TIP3    H149971   4.733   3.933  10.900 -1.5655  0.3211 -0.8773
 8592TIP3    H249972   4.693   4.073  10.861  1.8979  1.7568  0.3369
 8593TIP3   OH249973   2.510   3.611  12.218  0.7211 -0.0994  0.4779
 8593TIP3    H149974   2.555   3.636  12.299 -1.5175  1.3673  1.3387
 8593TIP3    H249975   2.455   3.537  12.243 -0.2942  0.6210  0.4294
 8594TIP3   OH249976   6.664   0.551  11.808  0.2419  0.2363 -0.7539
 8594TIP3    H149977   6.754   0.520  11.804  0.1214 -0.6039  1.4784
 8594TIP3    H249978   6.671   0.646  11.806  1.0710  0.1696 -1.8232
 8595TIP3   OH249979   3.459   0.548  10.972  0.3557  0.2478  0.1784
 8595TIP3    H149980   3.513   0.611  11.018 -1.0113 -0.3405  2.7851
 8595TIP3    H249981   3.369   0.569  10.998 -0.1438 -2.9482  1.5908
 8596TIP3   OH249982   2.401   1.365   9.813  0.3516 -0.1748 -0.0116
 8596TIP3    H149983   2.460   1.441   9.820 -0.6414  0.7078 -0.7811
 8596TIP3    H249984   2.398   1.330   9.902  0.3331  1.0885  0.5205
 8597TIP3   OH249985   4.425   6.495   8.803 -0.2406  1.0516  0.2197
 8597TIP3    H149986   4.341   6.513   8.845 -0.6553  0.7191 -0.4538
 8597TIP3    H249987   4.420   6.403   8.778  0.1117  1.1790 -0.3191
 8598TIP3   OH249988   5.340   6.484  10.658  0.2974 -1.0216  0.4961
 8598TIP3    H149989   5.433   6.496  10.636  0.0532 -1.1592 -0.6666
 8598TIP3    H249990   5.315   6.405  10.612 -0.4542 -0.8857  0.6663
 8599TIP3   OH249991   5.717   1.488  12.646  0.2695  0.0598 -0.6561
 8599TIP3    H149992   5.668   1.559  12.604  0.6730 -0.2534 -1.6934
 8599TIP3    H249993   5.656   1.414  12.648 -0.0765  0.3565  0.2229
 8600TIP3   OH249994   4.036   0.298   9.121  0.1591 -0.2188  0.0854
 8600TIP3    H149995   4.124   0.329   9.100  0.2559  1.4794  2.5755
 8600TIP3    H249996   3.979   0.345   9.061  0.8936 -1.3102 -1.5295
 8601TIP3   OH249997   2.114   1.582   9.032 -0.4626  0.4807  0.7717
 8601TIP3    H149998   2.164   1.553   9.109 -0.0955  0.0951  0.3926
 8601TIP3    H249999   2.145   1.671   9.015 -0.9476  0.7772  1.4009
 8602TIP3   OH250000   6.327   4.246  12.046  0.5308  0.3144  0.1213
 8602TIP3    H150001   6.340   4.339  12.032  0.7557  0.4877  1.3695
 8602TIP3    H250002   6.413   4.213  12.071  0.8563 -0.5845 -1.9846
 8603TIP3   OH250003   1.747   0.721   9.230  0.7221  0.1161 -0.1653
 8603TIP3    H150004   1.752   0.630   9.202 -1.2454  0.0016 -0.2621
 8603TIP3    H250005   1.837   0.753   9.223  1.5691 -1.9586  0.4544
 8604TIP3   OH250006   0.665   3.504   9.486 -0.4112 -0.6267 -0.1816
 8604TIP3    H150007   0.706   3.425   9.522 -0.7740 -0.8949 -0.3575
 8604TIP3    H250008   0.611   3.537   9.558  0.3450 -0.0906  0.1646
 8605TIP3   OH250009   0.577   1.195  12.013  0.0204 -0.3320 -0.4647
 8605TIP3    H150010   0.552   1.174  11.923  2.3969 -0.4020 -1.1580
 8605TIP3    H250011   0.621   1.280  12.007  0.9296 -0.7145  0.5001
 8606TIP3   OH250012   0.972   0.427  11.991 -0.1763  0.4353 -0.6388
 8606TIP3    H150013   0.949   0.520  11.993 -2.4463 -0.0824  0.8011
 8606TIP3    H250014   1.032   0.415  12.065 -0.4147  0.6420 -0.4108
 8607TIP3   OH250015   4.367   4.314   8.908 -0.1442 -0.0307  0.1216
 8607TIP3    H150016   4.274   4.298   8.890 -0.0833 -0.0591 -0.1725
 8607TIP3    H250017   4.382   4.403   8.876 -0.4330  0.5639  1.5615
 8608TIP3   OH250018   2.829   1.754  11.988  0.3150 -0.0570 -0.2961
 8608TIP3    H150019   2.890   1.704  12.042  0.7705  0.6154 -0.1778
 8608TIP3    H250020   2.791   1.819  12.048  0.7363  0.6162 -0.7398
 8609TIP3   OH250021   1.231   0.236  11.921  0.1750 -0.4173  0.2992
 8609TIP3    H150022   1.317   0.239  11.963  0.7471  1.4115 -0.8864
 8609TIP3    H250023   1.170   0.224  11.994  1.2619  0.8618  1.5051
 8610TIP3   OH250024   3.224   2.792  10.264 -0.7231  0.7461  0.3720
 8610TIP3    H150025   3.316   2.817  10.273 -0.3193 -0.1738 -0.8870
 8610TIP3    H250026   3.208   2.731  10.337  0.2302 -0.5746 -0.4834
 8611TIP3   OH250027   1.436   0.611  10.543 -0.0342 -0.3012 -0.1533
 8611TIP3    H150028   1.487   0.687  10.514 -0.7527  0.2998  0.1151
 8611TIP3    H250029   1.499   0.539  10.543  0.5033  0.1481 -1.0643
 8612TIP3   OH250030   6.216   1.602   9.563  0.1543 -0.3462  0.1781
 8612TIP3    H150031   6.173   1.655   9.496  1.5483  0.0198 -0.4466
 8612TIP3    H250032   6.214   1.658   9.641  1.1166  0.4449 -0.3338
 8613TIP3   OH250033   2.364   1.185  12.229  0.5396 -0.3345  0.1231
 8613TIP3    H150034   2.298   1.191  12.298 -0.6299 -1.4975 -0.8472
 8613TIP3    H250035   2.432   1.127  12.265  0.2622 -0.4100  0.5297
 8614TIP3   OH250036   6.028   3.119   9.456 -0.0717  0.4780 -0.2938
 8614TIP3    H150037   6.036   3.028   9.426  1.1443  0.2885  0.5428
 8614TIP3    H250038   5.976   3.113   9.536  1.4856  0.2725  0.7439
 8615TIP3   OH250039   4.829   4.063   9.588  0.7193  0.8063  0.2969
 8615TIP3    H150040   4.792   4.044   9.502 -0.6424  0.7317  0.8652
 8615TIP3    H250041   4.806   4.155   9.604 -0.5636  0.3419  1.2776
 8616TIP3   OH250042   5.238   4.120  10.080  0.0095  0.2290  0.1028
 8616TIP3    H150043   5.218   4.041  10.030 -0.5137 -0.3589  1.2142
 8616TIP3    H250044   5.332   4.133  10.067 -0.1885  0.3839 -1.4208
 8617TIP3   OH250045   5.182   5.642  11.895  0.3557  0.5608  0.3130
 8617TIP3    H150046   5.204   5.554  11.867  1.7689  1.2750 -0.9984
 8617TIP3    H250047   5.252   5.665  11.957 -0.3532  0.5474  1.1312
 8618TIP3   OH250048   4.860   2.490  10.215  0.3147  0.0023 -0.1132
 8618TIP3    H150049   4.950   2.523  10.208  0.9513 -0.9629  2.3174
 8618TIP3    H250050   4.855   2.420  10.150  1.4355 -0.1314 -0.0746
 8619TIP3   OH250051   6.202   3.619  12.596 -0.2160 -0.1730  0.0406
 8619TIP3    H150052   6.295   3.637  12.584  0.0590 -0.2110  1.9014
 8619TIP3    H250053   6.169   3.604  12.507  1.7905 -1.3218 -0.5748
 8620TIP3   OH250054   6.017   0.042  11.495 -0.0011 -0.2962  0.4193
 8620TIP3    H150055   6.045  -0.024  11.558 -0.5285 -0.9977 -0.0597
 8620TIP3    H250056   5.959  -0.005  11.435  3.1146 -0.5515 -2.6998
 8621TIP3   OH250057   4.731   2.385  10.498 -0.6303 -0.4482 -0.3567
 8621TIP3    H150058   4.821   2.387  10.467 -0.1893  0.1063  0.8805
 8621TIP3    H250059   4.682   2.435  10.434 -0.0046 -0.4770 -0.8720
 8622TIP3   OH250060   1.314   2.741   8.584  0.5143 -0.5526 -0.3562
 8622TIP3    H150061   1.325   2.828   8.545  0.2938 -0.0436  0.7048
 8622TIP3    H250062   1.249   2.698   8.528  0.2154  0.1578 -0.5681
 8623TIP3   OH250063   0.768   5.411  10.000  0.1977 -0.2325  0.3902
 8623TIP3    H150064   0.854   5.386   9.966  0.6021  0.9656  0.5027
 8623TIP3    H250065   0.760   5.504   9.981 -1.3025 -0.4274 -0.0797
 8624TIP3   OH250066   1.104   3.685   9.981  0.2642  0.0867  0.5381
 8624TIP3    H150067   1.065   3.768  10.005  2.3283  1.1065  0.6119
 8624TIP3    H250068   1.154   3.659  10.058  0.9387 -0.3932 -0.0475
 8625TIP3   OH250069   5.972   2.986   9.092 -0.1596  0.2173 -0.0307
 8625TIP3    H150070   6.030   3.020   9.024 -0.3379  0.4374 -0.0779
 8625TIP3    H250071   5.972   3.054   9.160 -1.0785  0.6623 -0.4484
 8626TIP3   OH250072   4.318   5.692   9.319 -0.1996  0.2450 -0.1269
 8626TIP3    H150073   4.316   5.635   9.243  0.4995  0.1674 -0.1000
 8626TIP3    H250074   4.372   5.766   9.292 -0.9660  0.8219 -0.1071
 8627TIP3   OH250075   5.248   6.350  11.384  0.0473  0.1905  0.0654
 8627TIP3    H150076   5.253   6.335  11.478 -1.9590  0.1022  0.1843
 8627TIP3    H250077   5.176   6.412  11.372  0.5440  0.5373 -1.3834
 8628TIP3   OH250078   4.338   3.668  11.317 -0.7052 -0.0287  0.5512
 8628TIP3    H150079   4.418   3.622  11.292 -1.1989 -0.4523 -0.2799
 8628TIP3    H250080   4.341   3.750  11.268 -1.1710 -0.4064 -0.1255
 8629TIP3   OH250081   6.355   2.026   9.107 -0.5690 -0.0776 -0.2523
 8629TIP3    H150082   6.285   2.051   9.047 -0.1754 -0.1842 -0.7641
 8629TIP3    H250083   6.435   2.060   9.066 -0.3655  0.3787  0.5180
 8630TIP3   OH250084   2.441   2.627   9.873 -0.0438 -0.7174 -0.2422
 8630TIP3    H150085   2.402   2.555   9.922 -1.0366 -0.0673 -0.0578
 8630TIP3    H250086   2.448   2.698   9.937 -0.9919  0.0146 -0.9257
 8631TIP3   OH250087   1.350   0.419  11.242 -0.0217  0.0876  0.3425
 8631TIP3    H150088   1.431   0.398  11.196  0.1794  0.4407  0.5238
 8631TIP3    H250089   1.284   0.426  11.173  0.2785  0.6184  0.1019
 8632TIP3   OH250090   2.352   3.399  11.580 -0.6857 -0.2055 -0.2597
 8632TIP3    H150091   2.381   3.307  11.580 -0.4985 -0.1462 -0.5331
 8632TIP3    H250092   2.382   3.433  11.665 -0.2608 -0.2447 -0.3896
 8633TIP3   OH250093   6.655   2.254  12.376 -0.5549  0.4974  0.9230
 8633TIP3    H150094   6.727   2.307  12.410 -0.2765  1.5595 -1.1748
 8633TIP3    H250095   6.698   2.185  12.325 -0.9638  1.6270 -1.0428
 8634TIP3   OH250096   2.486   3.917  10.552  0.0615 -0.2148  0.4481
 8634TIP3    H150097   2.513   3.828  10.574  1.1619 -0.3780 -1.4044
 8634TIP3    H250098   2.492   3.922  10.457  2.7069  2.6031  0.5745
 8635TIP3   OH250099   3.375   2.659  11.140  0.5342  0.8778  0.3596
 8635TIP3    H150100   3.412   2.720  11.076 -0.5272  2.3968  1.1161
 8635TIP3    H250101   3.308   2.611  11.091  0.6896  1.0423 -0.0201
 8636TIP3   OH250102   0.315   1.479  11.082  0.3624  0.0391 -0.0550
 8636TIP3    H150103   0.350   1.489  11.171 -0.3551 -1.1912  0.3999
 8636TIP3    H250104   0.220   1.478  11.094  0.2451  0.3715 -0.9015
 8637TIP3   OH250105   5.996   3.223  10.399  0.3322 -0.5106  0.1987
 8637TIP3    H150106   5.943   3.162  10.347  0.5538 -1.0910  0.6417
 8637TIP3    H250107   6.009   3.298  10.341 -2.3396  0.3830  0.6182
 8638TIP3   OH250108   0.725   0.533  10.363  0.0400  0.4933  0.6670
 8638TIP3    H150109   0.711   0.606  10.423  0.7054  0.5621  0.7422
 8638TIP3    H250110   0.689   0.564  10.280 -0.9501  0.3677  1.0348
 8639TIP3   OH250111   1.795   0.751   9.676 -0.1729  0.0169 -0.0004
 8639TIP3    H150112   1.884   0.717   9.666  0.0342  0.2578  0.9156
 8639TIP3    H250113   1.758   0.748   9.588  0.8435  0.1840 -0.4489
 8640TIP3   OH250114   6.326   1.885  10.096  0.0865  0.3160 -0.3436
 8640TIP3    H150115   6.289   1.968  10.066  1.7084  0.6610 -1.4829
 8640TIP3    H250116   6.420   1.896  10.086  0.3833 -1.3438  0.3780
 8641TIP3   OH250117   5.325   1.279  11.209 -0.6735  0.4720 -0.1361
 8641TIP3    H150118   5.315   1.214  11.279 -0.2207  0.2297 -0.2910
 8641TIP3    H250119   5.235   1.306  11.188 -0.8994 -0.4238 -0.3705
 8642TIP3   OH250120   4.325   1.678   9.927 -0.3791 -0.1422  0.0382
 8642TIP3    H150121   4.327   1.774   9.923 -1.4871 -0.1618 -1.6196
 8642TIP3    H250122   4.264   1.658   9.998 -1.1494  0.3888 -0.4659
 8643TIP3   OH250123   0.231   0.836   9.833  1.1281  0.5755 -0.1444
 8643TIP3    H150124   0.251   0.802   9.745  0.4212  1.0111 -0.4822
 8643TIP3    H250125   0.295   0.906   9.847  0.0698  1.7847 -1.1066
 8644TIP3   OH250126   1.498   2.997  11.554  0.0506  0.3193  0.0648
 8644TIP3    H150127   1.435   2.992  11.481  0.8984  0.0143 -0.6637
 8644TIP3    H250128   1.444   3.018  11.630 -1.0018 -0.4398 -0.4444
 8645TIP3   OH250129   5.748   2.680  10.972  0.2924  0.4431 -0.1410
 8645TIP3    H150130   5.818   2.644  11.027 -0.7642 -0.0931  0.9066
 8645TIP3    H250131   5.749   2.774  10.991  2.3716  0.8770 -2.0874
 8646TIP3   OH250132   3.844   0.133  11.903 -0.0780 -0.0649  0.0670
 8646TIP3    H150133   3.928   0.093  11.927 -0.4900 -0.9441  0.0948
 8646TIP3    H250134   3.854   0.156  11.810 -0.0384 -0.8191 -0.1255
 8647TIP3   OH250135   4.721   0.226  11.074 -0.6210  0.5384  0.0167
 8647TIP3    H150136   4.759   0.208  10.988 -1.1907  1.1682 -0.3823
 8647TIP3    H250137   4.791   0.273  11.121 -0.3007  0.1752 -0.0950
 8648TIP3   OH250138   1.502   2.935   9.463  0.0878 -0.0132  0.1010
 8648TIP3    H150139   1.424   2.933   9.518  0.2063  2.1854  0.4390
 8648TIP3    H250140   1.557   2.863   9.495 -0.9331 -0.3398  1.1709
 8649TIP3   OH250141   4.500   4.722  10.664 -0.1464  0.3250 -0.0754
 8649TIP3    H150142   4.574   4.683  10.710 -1.0458 -1.3120  0.0860
 8649TIP3    H250143   4.535   4.743  10.577  0.9765  1.3633  0.5983
 8650TIP3   OH250144   1.838   3.188  11.422 -0.4116 -0.2300  0.2982
 8650TIP3    H150145   1.920   3.210  11.468  0.3955 -0.2306 -1.0989
 8650TIP3    H250146   1.814   3.102  11.457  0.2026 -0.2507  0.6874
 8651TIP3   OH250147   3.516   3.949  11.670 -0.0426  0.2881  0.6424
 8651TIP3    H150148   3.486   3.866  11.633  0.9735 -0.5326  1.6019
 8651TIP3    H250149   3.575   3.985  11.604 -0.4658  0.2481  0.2336
 8652TIP3   OH250150   3.478   0.954  10.841 -0.3216  0.3694 -0.0992
 8652TIP3    H150151   3.552   1.009  10.868 -0.9131  1.2733 -0.2609
 8652TIP3    H250152   3.491   0.871  10.887  0.7777  0.5140 -0.1075
 8653TIP3   OH250153   0.822   2.743   9.634 -0.2767 -0.2684  0.1234
 8653TIP3    H150154   0.861   2.821   9.673 -0.7928 -0.3700  0.8703
 8653TIP3    H250155   0.886   2.714   9.569 -0.4047  1.1790 -0.6830
 8654TIP3   OH250156   3.507   4.622  11.766 -0.2504 -0.1369 -0.2114
 8654TIP3    H150157   3.472   4.591  11.682 -0.8809 -0.4866  0.1690
 8654TIP3    H250158   3.602   4.618  11.756 -0.2720  1.7519 -1.6157
 8655TIP3   OH250159   5.372   1.892   9.758 -0.1415 -0.3319 -1.0629
 8655TIP3    H150160   5.366   1.942   9.839 -0.8662 -0.2490 -1.1604
 8655TIP3    H250161   5.433   1.941   9.703  1.3215 -1.0255 -0.1313
 8656TIP3   OH250162   6.251   2.586   8.729 -0.0105  0.3773 -0.2033
 8656TIP3    H150163   6.225   2.651   8.795  1.5604 -0.2560  1.1027
 8656TIP3    H250164   6.292   2.637   8.659 -2.7774  1.1898 -1.3922
 8657TIP3   OH250165   0.496   0.734  11.335  0.1542  0.0951  0.0402
 8657TIP3    H150166   0.539   0.728  11.421  0.8753  1.6610 -0.1742
 8657TIP3    H250167   0.412   0.689  11.347  0.5009 -0.2424  1.3891
 8658TIP3   OH250168   4.518   5.417   8.562  0.5048 -0.1887 -0.0630
 8658TIP3    H150169   4.537   5.436   8.470  0.0285  0.9022  0.0584
 8658TIP3    H250170   4.603   5.420   8.605  0.6059  0.2618 -0.2923
 8659TIP3   OH250171   3.519   1.140  11.421  0.2936 -0.6458  0.1204
 8659TIP3    H150172   3.494   1.178  11.337 -0.0448 -0.9909  0.0636
 8659TIP3    H250173   3.577   1.067  11.399  0.3136 -0.6533  0.1955
 8660TIP3   OH250174   1.060   3.853  10.399  0.0494  0.4081  0.1317
 8660TIP3    H150175   1.046   3.869  10.306 -0.6050  0.2794  0.2022
 8660TIP3    H250176   1.074   3.939  10.437  1.3817  0.3786 -0.2444
 8661TIP3   OH250177   2.902   5.595   8.621 -0.5676  0.2806  0.0153
 8661TIP3    H150178   2.909   5.524   8.685 -0.2576 -0.7868 -1.1653
 8661TIP3    H250179   2.940   5.559   8.541  0.3743  2.0842 -0.3919
 8662TIP3   OH250180   6.086   4.588   8.634  0.2599 -0.3177  0.6906
 8662TIP3    H150181   6.028   4.664   8.639 -0.6509 -1.0625  1.9581
 8662TIP3    H250182   6.031   4.519   8.598  1.7173  0.1483 -2.8074
 8663TIP3   OH250183   0.639   5.370  11.434  0.1948 -0.1873  0.2841
 8663TIP3    H150184   0.696   5.439  11.399  0.1245  0.9066  2.1702
 8663TIP3    H250185   0.647   5.380  11.529 -1.4452 -1.4537  0.5782
 8664TIP3   OH250186   0.575   2.700  11.452 -0.4352  0.1543 -0.3392
 8664TIP3    H150187   0.617   2.617  11.434  1.0011 -0.2229  3.7147
 8664TIP3    H250188   0.623   2.764  11.398  0.0123 -1.2957 -1.7156
 8665TIP3   OH250189   1.841   5.641  11.526  0.2749 -0.1889  0.2088
 8665TIP3    H150190   1.870   5.602  11.443  1.1614  0.2593  0.3039
 8665TIP3    H250191   1.822   5.566  11.582 -0.3791 -0.4958 -0.4137
 8666TIP3   OH250192   5.564   4.675   8.881 -0.6184 -0.7198  0.4491
 8666TIP3    H150193   5.550   4.583   8.905  0.2130 -1.2163 -0.8693
 8666TIP3    H250194   5.478   4.705   8.851 -0.0446 -2.5236 -3.6269
 8667TIP3   OH250195   3.869   3.349   9.933  0.5416  0.2831  0.0854
 8667TIP3    H150196   3.897   3.307   9.852  0.6871 -0.2322  0.4035
 8667TIP3    H250197   3.778   3.321   9.945  1.3003 -1.8126  1.4789
 8668TIP3   OH250198   2.568   1.483  10.392  0.7510  0.0092 -0.5767
 8668TIP3    H150199   2.614   1.402  10.368  0.2134 -0.2442 -0.7699
 8668TIP3    H250200   2.611   1.512  10.472 -0.5309 -1.7083  0.8081
 8669TIP3   OH250201   1.361   1.727   9.959 -0.5628  0.0196  0.5137
 8669TIP3    H150202   1.308   1.804   9.979 -0.1381  0.2681  0.6893
 8669TIP3    H250203   1.301   1.654   9.969 -0.6279  0.2138  1.7294
 8670TIP3   OH250204   5.408   0.431  10.193  0.2112  0.3210 -0.3411
 8670TIP3    H150205   5.438   0.356  10.142 -1.3488 -1.8672  1.7933
 8670TIP3    H250206   5.314   0.436  10.176  0.2616  1.8230 -0.3927
 8671TIP3   OH250207   0.785   5.799  10.581  0.2117  0.0800  0.2128
 8671TIP3    H150208   0.769   5.870  10.519 -3.6892 -1.0618 -0.3167
 8671TIP3    H250209   0.820   5.728  10.528 -0.5620  0.0043 -0.2066
 8672TIP3   OH250210   6.471   4.007   9.210  0.0641  0.0232  0.5931
 8672TIP3    H150211   6.396   3.948   9.213  1.3171 -1.6298  0.5536
 8672TIP3    H250212   6.458   4.065   9.285 -1.2518 -0.2185  0.5760
 8673TIP3   OH250213   5.361   1.452   9.905 -0.0973  0.6990 -0.0054
 8673TIP3    H150214   5.442   1.437   9.857  0.4204 -0.4100  1.1605
 8673TIP3    H250215   5.339   1.367   9.944 -1.1191  1.2787  0.7588
 8674TIP3   OH250216   6.218   1.472   9.085 -0.4502 -0.2938  0.2448
 8674TIP3    H150217   6.144   1.497   9.140 -0.2534  0.5263  0.1600
 8674TIP3    H250218   6.179   1.445   9.002 -0.8478 -2.8426  1.1688
 8675TIP3   OH250219   5.335   3.809  10.095  0.6867  0.4674  0.4864
 8675TIP3    H150220   5.372   3.763  10.170  2.7391  0.1423 -0.6287
 8675TIP3    H250221   5.401   3.876  10.074  0.3630  0.2919 -1.2264
 8676TIP3   OH250222   4.858   0.626   9.177  0.1842 -0.4987 -0.8067
 8676TIP3    H150223   4.786   0.606   9.117 -0.1087 -0.5494 -0.4412
 8676TIP3    H250224   4.891   0.710   9.147 -2.0110  1.0763  0.8471
 8677TIP3   OH250225   0.872   3.754  11.041 -0.4965  0.3438  0.3140
 8677TIP3    H150226   0.811   3.727  11.110 -1.1267  3.7281  1.2768
 8677TIP3    H250227   0.958   3.750  11.082 -0.6505  0.3947  0.6444
 8678TIP3   OH250228   2.942   5.360  10.854 -0.1697  0.0560 -0.1887
 8678TIP3    H150229   2.896   5.315  10.783  0.6091 -0.9994 -0.0625
 8678TIP3    H250230   3.034   5.338  10.839  0.0682  0.4038  0.7443
 8679TIP3   OH250231   4.754   0.986   9.998  0.4088  0.1186 -0.7356
 8679TIP3    H150232   4.745   1.024   9.911 -2.3929  1.7266  0.1362
 8679TIP3    H250233   4.700   0.907   9.995 -1.2361  1.1622 -0.0153
 8680TIP3   OH250234   2.296   0.082  10.901 -0.4669  0.0419 -0.1903
 8680TIP3    H150235   2.244   0.063  10.979  0.6612  0.2141  0.6375
 8680TIP3    H250236   2.314   0.176  10.907 -0.5338  0.0940 -0.7648
 8681TIP3   OH250237   3.373   4.120  10.349 -0.8327 -0.4490 -0.1327
 8681TIP3    H150238   3.338   4.187  10.407  0.3268  0.6098 -0.6169
 8681TIP3    H250239   3.455   4.093  10.390  0.5711  1.1042 -1.7556
 8682TIP3   OH250240   3.349   4.239   9.327  0.1089 -0.2819 -0.5532
 8682TIP3    H150241   3.394   4.229   9.410 -1.0034  1.4922  0.3299
 8682TIP3    H250242   3.282   4.171   9.327 -2.2095  1.7875  1.7119
 8683TIP3   OH250243   4.541   0.756   9.995  0.7964 -0.0507 -0.0406
 8683TIP3    H150244   4.583   0.702  10.062  0.2746 -0.4934 -0.0635
 8683TIP3    H250245   4.454   0.774  10.031  0.1974 -1.0085 -0.9616
 8684TIP3   OH250246   5.528   5.715  10.884 -0.6332 -0.0282 -0.0784
 8684TIP3    H150247   5.545   5.802  10.921 -1.0756 -0.5136  1.3290
 8684TIP3    H250248   5.475   5.671  10.951 -0.7295 -1.2498 -0.9409
 8685TIP3   OH250249   5.660   5.844  11.187 -0.0171 -0.1914 -0.3815
 8685TIP3    H150250   5.662   5.850  11.282  0.3173  0.3127 -0.4175
 8685TIP3    H250251   5.671   5.750  11.168 -0.4944 -0.3466  0.0775
 8686TIP3   OH250252   5.632   0.473   9.014  0.1704  0.1182 -0.1766
 8686TIP3    H150253   5.608   0.387   8.982  1.2726  0.3994 -1.8502
 8686TIP3    H250254   5.615   0.532   8.941 -0.3443  1.3110  0.8593
 8687TIP3   OH250255   4.890   0.899   9.097  0.0349 -0.2503  0.5759
 8687TIP3    H150256   4.916   0.836   9.030 -0.9524 -0.5195  0.4293
 8687TIP3    H250257   4.848   0.970   9.048  0.1249 -0.0180  0.8332
 8688TIP3   OH250258   2.575   5.700  11.180  0.3360 -0.3476 -0.3879
 8688TIP3    H150259   2.664   5.670  11.161  0.5959  0.7889 -1.0979
 8688TIP3    H250260   2.544   5.642  11.250  0.8441 -2.1148 -1.5741
 8689TIP3   OH250261   1.663   4.338  10.394 -0.1228 -0.4738 -0.1672
 8689TIP3    H150262   1.709   4.339  10.310 -1.9899  3.5473 -1.3845
 8689TIP3    H250263   1.723   4.382  10.454  0.4883 -1.7861  0.2262
 8690TIP3   OH250264   3.716   1.882   9.843  0.8035 -0.2209 -0.8777
 8690TIP3    H150265   3.750   1.951   9.900 -1.8701  0.9246 -0.5438
 8690TIP3    H250266   3.662   1.929   9.779 -0.7451 -1.9678 -0.9115
 8691TIP3   OH250267   4.946   3.010  10.862  0.0801 -0.0222  0.5157
 8691TIP3    H150268   4.862   3.046  10.835 -0.1792 -0.3477  0.8873
 8691TIP3    H250269   4.965   3.053  10.945  0.8125  0.8725 -0.0840
 8692TIP3   OH250270   2.757   4.923  10.644  0.0069  0.1555  0.2544
 8692TIP3    H150271   2.797   4.901  10.728 -0.3910 -2.3705 -0.1305
 8692TIP3    H250272   2.829   4.923  10.582  0.0184 -0.1240  0.2637
 8693TIP3   OH250273   5.081   2.805  10.364  0.0082  0.0175  0.1441
 8693TIP3    H150274   5.007   2.836  10.416 -0.1641  1.5102 -0.9418
 8693TIP3    H250275   5.093   2.872  10.297  0.8440 -1.3869 -1.1565
 8694TIP3   OH250276   1.931   4.346  11.045  0.2216  0.1200  0.5141
 8694TIP3    H150277   1.989   4.380  11.113  0.3735  0.1394  0.3761
 8694TIP3    H250278   1.977   4.269  11.011  1.8967  2.0625 -2.0088
 8695TIP3   OH250279   3.184   1.610   9.903 -0.4120 -0.0840 -0.0155
 8695TIP3    H150280   3.237   1.668   9.957 -0.8715  0.6060 -0.2802
 8695TIP3    H250281   3.147   1.668   9.836  0.4866 -0.9822 -1.3289
 8696TIP3   OH250282   4.611   4.748  11.678 -0.0779  0.3482 -0.0748
 8696TIP3    H150283   4.631   4.756  11.771 -0.5332 -0.5453  0.1204
 8696TIP3    H250284   4.634   4.657  11.657  0.9384  0.8162 -1.0752
 8697TIP3   OH250285   2.641   1.601   8.957 -0.5146  0.1508 -0.4171
 8697TIP3    H150286   2.624   1.674   9.017 -0.8058 -0.4675  0.2636
 8697TIP3    H250287   2.557   1.554   8.953 -1.1793  1.3528 -2.9584
 8698TIP3   OH250288   2.148   1.860  10.941  0.0285  0.1391  0.3424
 8698TIP3    H150289   2.206   1.880  11.015  2.0076 -2.9475 -0.1764
 8698TIP3    H250290   2.188   1.903  10.866 -1.1376  2.0078  0.7343
 8699TIP3   OH250291   6.445   4.433  10.369  0.1408  0.0919  0.0286
 8699TIP3    H150292   6.490   4.503  10.416 -1.7060  0.8836  0.7173
 8699TIP3    H250293   6.420   4.371  10.437  0.1494 -0.3124 -0.3328
 8700TIP3   OH250294   4.979   2.694   8.803  0.2969 -1.0462 -0.1789
 8700TIP3    H150295   4.895   2.649   8.814  0.1185 -0.0829  3.9472
 8700TIP3    H250296   5.044   2.634   8.837  0.6906 -0.1385  0.7214
 8701TIP3   OH250297   5.961   2.668  10.230 -0.3089 -0.3085 -0.5933
 8701TIP3    H150298   6.026   2.603  10.257 -1.0810 -1.0474 -0.4736
 8701TIP3    H250299   5.975   2.679  10.136 -0.6716 -1.2217 -0.7608
 8702TIP3   OH250300   1.331   2.462  12.129 -0.1926  0.1394 -0.8313
 8702TIP3    H150301   1.385   2.438  12.204 -0.9242  0.6439 -0.1278
 8702TIP3    H250302   1.373   2.420  12.055  0.2300 -0.8301 -0.0586
 8703TIP3   OH250303   5.745   1.599  12.029  0.2106  0.7565  0.0257
 8703TIP3    H150304   5.668   1.641  12.067  0.8966  1.8024  0.2946
 8703TIP3    H250305   5.710   1.542  11.961 -0.8135  1.0385  0.3013
 8704TIP3   OH250306   3.465   2.898  10.702  0.1140 -0.1916 -0.0127
 8704TIP3    H150307   3.483   2.896  10.796  0.7759 -0.0136 -0.1303
 8704TIP3    H250308   3.433   2.810  10.682  0.2008 -0.3050  0.3364
 8705TIP3   OH250309   6.228   4.117  11.206 -0.4967 -0.4248 -0.2683
 8705TIP3    H150310   6.184   4.072  11.278  0.0633 -0.2516  0.1829
 8705TIP3    H250311   6.162   4.121  11.137 -1.4398  0.5138  0.6611
 8706TIP3   OH250312   0.816   5.580  11.281  0.4494 -0.0991  0.1342
 8706TIP3    H150313   0.908   5.575  11.306  0.7692 -0.2996 -1.0255
 8706TIP3    H250314   0.803   5.671  11.256  0.0411  0.1825  1.2935
 8707TIP3   OH250315   3.984   6.212  12.210 -0.2172 -0.2447 -0.1982
 8707TIP3    H150316   3.989   6.307  12.217 -0.0803 -0.2846  0.2708
 8707TIP3    H250317   3.961   6.196  12.118 -0.7683  0.2565 -0.1555
 8708TIP3   OH250318   6.474   0.585   9.543 -0.0132  0.6143  0.5926
 8708TIP3    H150319   6.489   0.618   9.632  1.7037  1.7831 -0.0875
 8708TIP3    H250320   6.502   0.656   9.486  1.3407 -1.0282 -0.9108
 8709TIP3   OH250321   4.844   2.793  10.050 -0.4622 -0.6704 -0.2354
 8709TIP3    H150322   4.749   2.803  10.049 -0.5035 -0.9659  0.2822
 8709TIP3    H250323   4.862   2.752  10.134  0.2468  0.4658  0.1822
 8710TIP3   OH250324   4.270   2.277  10.825  0.6141  0.5013 -0.2277
 8710TIP3    H150325   4.322   2.270  10.744  0.3517  1.3724 -0.4836
 8710TIP3    H250326   4.211   2.201  10.822  0.4523  0.6475 -0.9678
 8711TIP3   OH250327   0.853   5.928   8.970 -0.3598 -0.1524 -0.5773
 8711TIP3    H150328   0.797   5.856   8.999 -0.3092  0.2633  0.5985
 8711TIP3    H250329   0.932   5.921   9.023  0.2200 -0.0256 -1.3957
 8712TIP3   OH250330   5.829   1.952   9.555  0.0634 -0.6756  0.2175
 8712TIP3    H150331   5.876   2.034   9.574 -0.6520  0.0333 -0.8935
 8712TIP3    H250332   5.836   1.942   9.460 -1.5184 -0.8406  0.0796
 8713TIP3   OH250333   3.980   1.874  10.413 -0.0931 -0.1497 -0.2036
 8713TIP3    H150334   4.058   1.824  10.435 -0.0618 -1.4513 -2.9000
 8713TIP3    H250335   4.001   1.964  10.438  2.3169 -0.4483 -0.9216
 8714TIP3   OH250336   6.520   2.748  11.687  0.1562  0.4420 -0.8241
 8714TIP3    H150337   6.436   2.794  11.692  0.0477  0.1958 -0.3189
 8714TIP3    H250338   6.531   2.708  11.773  0.6585  0.2342 -0.9794
 8715TIP3   OH250339   2.546   0.680   9.216 -0.1461  0.2688  0.0091
 8715TIP3    H150340   2.468   0.677   9.159 -0.7214  1.4861  0.6802
 8715TIP3    H250341   2.529   0.615   9.284 -0.0901 -0.2052 -0.4230
 8716TIP3   OH250342   0.579   4.088   8.936 -0.3404  0.0331 -0.6265
 8716TIP3    H150343   0.666   4.097   8.897 -1.0212  0.1901 -2.1812
 8716TIP3    H250344   0.548   4.002   8.906 -1.0595  0.3476 -0.8017
 8717TIP3   OH250345   3.498   2.492  10.893  0.4846 -0.3324 -0.1962
 8717TIP3    H150346   3.523   2.441  10.971  2.6216 -0.7638 -1.0914
 8717TIP3    H250347   3.446   2.431  10.841 -2.0827  0.3471  1.3741
 8718TIP3   OH250348   5.862   0.746  10.468  0.2022 -0.0833 -0.4495
 8718TIP3    H150349   5.786   0.754  10.527 -0.0177 -2.6755 -0.2710
 8718TIP3    H250350   5.838   0.798  10.392 -0.8379  0.8510  0.4681
 8719TIP3   OH250351   2.031   1.725  10.108 -0.1363 -0.6656  0.4237
 8719TIP3    H150352   2.074   1.742  10.192  0.1174 -1.4069  0.4530
 8719TIP3    H250353   2.070   1.788  10.047  0.6943 -1.0465  0.5526
 8720TIP3   OH250354   3.996   4.798  10.473  0.1597 -0.2224  0.6234
 8720TIP3    H150355   4.072   4.825  10.421 -0.2211 -1.1950 -0.4857
 8720TIP3    H250356   3.990   4.703  10.460 -0.6427 -0.3115  1.5196
 8721TIP3   OH250357   0.986   0.314  11.396  0.5266  0.1544  0.2410
 8721TIP3    H150358   0.904   0.302  11.444  0.3338  0.9569  0.1353
 8721TIP3    H250359   1.053   0.310  11.464  0.2395  1.4995  0.6569
 8722TIP3   OH250360   3.108   3.339  10.490  0.6433 -1.1761 -0.8225
 8722TIP3    H150361   3.093   3.245  10.499  0.8906 -1.1434 -0.0105
 8722TIP3    H250362   3.202   3.350  10.505  0.4816 -0.7092 -0.1232
 8723TIP3   OH250363   1.757   0.485  12.282 -0.3111 -0.9778 -0.3470
 8723TIP3    H150364   1.701   0.429  12.335 -0.5967 -0.0696  0.3407
 8723TIP3    H250365   1.797   0.546  12.345 -0.8242  0.2568 -1.1795
 8724TIP3   OH250366   3.755   3.399  10.561  0.3616  0.3276 -0.1859
 8724TIP3    H150367   3.715   3.342  10.496  0.5728  0.5705 -0.5314
 8724TIP3    H250368   3.833   3.352  10.590  1.5130  1.1822 -1.7457
 8725TIP3   OH250369   5.198   1.782   9.978  0.1657 -0.1344 -0.2397
 8725TIP3    H150370   5.168   1.698  10.014 -0.2475 -0.5322 -1.4397
 8725TIP3    H250371   5.268   1.810  10.037 -0.6094 -0.6464  0.9525
 8726TIP3   OH250372   2.295   2.704  11.477  0.0850  0.2213  0.0100
 8726TIP3    H150373   2.279   2.689  11.570 -0.7591  0.9360 -0.0009
 8726TIP3    H250374   2.301   2.799  11.469  1.5393  0.1058 -0.4702
 8727TIP3   OH250375   5.494   5.714  11.380  0.5226  0.1361 -0.4981
 8727TIP3    H150376   5.533   5.650  11.320 -0.7684  0.6828 -1.9898
 8727TIP3    H250377   5.425   5.665  11.425  0.4069  0.1368 -0.6739
 8728TIP3   OH250378   6.134   4.318   9.155  0.2885 -0.4140  0.0784
 8728TIP3    H150379   6.137   4.292   9.063 -0.7033  0.5102 -0.2436
 8728TIP3    H250380   6.225   4.332   9.179  0.6046 -1.1757 -0.5981
 8729TIP3   OH250381   4.111   0.983  10.812 -0.7536  0.2100 -0.3938
 8729TIP3    H150382   4.121   1.002  10.905 -1.0375  3.3776 -0.9135
 8729TIP3    H250383   4.174   0.913  10.795  0.9149  1.0997  1.7474
 8730TIP3   OH250384   3.113   2.400   9.568  0.6509 -0.2068  0.2005
 8730TIP3    H150385   3.175   2.354   9.511 -0.7127 -1.4193 -0.3671
 8730TIP3    H250386   3.070   2.331   9.618 -0.7768  0.5118  0.0234
 8731TIP3   OH250387   0.840   1.837  10.390 -0.4369 -0.2333 -0.0797
 8731TIP3    H150388   0.771   1.848  10.454 -1.7170 -0.6049 -1.3349
 8731TIP3    H250389   0.819   1.900  10.321  0.5630 -0.2464 -0.4109
 8732TIP3   OH250390   3.049   5.642  10.335 -0.5751 -0.1960  0.6122
 8732TIP3    H150391   3.072   5.581  10.405 -1.9859 -0.8339  0.5604
 8732TIP3    H250392   2.954   5.650  10.341 -0.6639  0.1690 -0.8766
 8733TIP3   OH250393   1.236   5.577   8.754 -0.4798 -0.7913 -0.2084
 8733TIP3    H150394   1.175   5.648   8.733 -1.0388 -1.4727 -0.9258
 8733TIP3    H250395   1.183   5.514   8.802 -0.1785 -1.0883 -0.2650
 8734TIP3   OH250396   3.896   3.502  11.165  0.3431 -0.0092 -0.1109
 8734TIP3    H150397   3.882   3.455  11.246  2.5152 -1.1802 -0.3336
 8734TIP3    H250398   3.848   3.452  11.099  2.0079 -1.5982 -0.2127
 8735TIP3   OH250399   6.618   0.103   9.040 -0.4794  0.0683  0.1582
 8735TIP3    H150400   6.689   0.043   9.064 -0.9979 -0.8974 -0.6574
 8735TIP3    H250401   6.660   0.170   8.985 -0.2420 -0.6771 -0.5861
 8736TIP3   OH250402   5.305   1.866  11.660 -0.1872  0.0339 -0.1406
 8736TIP3    H150403   5.376   1.833  11.714 -0.5617  0.5416  0.6797
 8736TIP3    H250404   5.233   1.881  11.721 -0.8129  0.0820 -0.8667
 8737TIP3   OH250405   5.282   3.498  11.798 -0.1325 -0.1684  0.7741
 8737TIP3    H150406   5.284   3.508  11.894  0.5740 -1.4648  0.9198
 8737TIP3    H250407   5.213   3.434  11.783  0.7441 -1.0848  0.5520
 8738TIP3   OH250408   6.043   1.738   9.902  0.4884  1.2403 -0.1089
 8738TIP3    H150409   6.003   1.704   9.822 -1.7834 -1.5347  2.0208
 8738TIP3    H250410   6.136   1.717   9.892 -0.0677 -0.9868 -1.1539
 8739TIP3   OH250411   0.523   4.129  12.579  0.1597 -0.9869  0.6742
 8739TIP3    H150412   0.467   4.207  12.574 -1.1460 -1.8083  1.7774
 8739TIP3    H250413   0.531   4.099  12.489 -0.9295 -0.6514  0.4522
 8740TIP3   OH250414   2.280   4.523  10.882 -0.4832  0.1040 -0.1960
 8740TIP3    H150415   2.239   4.446  10.841  0.1734 -1.0099  1.1407
 8740TIP3    H250416   2.371   4.496  10.899  0.4047  1.9620 -1.6603
 8741TIP3   OH250417   4.305   3.744   8.849  0.0177  0.5792  0.1477
 8741TIP3    H150418   4.222   3.701   8.829  0.0025  0.5723  0.2242
 8741TIP3    H250419   4.290   3.836   8.828  0.8690  0.1775 -2.5597
 8742TIP3   OH250420   1.260   0.957  10.557 -0.1620 -0.2114 -0.5535
 8742TIP3    H150421   1.260   0.907  10.476 -2.3466  1.8078 -1.9407
 8742TIP3    H250422   1.195   0.914  10.613 -0.2145 -0.3596 -0.7306
 8743TIP3   OH250423   0.568   5.282  10.190  0.6057  0.1578 -0.3803
 8743TIP3    H150424   0.659   5.303  10.171  0.9008 -0.0639  0.7460
 8743TIP3    H250425   0.544   5.340  10.262  0.4051 -1.0049  0.5134
 8744TIP3   OH250426   4.531   0.654  11.139  0.1208  0.1786 -0.1558
 8744TIP3    H150427   4.508   0.561  11.135 -0.5610  0.3563 -0.5997
 8744TIP3    H250428   4.447   0.700  11.141  0.4466  0.7989 -0.2629
 8745TIP3   OH250429   3.586   6.033  11.629 -0.4964 -0.5808  0.1216
 8745TIP3    H150430   3.601   5.940  11.616 -1.9988 -0.7495 -0.6735
 8745TIP3    H250431   3.504   6.038  11.678 -0.3311  0.3192  0.3323
 8746TIP3   OH250432   5.950   2.182   9.002  0.1399 -0.1012  0.8948
 8746TIP3    H150433   5.939   2.269   9.041 -0.4118  0.0094  0.5082
 8746TIP3    H250434   6.042   2.180   8.975  0.1685  0.3500  0.9467
 8747TIP3   OH250435   6.641   1.142   9.922 -0.1119 -0.5058 -0.1775
 8747TIP3    H150436   6.714   1.115   9.977  0.0694  3.9049  2.2633
 8747TIP3    H250437   6.682   1.188   9.848 -0.4278 -0.5155 -0.3645
 8748TIP3   OH250438   2.011   5.797  10.242  0.0995  0.3701  0.3600
 8748TIP3    H150439   1.988   5.743  10.317  0.3707 -3.4408 -2.0291
 8748TIP3    H250440   2.107   5.790  10.236  0.0743  0.5693 -0.3608
 8749TIP3   OH250441   0.699   2.353  10.868 -0.3587  0.1466 -0.2134
 8749TIP3    H150442   0.745   2.295  10.929  0.6543 -0.4996 -1.5500
 8749TIP3    H250443   0.633   2.297  10.827  0.0392  0.1522 -0.8738
 8750TIP3   OH250444   2.970   4.629  12.292 -0.3978 -0.0130 -0.3427
 8750TIP3    H150445   2.885   4.597  12.263  0.0608 -0.9778 -0.6767
 8750TIP3    H250446   3.014   4.552  12.328  0.6638  0.2789 -0.9701
 8751TIP3   OH250447   2.078   2.800  12.000  0.3841  0.1306 -0.0839
 8751TIP3    H150448   2.051   2.709  12.006  0.3648  0.0623 -1.1437
 8751TIP3    H250449   2.170   2.800  12.025  0.0067  0.0561  1.4231
 8752TIP3   OH250450   3.174   1.851  11.847 -0.1087 -0.8493 -0.4850
 8752TIP3    H150451   3.254   1.811  11.814 -0.7259 -1.2929 -1.4874
 8752TIP3    H250452   3.157   1.807  11.930  0.7172 -0.6971 -0.2309
 8753TIP3   OH250453   6.457   1.785   8.817 -0.0049 -0.0211  0.6545
 8753TIP3    H150454   6.493   1.726   8.884  1.8954  0.7168  0.3453
 8753TIP3    H250455   6.533   1.812   8.766 -1.3900 -0.4660 -1.7607
 8754TIP3   OH250456   2.782   5.674  10.309  0.0779  0.1166 -0.8721
 8754TIP3    H150457   2.717   5.646  10.374 -1.3319  0.7412 -1.9605
 8754TIP3    H250458   2.803   5.764  10.334  1.6653 -0.5280  0.3181
 8755TIP3   OH250459   2.654   0.091  10.281 -0.1112  0.2133  0.0412
 8755TIP3    H150460   2.696   0.064  10.363  0.5272  0.2455 -0.2721
 8755TIP3    H250461   2.570   0.127  10.308  0.4440  1.0007  0.7580
 8756TIP3   OH250462   4.704   3.748  11.730  0.9286  0.5738 -0.5004
 8756TIP3    H150463   4.626   3.803  11.720  0.5217  0.6564  2.3086
 8756TIP3    H250464   4.770   3.807  11.766  1.8670  0.1634 -1.5125
 8757TIP3   OH250465   5.542   1.116  11.951  0.2960 -0.1974 -0.4813
 8757TIP3    H150466   5.460   1.095  11.907  0.3884 -0.6789 -0.4295
 8757TIP3    H250467   5.608   1.065  11.904  0.7246  0.9802 -1.1825
 8758TIP3   OH250468   3.006   2.614  11.535  0.1238  0.1412  0.1899
 8758TIP3    H150469   2.970   2.526  11.546 -0.0429  0.5024  3.2305
 8758TIP3    H250470   3.090   2.599  11.490 -1.3035 -1.1625 -2.3105
 8759TIP3   OH250471   2.078   6.053   9.579  0.1102 -0.2440 -0.5168
 8759TIP3    H150472   2.031   6.126   9.540 -1.4955 -1.0099 -0.0878
 8759TIP3    H250473   2.010   5.997   9.617  1.2228 -2.2857 -1.3455
 8760TIP3   OH250474   4.911   0.782  11.248  0.1140  0.0069 -0.0262
 8760TIP3    H150475   4.977   0.720  11.279  0.1159  0.0283  0.0134
 8760TIP3    H250476   4.958   0.841  11.190  0.3556  0.6494  0.7921
 8761TIP3   OH250477   2.433   0.915  10.576  0.1047  0.2244 -0.1353
 8761TIP3    H150478   2.498   0.846  10.585 -0.1275 -0.6277 -3.7219
 8761TIP3    H250479   2.379   0.908  10.655  2.8575 -0.5618  1.7974
 8762TIP3   OH250480   2.264   2.550   9.109 -0.4771  0.3913  0.1315
 8762TIP3    H150481   2.309   2.469   9.135 -1.3992 -0.4505 -0.8223
 8762TIP3    H250482   2.276   2.609   9.184  0.7677 -0.3842  0.5823
 8763TIP3   OH250483   1.999   6.439  11.116  0.7674  0.0109  0.5319
 8763TIP3    H150484   2.002   6.481  11.030 -1.8101 -2.5995 -1.0188
 8763TIP3    H250485   1.946   6.498  11.170  2.1386  1.5103  0.3323
 8764TIP3   OH250486   2.824   2.257  19.566  0.0418 -0.1648  0.3083
 8764TIP3    H150487   2.832   2.351  19.552  0.0986 -0.2221 -0.0683
 8764TIP3    H250488   2.856   2.242  19.655  1.2040  0.0051 -0.0725
 8765TIP3   OH250489   5.259   0.741   8.918 -0.6558 -0.1577 -0.2384
 8765TIP3    H150490   5.165   0.750   8.935 -0.7975  2.7072 -1.9098
 8765TIP3    H250491   5.301   0.781   8.994 -1.0074  2.8845 -1.5164
 8766TIP3   OH250492   2.376   3.766  10.301  0.3929  0.5270 -0.1303
 8766TIP3    H150493   2.282   3.786  10.304  0.8331  2.8246  0.1187
 8766TIP3    H250494   2.398   3.738  10.390  0.3973  2.4977  0.5270
 8767TIP3   OH250495   4.388   0.515  10.269 -0.5271  0.3859 -0.1441
 8767TIP3    H150496   4.453   0.450  10.294 -1.9057 -0.6498  0.9105
 8767TIP3    H250497   4.337   0.531  10.349 -1.2465  1.5433 -0.7972
 8768TIP3   OH250498   6.064   5.086  11.077 -1.2694 -0.3889  0.6332
 8768TIP3    H150499   6.088   5.071  10.986 -1.8338 -0.4936  0.4951
 8768TIP3    H250500   6.108   5.017  11.126 -0.8478 -0.2456  0.4561
 8769TIP3   OH250501   2.996   2.161  11.396 -0.2474 -0.1454  0.8659
 8769TIP3    H150502   3.048   2.233  11.364  0.2308 -0.1527  1.6071
 8769TIP3    H250503   3.059   2.094  11.421 -0.6245 -0.3449  1.3170
 8770TIP3   OH250504   3.429   1.497  11.679  0.1532  0.6963  0.6728
 8770TIP3    H150505   3.480   1.459  11.607 -0.4937  0.2797  0.4298
 8770TIP3    H250506   3.493   1.550  11.727  0.6910  0.6415  0.0417
 8771TIP3   OH250507   6.320   0.755  10.195 -0.1142 -0.1449 -0.3054
 8771TIP3    H150508   6.380   0.680  10.193  0.1004 -0.2512  3.5554
 8771TIP3    H250509   6.377   0.831  10.210 -0.6117  0.3397 -0.8221
 8772TIP3   OH250510   5.815   3.287  10.721 -0.4058 -0.2021 -0.3849
 8772TIP3    H150511   5.848   3.211  10.673 -0.3301 -0.1506 -0.4142
 8772TIP3    H250512   5.817   3.358  10.657 -1.5492 -0.4263 -0.6984
 8773TIP3   OH250513   5.090   6.245   9.555 -0.0488  0.5419  0.0901
 8773TIP3    H150514   5.089   6.251   9.651 -0.1225 -1.5221  0.2594
 8773TIP3    H250515   5.016   6.298   9.527 -0.3733  0.7080  1.2073
 8774TIP3   OH250516   1.860   4.182   9.485  0.1816 -0.3758 -0.4086
 8774TIP3    H150517   1.819   4.118   9.426 -0.3865 -0.4207  0.0234
 8774TIP3    H250518   1.794   4.198   9.552  0.9002 -0.4907  0.3420
 8775TIP3   OH250519   3.551   1.141  10.084  0.6772 -0.3956 -0.1757
 8775TIP3    H150520   3.532   1.232  10.107  0.0215 -0.0718 -1.8085
 8775TIP3    H250521   3.620   1.147  10.018 -0.2141 -0.9621 -1.2046
 8776TIP3   OH250522   5.871   2.782  17.819  0.5367  0.4165  0.4278
 8776TIP3    H150523   5.960   2.755  17.844  1.0521  2.2177  0.7219
 8776TIP3    H250524   5.852   2.731  17.740  1.5224 -0.5633  0.7914
 8777TIP3   OH250525   1.758   2.439  10.362 -0.0869  0.4127  0.5010
 8777TIP3    H150526   1.847   2.428  10.328 -0.3078  1.1211 -0.3452
 8777TIP3    H250527   1.757   2.527  10.399 -0.5044  0.4925  0.2960
 8778TIP3   OH250528   1.003   5.658   9.563 -0.3287 -0.0574  0.0891
 8778TIP3    H150529   0.916   5.631   9.592  0.7784 -0.9827  2.9405
 8778TIP3    H250530   1.046   5.687   9.643  2.0857  0.1282 -1.1900
 8779TIP3   OH250531   2.838   3.279  10.643 -0.4762  0.1767 -0.5039
 8779TIP3    H150532   2.824   3.208  10.705  0.4128  1.2825  1.0007
 8779TIP3    H250533   2.916   3.254  10.593 -1.5493 -1.0064 -1.6703
 8780TIP3   OH250534   6.446   6.583  11.205  0.0215 -0.3956  0.2624
 8780TIP3    H150535   6.535   6.614  11.224  0.6941 -1.6021 -0.7271
 8780TIP3    H250536   6.441   6.498  11.248 -1.0082  0.0883  1.1135
 8781TIP3   OH250537   5.957   0.973   9.355  0.0647  0.1305  0.3398
 8781TIP3    H150538   5.918   1.060   9.366  0.9831  0.3061  2.7410
 8781TIP3    H250539   5.958   0.936   9.443  0.1665 -2.1443 -0.5579
 8782TIP3   OH250540   4.947   6.619  11.056  0.3091 -0.7991  0.6973
 8782TIP3    H150541   4.863   6.577  11.035  0.6200 -1.4676  0.7387
 8782TIP3    H250542   5.013   6.564  11.012  0.7169 -0.2056  0.5517
 8783TIP3   OH250543   3.505   0.411   9.998 -0.4047 -0.7929  0.0556
 8783TIP3    H150544   3.468   0.330  10.032 -1.2078 -0.0408  1.0395
 8783TIP3    H250545   3.599   0.395   9.992 -0.6060 -1.9382 -0.1939
 8784TIP3   OH250546   0.263   6.360  11.230 -0.5080  0.0404 -0.3664
 8784TIP3    H150547   0.325   6.303  11.276 -1.7540 -0.1796  1.1262
 8784TIP3    H250548   0.313   6.441  11.215 -0.0073  0.1133  1.3843
 8785TIP3   OH250549   3.557   4.738   8.886  0.4262 -0.1367  0.3605
 8785TIP3    H150550   3.596   4.775   8.966  2.2809 -0.3947 -0.3882
 8785TIP3    H250551   3.608   4.777   8.815 -0.0391 -1.2833 -0.6177
 8786TIP3   OH250552   0.702   5.548  10.707 -0.2613 -0.3229 -0.5915
 8786TIP3    H150553   0.721   5.640  10.725  0.2045 -0.3822 -0.7438
 8786TIP3    H250554   0.607   5.541  10.712 -0.5853  0.7605 -3.2061
 8787TIP3   OH250555   2.574   6.419   8.957 -0.2525  0.0514 -0.0839
 8787TIP3    H150556   2.669   6.432   8.967 -0.4530  1.9194 -0.2102
 8787TIP3    H250557   2.543   6.500   8.916 -1.7729 -0.9586 -1.0276
 8788TIP3   OH250558   3.962   2.618  11.936 -0.3188 -0.5461  0.3088
 8788TIP3    H150559   4.047   2.575  11.940 -0.9345 -1.8072  0.2546
 8788TIP3    H250560   3.918   2.592  12.017 -0.5825  0.2954  0.4550
 8789TIP3   OH250561   2.170   0.261   8.947 -0.3147  0.2569  0.2185
 8789TIP3    H150562   2.090   0.209   8.948 -0.3034  0.1407 -1.5827
 8789TIP3    H250563   2.222   0.226   9.020 -1.2124 -0.7753  0.3946
 8790TIP3   OH250564   4.133   6.216  11.028 -0.1788 -0.3954  0.7085
 8790TIP3    H150565   4.175   6.233  10.944 -0.1532  0.7185  0.9395
 8790TIP3    H250566   4.200   6.236  11.093 -0.9693  1.1821  1.0739
 8791TIP3   OH250567   1.618   2.079  12.301 -0.5167 -0.2108  0.0315
 8791TIP3    H150568   1.591   2.008  12.360 -0.0075 -0.5823 -0.1742
 8791TIP3    H250569   1.697   2.046  12.258  1.6783  1.7141  2.3038
 8792TIP3   OH250570   5.752   2.469   9.751  0.0469 -0.0600 -0.0401
 8792TIP3    H150571   5.778   2.547   9.702 -0.1840  0.4396  0.6254
 8792TIP3    H250572   5.729   2.501   9.838  0.6138 -0.9681  0.4552
 8793TIP3   OH250573   5.093   4.509   9.338  0.4399  0.0259  0.0375
 8793TIP3    H150574   5.125   4.553   9.417  1.2004  0.0215 -0.2602
 8793TIP3    H250575   5.106   4.416   9.355 -0.0631 -0.0208  0.1887
 8794TIP3   OH250576   3.188   6.318  10.298 -0.2171 -0.1372 -0.3555
 8794TIP3    H150577   3.260   6.316  10.235  0.7880  1.2459  0.6913
 8794TIP3    H250578   3.125   6.380  10.261 -0.1902 -0.2278 -0.5552
 8795TIP3   OH250579   0.543   3.989  11.876 -0.8280 -0.3142 -0.0619
 8795TIP3    H150580   0.576   4.041  11.948 -1.0282 -0.5054  0.1717
 8795TIP3    H250581   0.455   4.024  11.858  0.0175  1.1495 -1.6339
 8796TIP3   OH250582   4.605   1.522  11.186  0.2133 -0.6654  0.1777
 8796TIP3    H150583   4.515   1.526  11.154  0.8145 -1.6382 -1.7516
 8796TIP3    H250584   4.615   1.602  11.237 -1.1365  0.4833 -1.2552
 8797TIP3   OH250585   0.191   3.639  10.707  0.1379  0.5814 -0.4413
 8797TIP3    H150586   0.275   3.616  10.668 -0.8118 -0.0627 -2.2293
 8797TIP3    H250587   0.202   3.730  10.736  0.8987  1.1522 -2.3541
 8798TIP3   OH250588   2.353   1.795  12.605 -0.3552 -0.2060 -0.5481
 8798TIP3    H150589   2.292   1.739  12.653  1.0736  0.3498  2.0556
 8798TIP3    H250590   2.311   1.881  12.603 -0.2048 -0.1174  0.1322
 8799TIP3   OH250591   4.941   5.770   8.654  0.0208 -0.0943  0.3549
 8799TIP3    H150592   4.919   5.818   8.734  0.0075 -0.0907  0.3491
 8799TIP3    H250593   4.955   5.680   8.683  1.8102  0.2454  0.6591
 8800TIP3   OH250594   3.818   5.489  10.925  0.3748  0.4513  0.5423
 8800TIP3    H150595   3.861   5.403  10.933  1.0922  0.8377  0.8836
 8800TIP3    H250596   3.746   5.485  10.987  0.1667 -0.0486  0.2749
 8801TIP3   OH250597   1.761   5.973  10.326  0.7110 -0.2131  0.3019
 8801TIP3    H150598   1.793   5.977  10.416 -1.6894 -1.3266  1.2931
 8801TIP3    H250599   1.785   5.885  10.296 -1.6437 -1.2847  1.2582
 8802TIP3   OH250600   4.998   5.320  10.769  0.6404  0.0905 -0.4558
 8802TIP3    H150601   4.951   5.294  10.689  0.1869 -1.0527  0.1560
 8802TIP3    H250602   4.998   5.241  10.823 -1.6228  1.5903  1.9408
 8803TIP3   OH250603   4.928   4.388   8.636  0.0345  0.2518 -0.0508
 8803TIP3    H150604   4.874   4.466   8.652  1.1582  0.7100  1.7114
 8803TIP3    H250605   5.018   4.421   8.636  0.4679 -0.8906 -0.4795
 8804TIP3   OH250606   0.643   2.963  11.351  0.2922  0.2377 -0.1932
 8804TIP3    H150607   0.639   2.948  11.256  0.0241 -2.0717  0.1240
 8804TIP3    H250608   0.598   3.047  11.363  0.3365  0.5952 -2.1014
 8805TIP3   OH250609   6.187   0.604  11.355  0.3618 -0.1555  0.1688
 8805TIP3    H150610   6.178   0.686  11.402  0.9822  0.1838 -0.2856
 8805TIP3    H250611   6.098   0.578  11.333  0.2067  0.7727 -0.3251
 8806TIP3   OH250612   4.061   0.105   8.717  0.6796 -0.1884 -0.3528
 8806TIP3    H150613   4.096   0.124   8.804  1.4118  1.2188 -0.9173
 8806TIP3    H250614   4.022   0.018   8.725  1.4611 -0.4308  1.1583
 8807TIP3   OH250615   4.880   3.706  10.944 -0.5956 -0.1883  0.1038
 8807TIP3    H150616   4.972   3.721  10.963 -0.8524  0.5949  0.7971
 8807TIP3    H250617   4.878   3.685  10.851  0.4873 -2.2023  0.4794
 8808TIP3   OH250618   6.594   4.182   9.875  0.4609 -0.0388  0.5692
 8808TIP3    H150619   6.527   4.115   9.889  0.2587  0.4985  2.4130
 8808TIP3    H250620   6.668   4.134   9.838 -1.0567 -0.5589 -1.9948
 8809TIP3   OH250621   2.700   0.517   9.741  0.3626  0.1588  0.0420
 8809TIP3    H150622   2.614   0.515   9.784  0.3284 -1.1411 -0.0587
 8809TIP3    H250623   2.713   0.609   9.720 -0.9188  0.4144  0.2471
 8810TIP3   OH250624   5.067   0.962  11.138 -0.6610 -0.5234 -0.4448
 8810TIP3    H150625   5.074   1.019  11.062  0.8244 -0.9673 -0.6689
 8810TIP3    H250626   5.048   1.021  11.211 -1.2758 -0.0035 -1.0081
 8811TIP3   OH250627   1.197   1.547   9.316  0.0909 -0.7985 -0.2629
 8811TIP3    H150628   1.190   1.595   9.398 -2.6047 -0.3171 -0.6904
 8811TIP3    H250629   1.241   1.465   9.340 -2.4395 -1.5797  2.1404
 8812TIP3   OH250630   3.082   2.228   9.780 -0.1127  0.1304 -0.0730
 8812TIP3    H150631   3.011   2.282   9.814 -0.2879 -1.9747  3.4304
 8812TIP3    H250632   3.160   2.260   9.826  0.3995 -0.3963 -0.5593
 8813TIP3   OH250633   5.980   0.077   9.933  0.1459  0.2635 -0.4926
 8813TIP3    H150634   6.064   0.044   9.901  0.8606  0.6782  0.8846
 8813TIP3    H250635   6.004   0.139  10.003 -1.3221 -0.1951  0.4487
 8814TIP3   OH250636   1.997   1.959  11.921  0.1032 -0.3085 -0.1906
 8814TIP3    H150637   2.014   1.935  12.012 -2.6786 -1.1546  0.1793
 8814TIP3    H250638   2.084   1.963  11.881  1.3035 -1.4179  2.1237
 8815TIP3   OH250639   1.192   5.824   9.984  0.1710  0.3295 -0.3041
 8815TIP3    H150640   1.247   5.902   9.978  0.6044 -0.0334 -1.5391
 8815TIP3    H250641   1.223   5.777  10.061  0.5604  0.8919 -0.1185
 8816TIP3   OH250642   2.558   6.390  12.599 -0.0108 -0.4292 -0.5887
 8816TIP3    H150643   2.503   6.314  12.583 -3.4208  1.4953  0.9490
 8816TIP3    H250644   2.566   6.433  12.514 -0.7580 -0.8332 -0.8638
 8817TIP3   OH250645   4.193   2.416   9.703  0.1336  0.3589  0.1091
 8817TIP3    H150646   4.259   2.425   9.772  0.8999 -1.5796 -0.3058
 8817TIP3    H250647   4.238   2.441   9.623  0.1145 -0.1194 -0.0551
 8818TIP3   OH250648   0.341   5.391   9.572  0.3771  0.0866 -0.0679
 8818TIP3    H150649   0.312   5.340   9.647 -1.5438  0.4280 -0.5223
 8818TIP3    H250650   0.399   5.332   9.524 -0.1359 -0.9359  0.5331
 8819TIP3   OH250651   4.526   6.441  10.369  0.9657  0.0718 -0.2062
 8819TIP3    H150652   4.569   6.364  10.331  2.5793 -0.0345  1.6360
 8819TIP3    H250653   4.556   6.442  10.460  0.0840  2.2552  0.1186
 8820TIP3   OH250654   5.583   3.731   8.980  0.5471 -0.4026 -0.0489
 8820TIP3    H150655   5.645   3.666   9.012  0.8610 -0.1120 -0.0576
 8820TIP3    H250656   5.521   3.682   8.926  0.5780 -0.7451  0.2283
 8821TIP3   OH250657   0.820   4.831   9.576  0.1456  0.1472 -0.4764
 8821TIP3    H150658   0.727   4.812   9.560  0.1287 -1.0635  0.9053
 8821TIP3    H250659   0.822   4.924   9.598 -0.6859  0.2517 -0.8007
 8822TIP3   OH250660   4.223   4.784   9.769 -0.1079 -0.1723  0.3904
 8822TIP3    H150661   4.275   4.744   9.699 -0.5580  0.4305 -0.3076
 8822TIP3    H250662   4.256   4.874   9.774 -0.5170 -0.0281  0.5061
 8823TIP3   OH250663   4.974   1.178  12.199 -0.1340  1.0749 -0.2363
 8823TIP3    H150664   5.034   1.173  12.124  0.4734  2.5814  0.1236
 8823TIP3    H250665   4.935   1.090  12.204  0.7238  0.5875 -1.5567
 8824TIP3   OH250666   3.311   2.150  10.364 -0.7949  0.5766 -0.0179
 8824TIP3    H150667   3.406   2.155  10.368 -0.4760 -0.6573 -3.2251
 8824TIP3    H250668   3.286   2.104  10.444  1.5080 -0.6479  0.0701
 8825TIP3   OH250669   1.323   5.263  10.007  0.9778 -0.0438  0.4312
 8825TIP3    H150670   1.318   5.349   9.964  0.3582  0.5418  1.6444
 8825TIP3    H250671   1.417   5.245  10.011  1.1194  0.5776  0.1703
 8826TIP3   OH250672   3.666   0.676   9.375 -0.9591  0.4914  0.2578
 8826TIP3    H150673   3.704   0.695   9.460 -0.7992  2.2607 -0.1660
 8826TIP3    H250674   3.741   0.651   9.320 -0.6816  1.8198  0.0007
 8827TIP3   OH250675   0.525   0.035   9.610 -0.3819  0.3605  0.2713
 8827TIP3    H150676   0.484   0.089   9.678  1.2872  1.9212  0.1182
 8827TIP3    H250677   0.473  -0.045   9.609 -0.9717  0.6061  2.8314
 8828TIP3   OH250678   5.610   0.230  10.379 -0.0625 -0.3218  0.2825
 8828TIP3    H150679   5.694   0.220  10.424  0.6301 -0.6985 -1.0532
 8828TIP3    H250680   5.632   0.265  10.293 -1.2564 -0.5634 -0.1447
 8829TIP3   OH250681   4.141   3.737   9.775  0.0711  0.2200 -0.4173
 8829TIP3    H150682   4.055   3.774   9.795  1.0316  2.9009 -0.8626
 8829TIP3    H250683   4.201   3.811   9.777  2.3399 -1.4875 -0.5635
 8830TIP3   OH250684   3.367   4.912  10.334 -0.0663 -0.2688 -0.3830
 8830TIP3    H150685   3.385   4.860  10.413 -1.5353  0.2996  0.3747
 8830TIP3    H250686   3.275   4.935  10.341  0.3647  1.9258 -0.9863
 8831TIP3   OH250687   3.576   0.104  10.418  0.0858  0.2956  0.5928
 8831TIP3    H150688   3.532   0.028  10.380  0.3839  1.0157 -1.3254
 8831TIP3    H250689   3.531   0.179  10.380  2.3613  1.0617 -0.8246
 8832TIP3   OH250690   5.057   1.946  11.392  0.5062 -0.1147  0.1326
 8832TIP3    H150691   5.072   1.969  11.483 -0.5937 -0.7449  0.4927
 8832TIP3    H250692   5.019   1.858  11.395 -0.3494  0.1927 -0.8643
 8833TIP3   OH250693   4.857   1.910  10.863  0.0328  0.0683  0.3917
 8833TIP3    H150694   4.935   1.917  10.807  0.9925 -0.2639  1.6420
 8833TIP3    H250695   4.804   1.986  10.840 -0.2074 -0.6999 -1.8313
 8834TIP3   OH250696   2.314   4.134   9.029 -0.0131  0.0809 -0.3315
 8834TIP3    H150697   2.241   4.192   9.007 -0.3655  0.5611  1.9192
 8834TIP3    H250698   2.282   4.082   9.102  1.7223 -0.0532  0.3781
 8835TIP3   OH250699   2.622   0.222  11.627  0.1704 -0.2595 -0.2010
 8835TIP3    H150700   2.534   0.213  11.592 -0.4795 -2.2352  1.7252
 8835TIP3    H250701   2.615   0.292  11.692  0.2731  0.2312 -0.7092
 8836TIP3   OH250702   0.046   5.919  10.317  0.1557  0.0321  0.0715
 8836TIP3    H150703  -0.028   5.859  10.306  0.0384  0.2934 -0.6625
 8836TIP3    H250704   0.092   5.887  10.394 -0.1737 -0.7194 -0.0340
 8837TIP3   OH250705   5.837   3.512  10.558  0.5307  0.6149  0.4570
 8837TIP3    H150706   5.929   3.495  10.536  0.4552 -1.0184  1.2657
 8837TIP3    H250707   5.793   3.516  10.474  1.3466  1.4860  0.0535
 8838TIP3   OH250708   0.525   3.444  11.007 -0.2823  0.0382  0.1337
 8838TIP3    H150709   0.441   3.487  11.017 -0.4832 -0.0190 -1.1092
 8838TIP3    H250710   0.537   3.437  10.912 -0.1265 -2.3638  0.2683
 8839TIP3   OH250711   2.031   4.988  10.797 -0.5662 -0.4765  0.0713
 8839TIP3    H150712   1.970   5.040  10.851 -1.8292 -1.6513 -0.1743
 8839TIP3    H250713   2.062   4.920  10.856  0.2658 -0.0910  0.0903
 8840TIP3   OH250714   2.421   0.474   9.800  0.2321  0.2156 -0.0844
 8840TIP3    H150715   2.409   0.446   9.890  0.0335  2.2131  0.5667
 8840TIP3    H250716   2.344   0.440   9.754  0.0651 -0.3687  0.6043
 8841TIP3   OH250717   4.273   4.460   9.877 -0.4102  0.2513  0.0547
 8841TIP3    H150718   4.231   4.462   9.791 -1.1925  1.6439  0.4330
 8841TIP3    H250719   4.254   4.546   9.915  1.9439  0.5903  0.6670
 8842TIP3   OH250720   0.936   5.259  11.113 -0.0255 -0.1275  0.6743
 8842TIP3    H150721   0.928   5.184  11.054 -0.5564 -0.6512  1.3848
 8842TIP3    H250722   0.898   5.332  11.064 -0.2951 -0.5114  0.2956
 8843TIP3   OH250723   4.366   2.373  10.371  0.1218 -0.3252  0.8006
 8843TIP3    H150724   4.396   2.464  10.369 -0.0578 -0.2221  1.9136
 8843TIP3    H250725   4.390   2.342  10.458 -1.4050 -0.7963  1.0867
 8844TIP3   OH250726   0.802   0.213  10.659  0.6177  0.4022 -0.0162
 8844TIP3    H150727   0.739   0.148  10.692  0.3538 -0.2577 -1.7060
 8844TIP3    H250728   0.880   0.161  10.637  0.6840  0.7640 -0.6579
 8845TIP3   OH250729   0.649   0.002  10.450 -0.0768 -0.0887  0.0450
 8845TIP3    H150730   0.732   0.011  10.405 -0.6277 -2.3546 -1.5791
 8845TIP3    H250731   0.592   0.067  10.408 -0.1828 -1.2023 -1.5965
 8846TIP3   OH250732   2.209   6.619   9.980 -0.4259  0.5622  0.2894
 8846TIP3    H150733   2.190   6.675  10.055 -1.2605  1.9369 -0.9136
 8846TIP3    H250734   2.232   6.535  10.019  1.8103  1.9438  2.2046
 8847TIP3   OH250735   3.697   0.404   9.531  0.7791 -0.6611  0.4845
 8847TIP3    H150736   3.742   0.478   9.573 -0.8362  0.0488  1.0549
 8847TIP3    H250737   3.719   0.413   9.439  2.0775 -0.5601  0.7765
 8848TIP3   OH250738   0.482   5.021  10.262 -0.3638 -0.2594 -0.1837
 8848TIP3    H150739   0.505   5.113  10.250  0.9988 -0.3202  1.6580
 8848TIP3    H250740   0.564   4.978  10.286 -1.3152 -1.6236  0.7805
 8849TIP3   OH250741   2.420   0.686   8.923  0.2269  0.0380 -0.2549
 8849TIP3    H150742   2.339   0.635   8.924  0.6744 -0.7360  1.8856
 8849TIP3    H250743   2.394   0.772   8.891 -1.0362 -0.7615 -1.5002
 8850TIP3   OH250744   4.348   5.537  11.772 -0.2942 -0.4600  0.1930
 8850TIP3    H150745   4.409   5.609  11.758  0.4908 -0.8933  1.2414
 8850TIP3    H250746   4.284   5.545  11.701  0.8780  0.1086 -0.8451
 8851TIP3   OH250747   3.154   5.990   9.437  0.3152 -0.5194 -0.1775
 8851TIP3    H150748   3.153   5.904   9.395 -1.9063 -1.1063  0.9140
 8851TIP3    H250749   3.197   6.047   9.374 -0.7747 -1.8336 -2.2356
 8852TIP3   OH250750   1.441   1.365   9.952 -0.3882  0.3212 -0.0227
 8852TIP3    H150751   1.370   1.424   9.926  0.0878 -0.3476 -3.3670
 8852TIP3    H250752   1.521   1.410   9.926 -0.0378 -1.8774 -3.4824
 8853TIP3   OH250753   5.506   5.040   9.154  0.0815  0.3097  0.5645
 8853TIP3    H150754   5.572   4.983   9.113  0.2518 -0.4662  1.8583
 8853TIP3    H250755   5.554   5.086   9.223 -0.8858 -1.0337  2.2301
 8854TIP3   OH250756   2.885   6.335  10.543 -0.3395 -0.5639  0.3002
 8854TIP3    H150757   2.795   6.321  10.514 -0.5657  0.1814  0.6055
 8854TIP3    H250758   2.890   6.292  10.628 -0.5412 -0.2429  0.4794
 8855TIP3   OH250759   5.595   3.388  11.406 -0.1040  0.2368  0.3902
 8855TIP3    H150760   5.611   3.396  11.312 -1.0999  0.0317  0.1807
 8855TIP3    H250761   5.586   3.478  11.437 -1.0017  0.2870  0.0346
 8856TIP3   OH250762   0.538   2.694   9.622 -0.3313  0.1497 -0.2642
 8856TIP3    H150763   0.630   2.698   9.647 -0.2151 -0.0872 -0.6395
 8856TIP3    H250764   0.537   2.722   9.531 -0.4822 -0.8970 -0.5975
 8857TIP3   OH250765   1.870   2.928   9.248 -0.2939  0.6940  0.2026
 8857TIP3    H150766   1.947   2.938   9.191 -2.1561 -0.2402 -2.7317
 8857TIP3    H250767   1.833   2.844   9.222 -1.6461  0.5324  2.4479
 8858TIP3   OH250768   2.171   2.675  12.474 -0.8810  0.2621 -0.6069
 8858TIP3    H150769   2.184   2.761  12.433 -0.6529  0.2564 -0.5457
 8858TIP3    H250770   2.152   2.695  12.566  0.7656  0.1790 -0.2317
 8859TIP3   OH250771   1.770   1.011  10.547  0.4026  0.8116  0.5646
 8859TIP3    H150772   1.691   1.064  10.542 -0.0331  0.4560  2.6859
 8859TIP3    H250773   1.796   1.014  10.639  2.9901  1.0610 -0.0820
 8860TIP3   OH250774   6.490   0.675   9.177 -0.3211  0.2409 -0.0465
 8860TIP3    H150775   6.401   0.673   9.142 -0.2624  0.2773 -0.1987
 8860TIP3    H250776   6.517   0.583   9.179 -0.8511  0.0940  1.2586
 8861TIP3   OH250777   4.702   5.679   9.777 -0.2298  0.8056  0.2857
 8861TIP3    H150778   4.795   5.666   9.795 -0.3296  0.1283  0.3060
 8861TIP3    H250779   4.701   5.728   9.694  0.1213 -0.2471 -0.3587
 8862TIP3   OH250780   3.573   3.377  11.756 -0.0985  0.0084 -0.0239
 8862TIP3    H150781   3.597   3.378  11.849  0.7237 -1.6523 -0.1630
 8862TIP3    H250782   3.480   3.354  11.756  0.0908 -0.8052  0.3870
 8863TIP3   OH250783   5.467   0.521  11.720 -0.3669  0.2687  0.8587
 8863TIP3    H150784   5.390   0.576  11.703 -0.4734 -0.2706 -0.5900
 8863TIP3    H250785   5.519   0.571  11.784 -0.8152  1.7218  0.1388
 8864TIP3   OH250786   0.970   6.201  10.393 -0.4401  0.1145  0.4349
 8864TIP3    H150787   1.064   6.181  10.388 -0.7419 -1.3179  0.0739
 8864TIP3    H250788   0.965   6.295  10.377  0.9404  0.2227  0.5112
 8865TIP3   OH250789   4.125   3.895  11.215 -0.2769 -0.2804  0.1938
 8865TIP3    H150790   4.191   3.908  11.283  0.7875  1.2676 -1.0511
 8865TIP3    H250791   4.176   3.866  11.138 -1.0444  0.7736 -0.7435
 8866TIP3   OH250792   4.093   5.965  11.159 -0.0468 -0.7648 -0.5153
 8866TIP3    H150793   4.098   5.995  11.249  0.5960 -1.2367 -0.3890
 8866TIP3    H250794   4.091   6.045  11.106  0.8983 -0.5010 -0.1554
 8867TIP3   OH250795   5.448   1.634   9.165  0.1027 -0.4816  0.0034
 8867TIP3    H150796   5.449   1.682   9.083 -0.3596  0.3143  0.4473
 8867TIP3    H250797   5.457   1.701   9.233 -1.5260 -0.8843  0.6758
 8868TIP3   OH250798   0.838   3.043  11.524 -0.1899 -0.3740  0.1888
 8868TIP3    H150799   0.870   3.110  11.464 -0.0513  0.6195  1.3536
 8868TIP3    H250800   0.763   3.004  11.478 -2.2998  2.6953  0.7188
 8869TIP3   OH250801   2.059   1.481  11.694 -0.6653  0.4290  0.0164
 8869TIP3    H150802   2.050   1.418  11.623 -0.7038  0.9672 -0.4593
 8869TIP3    H250803   2.114   1.437  11.758 -0.6154 -0.0516 -0.3531
 8870TIP3   OH250804   6.707   5.576  10.690  0.3142 -1.0965  0.3929
 8870TIP3    H150805   6.685   5.647  10.750  0.3503  2.0565 -3.0037
 8870TIP3    H250806   6.622   5.538  10.666 -0.2567  1.0236 -1.2426
 8871TIP3   OH250807   3.135   4.282  10.447 -0.0843 -0.7267 -0.3146
 8871TIP3    H150808   3.078   4.213  10.412  0.5221 -1.4070  0.0214
 8871TIP3    H250809   3.126   4.354  10.385 -0.9185 -1.0116 -0.5389
 8872TIP3   OH250810   2.558   5.224  10.068  0.1058  0.5878  0.0983
 8872TIP3    H150811   2.602   5.257   9.990  1.4148 -1.4936 -0.1170
 8872TIP3    H250812   2.510   5.147  10.038 -0.1940  0.3417  1.1602
 8873TIP3   OH250813   4.604   5.255   8.860  0.0080  0.1053 -0.7310
 8873TIP3    H150814   4.658   5.176   8.859  0.4943  0.4369 -1.0820
 8873TIP3    H250815   4.658   5.321   8.816 -0.9447  0.2721 -1.6802
 8874TIP3   OH250816   0.135   2.220   9.289 -0.2888 -0.5406  0.0670
 8874TIP3    H150817   0.203   2.156   9.266  0.3643  0.6926 -1.6627
 8874TIP3    H250818   0.056   2.188   9.245 -0.4766 -1.1843  0.8493
 8875TIP3   OH250819   1.577   4.999  12.344  0.5092  0.0474  0.0417
 8875TIP3    H150820   1.508   4.934  12.336  0.1117 -0.0880  3.2447
 8875TIP3    H250821   1.532   5.083  12.333  0.2537 -0.1051 -0.0922
 8876TIP3   OH250822   4.313   1.945   9.933  0.6491 -0.1250 -0.5755
 8876TIP3    H150823   4.354   1.981   9.855  1.0774  0.1826 -0.2159
 8876TIP3    H250824   4.345   2.000  10.004 -0.7707  0.4210 -0.3360
 8877TIP3   OH250825   0.379   1.623   9.314  0.9007 -0.1847 -0.2938
 8877TIP3    H150826   0.348   1.703   9.356 -0.0836  0.6819 -2.4940
 8877TIP3    H250827   0.336   1.552   9.362 -0.3163  0.7608  0.0576
 8878TIP3   OH250828   5.845   1.221   9.367  0.7937  0.1114  0.4578
 8878TIP3    H150829   5.851   1.302   9.419 -1.7477  0.1913  0.7418
 8878TIP3    H250830   5.873   1.247   9.280  1.7517  0.8436  0.9555
 8879TIP3   OH250831   3.840   3.984  11.033  0.0799 -0.4621  0.5850
 8879TIP3    H150832   3.908   4.013  10.973 -0.1918 -0.6665  0.1710
 8879TIP3    H250833   3.818   3.895  11.004  1.4252 -1.4248  2.2827
 8880TIP3   OH250834   6.489   1.668  11.576 -0.3674 -0.0230  0.1176
 8880TIP3    H150835   6.448   1.632  11.497 -0.7560  1.4955 -0.3933
 8880TIP3    H250836   6.558   1.726  11.544  1.3243 -1.4798  0.9597
 8881TIP3   OH250837   0.381   2.807  11.648  0.7383  0.0964  0.1811
 8881TIP3    H150838   0.414   2.762  11.570  0.4545  1.5008 -0.7774
 8881TIP3    H250839   0.382   2.900  11.624 -0.5660  0.4434  1.3984
 8882TIP3   OH250840   3.614   0.897   9.108 -0.5488  0.0358  0.1421
 8882TIP3    H150841   3.632   0.931   9.020  1.1007  0.2017  0.5181
 8882TIP3    H250842   3.592   0.805   9.095  1.8601 -0.5549 -0.3103
 8883TIP3   OH250843   1.330   0.340  10.783 -0.2876  0.3670  0.3211
 8883TIP3    H150844   1.421   0.367  10.776 -0.5087  0.8610 -1.3293
 8883TIP3    H250845   1.327   0.254  10.741 -0.6729  0.6588 -0.2760
 8884TIP3   OH250846   3.073   3.109  11.170  0.0609 -0.6921 -0.3244
 8884TIP3    H150847   3.108   3.196  11.188  0.0222 -0.8973  0.8683
 8884TIP3    H250848   3.024   3.087  11.250  0.3172 -1.9254 -0.4932
 8885TIP3   OH250849   1.130   6.234  11.801  0.4261 -0.6890 -0.0074
 8885TIP3    H150850   1.131   6.235  11.896  1.5173 -0.6917 -0.0066
 8885TIP3    H250851   1.055   6.288  11.777  1.2979  0.9587  0.8341
 8886TIP3   OH250852   1.007   6.178  10.042  0.1728 -0.0022 -0.1509
 8886TIP3    H150853   1.010   6.219  10.128 -1.0081  1.0786 -0.6035
 8886TIP3    H250854   1.097   6.184  10.009 -0.0261  2.6278 -0.3653
 8887TIP3   OH250855   4.167   5.974   9.528  0.5994 -0.8201  0.1932
 8887TIP3    H150856   4.127   5.905   9.475  0.8842 -0.0169 -1.1374
 8887TIP3    H250857   4.139   5.956   9.617 -1.5189 -1.1444 -0.4763
 8888TIP3   OH250858   4.580   5.734  10.635  0.3065  0.4859  0.0736
 8888TIP3    H150859   4.507   5.728  10.697 -0.7453  1.6985 -0.9869
 8888TIP3    H250860   4.539   5.754  10.551  1.9182  2.6232 -0.3058
 8889TIP3   OH250861   6.670   3.687  10.551  0.4074  0.2095 -0.0969
 8889TIP3    H150862   6.714   3.611  10.587 -1.3776 -1.2355 -0.8216
 8889TIP3    H250863   6.578   3.661  10.544  0.0645  1.6928 -2.2573
 8890TIP3   OH250864   5.486   4.429   8.979  0.3218  0.0739  0.3629
 8890TIP3    H150865   5.534   4.346   8.984  0.7711  0.2305 -0.8995
 8890TIP3    H250866   5.456   4.444   9.068  1.8216 -0.5180  1.0129
 8891TIP3   OH250867   1.495   3.476  12.811 -0.5756 -0.1198 -0.1552
 8891TIP3    H150868   1.402   3.462  12.828 -0.5667  0.9838  0.9005
 8891TIP3    H250869   1.520   3.548  12.869  0.8255 -0.0660 -0.7837
 8892TIP3   OH250870   3.223   0.311  11.250  0.0581  0.3175  0.0312
 8892TIP3    H150871   3.294   0.284  11.192  1.0000  3.1196 -0.3134
 8892TIP3    H250872   3.259   0.300  11.338  0.3794  0.3617 -0.0921
 8893TIP3   OH250873   1.748   4.514  11.194 -0.4064  0.1584 -0.2265
 8893TIP3    H150874   1.787   4.437  11.152 -0.1335  0.1167  0.0954
 8893TIP3    H250875   1.680   4.477  11.251  1.2368 -0.0986  1.7179
 8894TIP3   OH250876   3.795   2.056  10.121  0.1337  0.1747  0.0035
 8894TIP3    H150877   3.800   2.140  10.165  2.0063 -0.1296  0.4456
 8894TIP3    H250878   3.879   2.014  10.139 -0.5139 -1.5326 -0.7263
 8895TIP3   OH250879   4.627   0.832   8.934 -0.3240 -0.3840  0.7236
 8895TIP3    H150880   4.619   0.918   8.974  1.6134 -0.2343  0.8510
 8895TIP3    H250881   4.672   0.848   8.851 -1.0291 -1.1462  0.1736
 8896TIP3   OH250882   4.743   5.452   8.721  0.2854  0.4561 -0.4678
 8896TIP3    H150883   4.705   5.527   8.767  0.9229  0.1852  0.5177
 8896TIP3    H250884   4.834   5.450   8.749  0.2332 -0.7967 -0.3350
 8897TIP3   OH250885   5.083   4.303  11.068 -0.3896 -0.1135 -0.2681
 8897TIP3    H150886   5.041   4.331  10.986  0.0373  2.3432  0.2550
 8897TIP3    H250887   5.010   4.288  11.128 -0.6933 -1.6525 -0.9699
 8898TIP3   OH250888   1.474   0.205  12.057 -0.3630  0.0945 -0.3578
 8898TIP3    H150889   1.564   0.233  12.044 -0.7888  1.3523 -0.7619
 8898TIP3    H250890   1.466   0.193  12.152  0.4027 -0.6807 -0.3892
 8899TIP3   OH250891   3.569   1.533   9.715  0.1877 -0.1803  0.0999
 8899TIP3    H150892   3.641   1.477   9.687  0.4052 -0.1368  0.5575
 8899TIP3    H250893   3.502   1.471   9.746  0.3479 -0.1955  0.4187
 8900TIP3   OH250894   2.525   0.037  10.658  0.1234 -0.3957  0.4540
 8900TIP3    H150895   2.542  -0.057  10.668 -2.3553 -0.7669  1.9792
 8900TIP3    H250896   2.571   0.077  10.732  0.7341 -0.4603  0.1133
 8901TIP3   OH250897   2.127   3.098  10.865 -0.3225  0.4681 -0.0293
 8901TIP3    H150898   2.110   3.038  10.792  1.1759 -0.3368  0.2390
 8901TIP3    H250899   2.128   3.041  10.943 -1.2433  1.2156  0.5451
 8902TIP3   OH250900   1.399   3.498  11.026  0.0581 -0.0124 -0.3879
 8902TIP3    H150901   1.430   3.463  11.109 -0.1384  1.4822  0.3578
 8902TIP3    H250902   1.306   3.476  11.022  0.2734 -0.8907 -0.6600
 8903TIP3   OH250903   1.116   0.741  11.728  0.1470  0.2988 -0.4616
 8903TIP3    H150904   1.047   0.688  11.689 -0.5283  1.8007 -1.4134
 8903TIP3    H250905   1.186   0.742  11.662  1.3934 -1.7146  0.7469
 8904TIP3   OH250906   6.104   1.664  11.283 -0.2970  0.1202  0.1281
 8904TIP3    H150907   6.040   1.597  11.258 -0.2049 -0.1175  0.5322
 8904TIP3    H250908   6.067   1.706  11.360  0.4959 -0.6922  0.9707
 8905TIP3   OH250909   0.330   6.544   9.593 -0.1258 -0.3193  0.7256
 8905TIP3    H150910   0.380   6.482   9.646  1.3208 -0.1055 -0.3658
 8905TIP3    H250911   0.238   6.525   9.616  0.3257 -2.0706  1.2715
 8906TIP3   OH250912   1.800   6.504   9.645  0.1891  0.0984 -0.0135
 8906TIP3    H150913   1.781   6.597   9.637  0.6588  0.3048  1.1332
 8906TIP3    H250914   1.714   6.462   9.648 -0.0306  0.5513  0.0958
 8907TIP3   OH250915   6.340   4.614   9.333  0.2894  0.4502 -0.1122
 8907TIP3    H150916   6.406   4.561   9.288 -0.7906 -0.7198 -0.3901
 8907TIP3    H250917   6.266   4.615   9.272 -0.0099  1.6111  0.2552
 8908TIP3   OH250918   3.440   4.194   9.623  0.0165  0.7152 -0.0654
 8908TIP3    H150919   3.452   4.113   9.673 -0.5457  1.3764  1.1880
 8908TIP3    H250920   3.522   4.242   9.635  0.0365  0.6934 -0.1147
 8909TIP3   OH250921   6.095   0.984  11.803 -0.1477  0.0332  0.4730
 8909TIP3    H150922   6.121   1.064  11.849 -0.6841 -0.1702  1.1424
 8909TIP3    H250923   6.174   0.931  11.801  0.2863  0.6745 -0.2087
 8910TIP3   OH250924   3.471   4.348  10.998  0.3216 -0.2307  0.0559
 8910TIP3    H150925   3.551   4.400  10.995 -1.0687  1.9879 -2.0181
 8910TIP3    H250926   3.491   4.270  10.946  1.1723  0.2135 -0.3039
 8911TIP3   OH250927   6.061   0.563  10.534  0.1864  0.1095 -0.4849
 8911TIP3    H150928   6.013   0.530  10.610 -0.6243  0.1458 -0.9619
 8911TIP3    H250929   6.001   0.627  10.495  0.7685  0.4003 -0.9108
 8912TIP3   OH250930   6.468   2.246   9.577  0.0360  0.2479  0.1220
 8912TIP3    H150931   6.424   2.246   9.492  0.6003 -0.7301 -0.1976
 8912TIP3    H250932   6.542   2.305   9.565  1.3345 -1.4403 -0.7921
 8913TIP3   OH250933   2.597   3.429   9.007 -0.0946  0.3312  0.7911
 8913TIP3    H150934   2.683   3.445   8.968  0.0416  0.6324  1.2031
 8913TIP3    H250935   2.556   3.515   9.011  0.1694  0.4317  1.9233
 8914TIP3   OH250936   4.140   2.812  11.078  0.7517 -0.2000  0.0298
 8914TIP3    H150937   4.101   2.844  11.159  0.5188 -1.6308  0.5244
 8914TIP3    H250938   4.166   2.722  11.098  2.4064  0.0174 -0.9263
 8915TIP3   OH250939   5.117   6.700   9.021  0.3525  0.0606 -0.1181
 8915TIP3    H150940   5.175   6.774   9.009 -2.2282  2.5241  1.2156
 8915TIP3    H250941   5.056   6.705   8.947  2.0011 -2.8674 -1.8713
 8916TIP3   OH250942   5.186   2.871  10.091 -0.3078  0.1099  0.3008
 8916TIP3    H150943   5.157   2.861  10.001 -1.2748  0.2411  0.5919
 8916TIP3    H250944   5.237   2.792  10.109 -0.1343  0.0697 -0.3365
 8917TIP3   OH250945   5.178   5.084  10.047 -0.4133  0.0927 -0.0923
 8917TIP3    H150946   5.179   5.093   9.952  1.6878 -0.1229 -0.1418
 8917TIP3    H250947   5.216   5.166  10.079  0.9982 -0.7219  0.4117
 8918TIP3   OH250948   4.127   4.250  10.838  0.3479 -0.2826 -0.0169
 8918TIP3    H150949   4.084   4.291  10.914  0.2245 -1.4757  0.5809
 8918TIP3    H250950   4.097   4.159  10.840 -0.4611 -0.0981 -2.1205
 8919TIP3   OH250951   2.086   4.525  10.076 -0.1895 -0.9951  0.0108
 8919TIP3    H150952   2.151   4.572  10.024 -1.4650  0.0128 -0.7093
 8919TIP3    H250953   2.026   4.488  10.012 -1.3863 -0.3267  0.7050
 8920TIP3   OH250954   1.770   5.167  11.814  0.1309  0.5078 -0.3979
 8920TIP3    H150955   1.796   5.075  11.819 -0.0892  0.4740  0.2126
 8920TIP3    H250956   1.718   5.182  11.893  1.5590  1.6044  0.3785
 8921TIP3   OH250957   6.442   0.701   9.803 -0.0778 -0.4664 -0.0143
 8921TIP3    H150958   6.351   0.712   9.830  0.1790  0.0575  0.6940
 8921TIP3    H250959   6.487   0.778   9.839  0.4471 -0.1543 -1.2777
 8922TIP3   OH250960   4.548   2.819   9.916 -0.3257  0.1311  0.1483
 8922TIP3    H150961   4.613   2.749   9.905  0.7630  1.0357  0.6384
 8922TIP3    H250962   4.549   2.865   9.832 -0.0762  0.3600  0.2777
 8923TIP3   OH250963   0.086   2.504   8.916 -0.1994  0.6893 -0.0395
 8923TIP3    H150964   0.137   2.583   8.898  0.5555 -0.0399 -1.2807
 8923TIP3    H250965   0.152   2.436   8.934 -0.8407  0.6804  2.8822
 8924TIP3   OH250966   1.385   6.003   9.332 -0.1138 -0.2434 -0.1766
 8924TIP3    H150967   1.392   6.035   9.242 -0.3563 -1.1864 -0.5472
 8924TIP3    H250968   1.293   6.013   9.354 -0.2877 -1.0837 -0.4661
 8925TIP3   OH250969   3.261   4.769  11.611  0.2178  0.3218 -0.4629
 8925TIP3    H150970   3.306   4.816  11.541 -1.0371  0.0675 -1.4713
 8925TIP3    H250971   3.197   4.715  11.566  1.6283 -2.4506  0.6496
 8926TIP3   OH250972   1.509   4.205   9.052  0.2872  0.2055  0.3373
 8926TIP3    H150973   1.521   4.131   8.993  0.7150  1.8471 -1.7527
 8926TIP3    H250974   1.414   4.216   9.056  0.2664  1.4046 -1.9085
 8927TIP3   OH250975   2.090   6.221  10.008 -0.0590 -0.3671 -0.3381
 8927TIP3    H150976   2.093   6.168  10.087  0.2400 -0.9879 -0.7515
 8927TIP3    H250977   2.177   6.259  10.000 -0.3084  0.3027  0.0235
 8928TIP3   OH250978   3.243   1.372  12.266  0.4227 -0.1906  0.6761
 8928TIP3    H150979   3.234   1.288  12.309 -1.1866 -0.1766  0.4066
 8928TIP3    H250980   3.289   1.352  12.184 -1.5046 -1.1228 -0.2317
 8929TIP3   OH250981   3.442   5.842  10.814 -0.5770 -0.5290 -0.6064
 8929TIP3    H150982   3.361   5.800  10.844 -0.7711  0.2437 -0.0267
 8929TIP3    H250983   3.453   5.810  10.724 -0.9658 -1.4502 -0.3404
 8930TIP3   OH250984   6.128   0.233   9.427 -0.5173 -0.6764  0.3521
 8930TIP3    H150985   6.114   0.266   9.515 -2.4222 -0.7177  0.1009
 8930TIP3    H250986   6.223   0.241   9.413 -0.2445 -0.2916  2.2240
 8931TIP3   OH250987   4.382   6.045  10.493  0.5374  0.4588 -0.4189
 8931TIP3    H150988   4.338   6.129  10.479 -0.0123  0.6949  2.2041
 8931TIP3    H250989   4.475   6.068  10.498  0.4294  0.8515 -0.1540
 8932TIP3   OH250990   5.453   3.157  12.057  0.1677  0.0462  0.2935
 8932TIP3    H150991   5.533   3.109  12.077 -0.2370 -0.3022  1.1202
 8932TIP3    H250992   5.448   3.225  12.124 -0.2845 -0.0011  0.3121
 8933TIP3   OH250993   1.380   6.059  10.734 -0.0512 -0.1064  0.2037
 8933TIP3    H150994   1.429   6.008  10.670  0.4678  0.0058  0.5050
 8933TIP3    H250995   1.300   6.086  10.688  0.1681 -0.2938 -0.2890
 8934TIP3   OH250996   4.041   1.464   9.593  0.2176 -0.1357 -0.3079
 8934TIP3    H150997   4.132   1.455   9.565  0.0271  1.3453 -1.5426
 8934TIP3    H250998   3.995   1.496   9.515 -1.5050 -1.4922  0.0940
 8935TIP3   OH250999   2.074   3.244  11.136  0.4203 -0.5369 -0.3725
 8935TIP3    H151000   2.088   3.275  11.226 -0.5255  0.5278 -0.5754
 8935TIP3    H251001   2.047   3.152  11.146 -0.0375 -0.3189  0.4544
 8936TIP3   OH251002   4.563   1.232  11.055 -0.0920 -0.1797  0.0307
 8936TIP3    H151003   4.476   1.217  11.018 -0.1711  0.1807  0.0708
 8936TIP3    H251004   4.556   1.315  11.102  0.1712 -0.3377  0.3548
 8937TIP3   OH251005   1.375   0.173  10.562  0.4243 -0.1119 -0.1673
 8937TIP3    H151006   1.372   0.189  10.468  3.0959  0.6706 -0.2092
 8937TIP3    H251007   1.332   0.088  10.574 -0.0971 -0.1458 -2.0611
 8938TIP3   OH251008   1.234   6.192  10.287  0.2107  0.5674  0.4791
 8938TIP3    H151009   1.236   6.264  10.224  0.5289  1.4570  1.4685
 8938TIP3    H251010   1.307   6.136  10.262 -0.3461  0.2978 -0.6107
 8939TIP3   OH251011   6.346   2.514  10.822 -0.1536  0.6006  0.5663
 8939TIP3    H151012   6.416   2.519  10.756 -1.2504 -0.7623 -0.7788
 8939TIP3    H251013   6.336   2.604  10.854  0.6407  1.2356 -0.8815
 8940TIP3   OH251014   2.224   5.411  11.434 -0.4062  0.4209 -0.0578
 8940TIP3    H151015   2.154   5.362  11.478  2.2877 -1.6085  2.2939
 8940TIP3    H251016   2.266   5.347  11.377 -0.3176  1.6025 -1.3866
 8941TIP3   OH251017   3.665   5.108   9.632  0.6745  0.1520  0.0740
 8941TIP3    H151018   3.572   5.093   9.649  0.3913  1.0426 -0.6008
 8941TIP3    H251019   3.711   5.046   9.689 -0.3155  0.0729  0.8027
 8942TIP3   OH251020   1.332   5.091  12.231  0.2943  0.2443  0.4553
 8942TIP3    H151021   1.365   5.003  12.246 -1.2577  0.0074  2.9457
 8942TIP3    H251022   1.237   5.081  12.226 -0.0348  1.8793  2.2182
 8943TIP3   OH251023   0.153   2.873  10.583  0.3608 -0.2644  0.0590
 8943TIP3    H151024   0.122   2.920  10.506 -0.6594  1.3976  1.4041
 8943TIP3    H251025   0.228   2.923  10.613 -1.0483  0.9108  1.8095
 8944TIP3   OH251026   3.301   6.669  10.993 -0.1748 -0.3937 -0.3030
 8944TIP3    H151027   3.361   6.609  11.037 -1.3440 -1.0766  0.4168
 8944TIP3    H251028   3.343   6.688  10.909  0.8758 -1.1018  0.0388
 8945TIP3   OH251029   1.353   5.786  11.537 -0.0638  0.3639  0.3432
 8945TIP3    H151030   1.439   5.795  11.495  0.1107 -0.2391  0.5668
 8945TIP3    H251031   1.294   5.833  11.478  0.3307  0.3307 -0.0926
 8946TIP3   OH251032   6.378   6.539   9.314 -0.0760  0.3766  0.0540
 8946TIP3    H151033   6.300   6.519   9.262  0.5653 -0.0868 -0.7582
 8946TIP3    H251034   6.394   6.460   9.366  0.3984  0.1008 -0.4990
 8947TIP3   OH251035   5.900   0.465  11.457 -0.0732  0.1670  0.2454
 8947TIP3    H151036   5.810   0.455  11.424 -0.0243 -0.3342  0.2567
 8947TIP3    H251037   5.889   0.500  11.545 -0.3721 -1.9310  1.1167
 8948TIP3   OH251038   3.182   3.546  11.012  0.1668 -0.0894 -0.5941
 8948TIP3    H151039   3.099   3.529  11.054 -0.3056  0.7100 -1.1628
 8948TIP3    H251040   3.211   3.461  10.978 -0.2008 -0.4447 -0.0173
 8949TIP3   OH251041   3.551   4.601  11.463 -0.0519  0.2250 -0.2359
 8949TIP3    H151042   3.550   4.591  11.367  0.0565  0.3898 -0.2549
 8949TIP3    H251043   3.550   4.695  11.477  2.0631  0.2616 -0.1083
 8950TIP3   OH251044   0.373   3.889   9.648 -0.4016  0.0643  0.0226
 8950TIP3    H151045   0.452   3.894   9.593 -1.2449 -0.4246 -1.2705
 8950TIP3    H251046   0.399   3.933   9.729  1.6133 -1.1958  0.1462
 8951TIP3   OH251047   0.414   2.927   9.465  0.4085 -0.2862 -0.2351
 8951TIP3    H151048   0.361   2.926   9.386  0.6852  0.4474 -0.4455
 8951TIP3    H251049   0.388   3.008   9.510 -0.7548 -1.3840  1.1407
 8952TIP3   OH251050   4.446   1.913  11.078 -0.2683 -0.3251  0.5736
 8952TIP3    H151051   4.485   1.894  11.164  0.1034  1.3197  0.8063
 8952TIP3    H251052   4.401   1.997  11.090  1.6561  1.1039 -1.3640
 8953TIP3   OH251053   1.476   0.823  12.260  0.2711 -0.1438  0.2038
 8953TIP3    H151054   1.425   0.903  12.268  2.0685  1.2466 -1.5297
 8953TIP3    H251055   1.513   0.810  12.347  0.1217  1.0141  0.4572
 8954TIP3   OH251056   5.073   2.826   9.859  0.0648 -0.1209  0.2654
 8954TIP3    H151057   5.053   2.874   9.778 -1.3087 -3.2742 -1.4387
 8954TIP3    H251058   4.987   2.808   9.898  0.2773 -2.7855 -0.2720
 8955TIP3   OH251059   5.896   3.759   9.081 -1.0700 -0.2212  0.8175
 8955TIP3    H151060   5.912   3.724   9.169 -2.8927  0.1480  1.3394
 8955TIP3    H251061   5.901   3.854   9.092  1.9952 -0.1551 -0.2159
 8956TIP3   OH251062   2.597   1.709  12.599  0.0098 -0.2762  0.3515
 8956TIP3    H151063   2.512   1.751  12.588  0.3766  0.4715  0.3436
 8956TIP3    H251064   2.589   1.659  12.681 -0.2985  0.1370  0.5758
 8957TIP3   OH251065   5.700   0.766  10.690 -0.0019 -0.1317 -0.0123
 8957TIP3    H151066   5.659   0.801  10.769  0.1585  0.0998 -0.0297
 8957TIP3    H251067   5.764   0.703  10.721 -0.9021 -1.0648 -0.0140
 8958TIP3   OH251068   4.057   6.432  10.107 -0.4557  0.4178  0.3363
 8958TIP3    H151069   4.061   6.509  10.050  2.9179 -0.3504 -0.7177
 8958TIP3    H251070   4.140   6.433  10.155 -1.3541 -1.3087  2.0886
 8959TIP3   OH251071   0.339   2.181  11.059 -0.6542 -0.5055 -0.1832
 8959TIP3    H151072   0.364   2.271  11.038 -1.0359 -0.5925 -1.0876
 8959TIP3    H251073   0.262   2.189  11.115  0.2940 -0.2611  1.1225
 8960TIP3   OH251074   1.961   4.512  11.548  0.0491 -0.0438  0.2197
 8960TIP3    H151075   1.919   4.431  11.579  1.1830 -0.9412 -0.4777
 8960TIP3    H251076   2.013   4.542  11.622  0.7874 -0.8024  0.0311
 8961TIP3   OH251077   3.512   6.683  11.669 -0.6928 -0.1045 -0.5404
 8961TIP3    H151078   3.518   6.750  11.600 -1.7477 -0.7095 -1.2378
 8961TIP3    H251079   3.475   6.730  11.744 -0.4482  0.3299 -0.6830
 8962TIP3   OH251080   0.328   1.016  11.663 -0.3939 -0.9604  0.1141
 8962TIP3    H151081   0.269   1.028  11.738 -1.5800  0.1304 -0.9458
 8962TIP3    H251082   0.403   1.073  11.683 -1.0533 -0.0828  0.1358
 8963TIP3   OH251083   4.574   5.986  11.079 -0.0529  0.4516 -0.3170
 8963TIP3    H151084   4.605   6.076  11.088 -2.0498  1.1351  0.3950
 8963TIP3    H251085   4.522   5.986  10.999 -2.1231  0.6518  0.9504
 8964TIP3   OH251086   5.492   3.892  11.450  0.1455 -0.1091 -0.0051
 8964TIP3    H151087   5.439   3.840  11.510 -0.4178 -0.4560 -0.7972
 8964TIP3    H251088   5.570   3.838  11.435  0.2817 -0.0288  0.3905
 8965TIP3   OH251089   1.614   0.429   9.448 -0.0039 -0.1895  0.2742
 8965TIP3    H151090   1.521   0.425   9.468 -0.4955 -2.3550 -1.9508
 8965TIP3    H251091   1.630   0.520   9.423 -1.3815  0.3093  1.1289
 8966TIP3   OH251092   1.355   5.064   8.996  0.4088 -0.4029  0.2054
 8966TIP3    H151093   1.285   5.005   8.971 -0.0858  0.5764 -0.8313
 8966TIP3    H251094   1.408   5.014   9.058  0.1286 -1.9850 -0.7769
 8967TIP3   OH251095   6.129   5.371  11.390  0.4306 -0.9114 -0.4575
 8967TIP3    H151096   6.215   5.398  11.422 -0.1164 -0.8299  0.9950
 8967TIP3    H251097   6.094   5.314  11.458 -0.8183 -0.6513 -0.8398
 8968TIP3   OH251098   6.135   5.359  10.219 -0.2783  0.6936 -0.3183
 8968TIP3    H151099   6.117   5.443  10.261 -0.1022  0.2764  0.6301
 8968TIP3    H251100   6.226   5.340  10.240  0.4273  1.3620 -2.5381
 8969TIP3   OH251101   0.740   3.057   9.898 -0.3365 -0.5010 -0.2867
 8969TIP3    H151102   0.785   3.111   9.963  0.7803  0.3106 -1.6708
 8969TIP3    H251103   0.695   2.990   9.949 -0.7136  0.9775  1.4106
 8970TIP3   OH251104   5.146   3.147  11.726  0.8098  0.2154 -0.0859
 8970TIP3    H151105   5.137   3.066  11.777  0.8349  0.3749  0.1728
 8970TIP3    H251106   5.126   3.217  11.788 -0.4415  0.3506 -0.6245
 8971TIP3   OH251107   6.392   2.090   9.832  0.2781 -0.1429 -0.0179
 8971TIP3    H151108   6.411   2.154   9.763  0.8964 -1.5469 -1.1906
 8971TIP3    H251109   6.369   2.143   9.908 -3.3738  1.5667 -2.0229
 8972TIP3   OH251110   5.710   1.223  10.577 -0.0845 -0.2063  0.0776
 8972TIP3    H151111   5.799   1.236  10.545  0.1755 -1.5218  0.2079
 8972TIP3    H251112   5.656   1.277  10.520  0.5022 -1.4702 -1.7814
 8973TIP3   OH251113   3.007   4.943  10.517 -0.2922 -0.2991  0.3946
 8973TIP3    H151114   3.031   4.969  10.428 -1.7405 -1.7813 -0.4727
 8973TIP3    H251115   3.087   4.957  10.568  0.6882  0.2279 -1.1983
 8974TIP3   OH251116   2.957   2.686   9.912 -0.1357  0.0010 -0.2935
 8974TIP3    H151117   2.881   2.745   9.915 -1.2359 -1.2399 -1.6859
 8974TIP3    H251118   3.030   2.741   9.885 -0.9403  0.8835 -0.7156
 8975TIP3   OH251119   1.528   3.593   9.502 -0.2908 -0.0363 -0.3086
 8975TIP3    H151120   1.551   3.680   9.536 -0.4194 -0.6347  1.4035
 8975TIP3    H251121   1.612   3.549   9.491 -0.2840 -0.1655  0.2029
 8976TIP3   OH251122   1.268   2.807  11.517 -0.0089  0.4749  0.2711
 8976TIP3    H151123   1.309   2.856  11.446  1.9723 -1.0079  0.2959
 8976TIP3    H251124   1.203   2.752  11.474  0.3344  0.4646 -0.2373
 8977TIP3   OH251125   1.808   2.106  10.047 -0.2384 -0.5715 -0.2452
 8977TIP3    H151126   1.890   2.148  10.076 -0.5810  0.4365 -0.6859
 8977TIP3    H251127   1.819   2.095   9.953 -1.1633  0.9142 -0.5629
 8978TIP3   OH251128   3.015   3.090  10.525 -0.6989  0.2101  0.1629
 8978TIP3    H151129   3.080   3.029  10.561  0.5490  1.6252  0.4318
 8978TIP3    H251130   3.027   3.084  10.431 -0.5698  0.0599  0.1873
 8979TIP3   OH251131   0.601   6.615  10.110  0.3250  0.1244  0.7701
 8979TIP3    H151132   0.519   6.660  10.088  0.2889 -0.7831 -1.2584
 8979TIP3    H251133   0.574   6.525  10.130  0.7192  0.0973  1.1916
 8980TIP3   OH251134   4.426   2.267  10.014 -0.4533  0.1169  0.4398
 8980TIP3    H151135   4.431   2.295   9.923  0.1107 -0.0425  0.4166
 8980TIP3    H251136   4.399   2.345  10.062  0.7535  0.6076  0.3360
 8981TIP3   OH251137   3.739   4.080   9.514  0.7250  0.0522  0.0680
 8981TIP3    H151138   3.781   4.114   9.593 -1.2895  1.3389  0.6694
 8981TIP3    H251139   3.695   4.000   9.542  2.3222 -1.0449 -0.4541
 8982TIP3   OH251140   1.415   3.245   9.521 -0.1690 -0.5719  0.0658
 8982TIP3    H151141   1.386   3.249   9.612 -0.5866 -1.6275 -0.0154
 8982TIP3    H251142   1.371   3.169   9.484  2.1903 -1.8614 -0.2547
 8983TIP3   OH251143   6.156   2.825  11.072  0.0024  0.2043  0.0012
 8983TIP3    H151144   6.228   2.784  11.025  0.0088 -1.1477  1.1442
 8983TIP3    H251145   6.090   2.843  11.004  0.0065 -1.7031 -0.5511
 8984TIP3   OH251146   5.230   1.209   9.245 -0.2745 -0.1994 -0.4875
 8984TIP3    H151147   5.274   1.183   9.164  0.4141 -2.2228  0.4792
 8984TIP3    H251148   5.301   1.225   9.307 -0.7809  1.7869 -0.3596
 8985TIP3   OH251149   0.775   0.370  10.085  0.2008  0.2647  0.8796
 8985TIP3    H151150   0.714   0.430  10.127 -0.8637  1.4106 -2.0997
 8985TIP3    H251151   0.847   0.425  10.054  0.0997 -0.2400 -0.3041
 8986TIP3   OH251152   6.040   2.141  10.919  0.0250  0.2534 -0.0562
 8986TIP3    H151153   6.063   2.059  10.874 -1.7593  0.8724 -2.2543
 8986TIP3    H251154   6.124   2.186  10.931  0.9084 -1.3987  0.2309
 8987TIP3   OH251155   4.798   3.479  11.054  0.1880  0.1409  0.6575
 8987TIP3    H151156   4.824   3.562  11.014  0.0948  0.2022  0.7241
 8987TIP3    H251157   4.874   3.451  11.104 -0.3366  1.0225  2.0165
 8988TIP3   OH251158   6.064   6.181  10.587 -0.0633 -0.2725 -0.0581
 8988TIP3    H151159   6.034   6.236  10.515 -1.3896 -0.5696  0.2437
 8988TIP3    H251160   5.998   6.191  10.654  1.5952  0.6937  1.5173
 8989TIP3   OH251161   0.044   1.856   8.839 -0.6714  0.4271  0.4320
 8989TIP3    H151162   0.118   1.805   8.873 -1.3998 -1.2708 -0.3759
 8989TIP3    H251163   0.037   1.931   8.897  2.2698  1.1826  0.0010
 8990TIP3   OH251164   2.433   3.637   9.384  0.4038  0.2051  0.7525
 8990TIP3    H151165   2.433   3.545   9.358 -1.7359  0.4377 -0.2774
 8990TIP3    H251166   2.513   3.673   9.347  0.8073 -1.0206  0.3828
 8991TIP3   OH251167   6.053   1.471  10.284  0.3272 -0.3321  0.2738
 8991TIP3    H151168   6.010   1.449  10.201 -1.8486 -0.0221  1.2722
 8991TIP3    H251169   6.069   1.565  10.278  0.7174 -0.4133 -0.0195
 8992TIP3   OH251170   6.016   4.355  11.045  0.1203  0.0890 -0.1940
 8992TIP3    H151171   6.034   4.275  10.996 -1.0314 -0.1224 -0.3080
 8992TIP3    H251172   6.046   4.426  10.989  1.6424 -0.2616  0.1309
 8993TIP3   OH251173   5.295   2.166  11.584  0.0296 -0.0944  0.0057
 8993TIP3    H151174   5.370   2.114  11.616 -0.2889 -1.4908 -1.3682
 8993TIP3    H251175   5.261   2.115  11.511 -1.0297  1.5416 -0.6909
 8994TIP3   OH251176   4.788   5.483  10.866 -0.3708  0.0017  0.4714
 8994TIP3    H151177   4.770   5.415  10.930 -1.3207  0.9777  1.2697
 8994TIP3    H251178   4.863   5.450  10.817 -0.3136 -1.2551  1.3584
 8995TIP3   OH251179   3.112   3.655  10.547 -0.0804  0.3281 -0.0206
 8995TIP3    H151180   3.094   3.562  10.538  2.1346 -0.3012  1.3528
 8995TIP3    H251181   3.202   3.665  10.516  0.2308  1.7259  1.2115
 8996TIP3   OH251182   5.700   3.623  11.535  0.3643 -0.4331  0.1286
 8996TIP3    H151183   5.690   3.668  11.451  1.1016  0.2712  0.3998
 8996TIP3    H251184   5.776   3.666  11.575  0.2281 -0.9988  1.0005
 8997TIP3   OH251185   6.068   4.025  11.409  0.0876 -0.3483  0.0634
 8997TIP3    H151186   5.975   4.017  11.433 -0.1396 -0.0771 -0.6838
 8997TIP3    H251187   6.108   3.943  11.439 -0.5242 -0.7371 -0.1686
 8998TIP3   OH251188   6.347   5.661   9.747 -0.1085 -0.4780 -0.2862
 8998TIP3    H151189   6.437   5.659   9.779  0.4498 -0.9717 -1.8085
 8998TIP3    H251190   6.355   5.666   9.652 -1.6958  0.7181 -0.4029
 8999TIP3   OH251191   5.480   1.312  10.431  0.7231 -0.0514  0.1005
 8999TIP3    H151192   5.443   1.309  10.519  0.3344  1.3594  0.0130
 8999TIP3    H251193   5.476   1.405  10.407  0.4514 -0.4638 -1.5564
 9000TIP3   OH251194   2.313   2.559  11.709  0.0225  0.6609  0.1207
 9000TIP3    H151195   2.348   2.472  11.729  0.5400  0.2571 -2.2119
 9000TIP3    H251196   2.219   2.546  11.698 -0.2259  0.8404  1.8502
 9001TIP3   OH251197   6.660   5.658   9.424  0.0845  0.5357  0.3712
 9001TIP3    H151198   6.717   5.634   9.498  0.9210  0.8101 -0.1717
 9001TIP3    H251199   6.572   5.659   9.462  0.4148 -0.0408  1.1962
 9002TIP3   OH251200   4.237   4.049  10.189 -0.4861  0.4583 -0.2865
 9002TIP3    H151201   4.211   4.137  10.214 -0.3348  1.2335 -2.5943
 9002TIP3    H251202   4.328   4.059  10.159  0.1643 -0.8675  1.0967
 9003TIP3   OH251203   3.020   0.147  10.164  0.0241 -0.8317 -0.8842
 9003TIP3    H151204   2.931   0.124  10.191 -0.2330 -0.5310 -1.4653
 9003TIP3    H251205   3.010   0.225  10.110  0.7618 -0.0586  0.0437
 9004TIP3   OH251206   2.358   3.239  11.112 -0.0820 -0.0384 -0.4499
 9004TIP3    H151207   2.292   3.268  11.175 -0.3285 -0.0089 -0.7157
 9004TIP3    H251208   2.346   3.297  11.037  1.7007  1.4348  0.3133
 9005TIP3   OH251209   3.350   4.516   9.620  0.1298 -0.2178  0.2334
 9005TIP3    H151210   3.325   4.428   9.650  0.1531 -0.5924 -0.7889
 9005TIP3    H251211   3.445   4.511   9.608  0.4678  0.6145  2.2352
 9006TIP3   OH251212   1.099   2.348   9.112  0.0294  0.1994  0.0338
 9006TIP3    H151213   1.020   2.320   9.066 -0.0319  0.5747 -0.0890
 9006TIP3    H251214   1.068   2.394   9.190  0.0618  2.4589 -1.2109
 9007TIP3   OH251215   1.139   3.433  10.958 -0.0750 -0.0754  0.1218
 9007TIP3    H151216   1.053   3.465  10.932 -1.0295 -1.4393  1.4246
 9007TIP3    H251217   1.161   3.366  10.893 -0.0610  0.1701 -0.1264
 9008TIP3   OH251218   5.029   3.835  11.215 -0.2423  0.4674 -0.2177
 9008TIP3    H151219   5.013   3.854  11.307  1.3668  1.3259 -0.0669
 9008TIP3    H251220   5.105   3.890  11.192 -0.4315  0.0667 -1.9752
 9009TIP3   OH251221   4.481   4.724   9.179  0.7309 -0.6236  0.0864
 9009TIP3    H151222   4.452   4.634   9.166 -0.0608 -0.2855 -0.5607
 9009TIP3    H251223   4.531   4.746   9.101  0.0534 -0.1703 -0.2265
 9010TIP3   OH251224   3.182   2.919  10.682  0.3645  0.5080  0.0461
 9010TIP3    H151225   3.153   2.944  10.769 -2.1649 -0.7069 -0.3392
 9010TIP3    H251226   3.277   2.917  10.687  0.2716 -0.6446  3.1197
 9011TIP3   OH251227   2.636   5.063  11.451  0.0068 -0.2359  0.2936
 9011TIP3    H151228   2.589   5.145  11.463 -0.1134 -0.3174  0.3904
 9011TIP3    H251229   2.697   5.058  11.524 -0.6748 -0.6991  0.8510
 9012TIP3   OH251230   2.878   4.545  11.068  0.2910 -0.1326  0.8012
 9012TIP3    H151231   2.866   4.513  10.979  0.7286 -0.9524  1.0198
 9012TIP3    H251232   2.796   4.522  11.113  1.2731 -2.7114  1.4373
 9013TIP3   OH251233   2.123   1.665  12.681  0.5943  0.2131 -0.8488
 9013TIP3    H151234   2.083   1.668  12.768 -0.0768 -0.8917 -1.0927
 9013TIP3    H251235   2.059   1.710  12.625 -0.4563 -1.7108 -1.2703
 9014TIP3   OH251236   1.102   1.359  10.779 -0.8329 -0.4217  1.0174
 9014TIP3    H151237   1.192   1.369  10.747 -0.5935  0.8211  1.9886
 9014TIP3    H251238   1.109   1.297  10.851 -0.8353 -0.7013  0.7778
 9015TIP3   OH251239   3.373   3.070  11.244  0.2581  0.2804  0.2929
 9015TIP3    H151240   3.381   3.099  11.335 -1.9929  1.8998  0.0374
 9015TIP3    H251241   3.279   3.071  11.226  0.7070  1.3471 -2.4761
 9016TIP3   OH251242   2.886   0.689  11.155  0.4238  0.2646  0.0540
 9016TIP3    H151243   2.923   0.601  11.144 -0.8396 -0.1908 -0.6839
 9016TIP3    H251244   2.907   0.713  11.245 -0.6850 -1.5028  0.8256
 9017TIP3   OH251245   1.876   0.099   9.029 -0.0109  0.2474 -0.4358
 9017TIP3    H151246   1.948   0.051   9.070 -0.3854  0.4994  0.5432
 9017TIP3    H251247   1.814   0.031   9.002 -0.0072  0.1095 -0.1005
 9018TIP3   OH251248   4.330   2.339  11.432  0.0899 -0.0556 -0.4646
 9018TIP3    H151249   4.243   2.323  11.469 -0.7882 -0.6033 -2.6044
 9018TIP3    H251250   4.380   2.259  11.451 -0.4144 -0.4146 -0.6413
 9019TIP3   OH251251   6.677   0.820   9.919  0.7069 -0.4003 -0.4757
 9019TIP3    H151252   6.658   0.844  10.009  0.5305 -0.0127 -0.6155
 9019TIP3    H251253   6.759   0.865   9.898 -1.3253  3.1073 -1.8763
 9020TIP3   OH251254   1.720   5.089   8.768 -0.1614  0.3521  0.1388
 9020TIP3    H151255   1.701   5.167   8.715  1.0832  1.4460  1.2151
 9020TIP3    H251256   1.709   5.016   8.708 -0.5190  1.4172 -1.1459
 9021TIP3   OH251257   1.445   5.235  10.659  0.3310  0.5927  0.4377
 9021TIP3    H151258   1.485   5.286  10.588  1.4953  0.3058  0.8642
 9021TIP3    H251259   1.506   5.162  10.673  0.1052  0.6299  1.7077
 9022TIP3   OH251260   5.989   1.005  10.789  0.4424 -0.0444 -0.5324
 9022TIP3    H151261   6.014   1.097  10.798  0.9669 -0.3433  1.8753
 9022TIP3    H251262   5.896   1.007  10.766  0.4379  1.0892 -0.4666
 9023TIP3   OH251263   2.749   3.971  10.683 -0.4466 -0.5279 -0.1073
 9023TIP3    H151264   2.660   3.967  10.649 -0.8174  0.1526  0.7615
 9023TIP3    H251265   2.802   3.931  10.614 -0.6648  3.7347 -3.1285
 9024TIP3   OH251266   4.499   1.507   9.762  0.1552  0.3518 -0.3132
 9024TIP3    H151267   4.543   1.470   9.838  1.2183  1.1185 -0.5345
 9024TIP3    H251268   4.439   1.573   9.798 -0.3469 -0.2311 -0.0619
 9025TIP3   OH251269   3.883   4.348  11.300  0.2003  0.4444 -0.3496
 9025TIP3    H151270   3.928   4.264  11.297  2.0138  1.3656 -0.2523
 9025TIP3    H251271   3.793   4.326  11.323  0.3366 -1.5543 -1.5015
 9026TIP3   OH251272   4.482   0.861  11.868 -0.5986  0.2581 -0.3488
 9026TIP3    H151273   4.461   0.777  11.909  0.2790  0.4904  0.6110
 9026TIP3    H251274   4.428   0.925  11.914 -1.1980  0.2565 -1.0177
 9027TIP3   OH251275   4.747   1.343   9.306 -0.7184  0.6534  0.0599
 9027TIP3    H151276   4.669   1.396   9.287 -0.4656  0.7102 -0.8683
 9027TIP3    H251277   4.799   1.349   9.226  1.3302  2.4768  1.4073
 9028TIP3   OH251278   2.593   2.033  10.919 -0.1605 -0.3234 -0.5460
 9028TIP3    H151279   2.511   2.036  10.968  0.6712  0.3566  0.8700
 9028TIP3    H251280   2.622   1.942  10.925 -0.4603 -0.4112 -0.4484
 9029TIP3   OH251281   6.711   5.914  11.055  0.3198  0.8902 -0.1171
 9029TIP3    H151282   6.658   5.992  11.071  1.2445  1.3700  0.6838
 9029TIP3    H251283   6.748   5.892  11.140  0.2563 -0.3042 -0.3802
 9030TIP3   OH251284   3.349   2.258  10.800  0.0489  0.1865 -0.3752
 9030TIP3    H151285   3.403   2.180  10.797 -2.2933 -1.6310  1.0495
 9030TIP3    H251286   3.270   2.235  10.751 -0.7059  1.6435  0.0721
 9031TIP3   OH251287   1.240   4.161  10.271  0.7321 -0.0249  0.4181
 9031TIP3    H151288   1.178   4.226  10.238  0.1425 -0.4111  0.7388
 9031TIP3    H251289   1.277   4.121  10.192  0.0926 -0.2310  0.2121
 9032TIP3   OH251290   5.530   3.463  10.494 -0.0348  0.0263  0.7229
 9032TIP3    H151291   5.499   3.421  10.574  0.6157 -0.3880  0.7634
 9032TIP3    H251292   5.553   3.390  10.437  0.7811  0.3248  0.6670
 9033TIP3   OH251293   4.629   1.274  11.433  0.7159  0.0361  0.1298
 9033TIP3    H151294   4.564   1.344  11.428  1.0886  0.3489 -0.5664
 9033TIP3    H251295   4.627   1.246  11.524 -0.6061 -0.1690  0.0558
 9034TIP3   OH251296   3.302   3.932  10.948  0.1438 -0.7769  0.1433
 9034TIP3    H151297   3.370   3.944  10.882  0.9438  0.6562  1.1856
 9034TIP3    H251298   3.344   3.883  11.019 -0.5185 -1.6988 -0.0742
 9035TIP3   OH251299   1.568   0.584  12.539 -0.3484 -0.4995  0.5794
 9035TIP3    H151300   1.638   0.565  12.602 -1.2586  0.4968  1.9432
 9035TIP3    H251301   1.497   0.526  12.565 -0.2238 -1.1723 -0.5127
 9036TIP3   OH251302   6.406   1.338  11.217 -0.4827 -0.2910 -0.1470
 9036TIP3    H151303   6.474   1.345  11.149  1.6617 -1.8001  1.7160
 9036TIP3    H251304   6.385   1.429  11.239  1.0326  0.2171 -0.6848
 9037TIP3   OH251305   5.685   1.853  10.913 -0.0175 -0.2037 -0.3175
 9037TIP3    H151306   5.679   1.937  10.868  1.7582  1.2581  1.8863
 9037TIP3    H251307   5.618   1.857  10.981  0.2165 -0.4551 -0.0665
 9038TIP3   OH251308   4.871   3.897  11.890 -0.2258  0.1189 -0.0084
 9038TIP3    H151309   4.851   3.929  11.978  0.0468  0.1547  0.0427
 9038TIP3    H251310   4.942   3.834  11.903  0.2016  0.5393 -0.2607
 9039TIP3   OH251311   4.433   3.236  11.309 -0.1045  0.2070 -0.0185
 9039TIP3    H151312   4.440   3.269  11.219 -1.4689 -1.3667 -0.7596
 9039TIP3    H251313   4.517   3.194  11.325  0.1062  0.3871 -0.6060
 9040TIP3   OH251314   1.677   0.729  10.758 -0.1725 -0.2661 -0.3998
 9040TIP3    H151315   1.713   0.722  10.669  0.8500  0.4267 -0.0674
 9040TIP3    H251316   1.655   0.640  10.782  1.4003 -0.7517 -0.6305
 9041TIP3   OH251317   4.375   1.066   9.213 -0.0544  0.2769  0.2360
 9041TIP3    H151318   4.368   1.144   9.269 -0.8986  0.7133 -0.4377
 9041TIP3    H251319   4.400   0.996   9.272 -0.0939  0.8973  1.0095
 9042TIP3   OH251320   0.095   2.511   9.717 -0.2875  0.2120  0.3893
 9042TIP3    H151321   0.130   2.452   9.784 -1.6980 -0.7653  0.3166
 9042TIP3    H251322   0.124   2.472   9.634  0.3807  0.7039  0.3866
 9043TIP3   OH251323   2.505   4.945   8.888  0.1193  0.3930 -0.6949
 9043TIP3    H151324   2.536   4.855   8.880 -1.3075 -0.1505 -0.3555
 9043TIP3    H251325   2.461   4.948   8.972 -0.1394  1.3295 -0.8511
 9044TIP3   OH251326   0.901   3.570   8.978 -0.7559 -0.2848  0.3060
 9044TIP3    H151327   0.971   3.505   8.989  0.3962  0.8147 -0.2552
 9044TIP3    H251328   0.933   3.648   9.022 -1.3334  0.4413 -0.5158
 9045TIP3   OH251329   6.713   0.179  10.004 -0.0810  0.1284 -0.0144
 9045TIP3    H151330   6.734   0.086  10.011  0.6447  0.3909  2.3981
 9045TIP3    H251331   6.789   0.218   9.961 -0.2536 -0.3331 -0.7556
 9046TIP3   OH251332   2.843   2.776  11.681 -0.3955  0.1002 -0.4551
 9046TIP3    H151333   2.890   2.718  11.621  1.6610  0.1926  0.9591
 9046TIP3    H251334   2.762   2.730  11.701  0.1911 -1.2616 -1.1026
 9047TIP3   OH251335   3.535   5.424   9.055 -0.4786 -0.1454 -0.1764
 9047TIP3    H151336   3.526   5.349   8.996 -2.3968  1.5413 -2.1867
 9047TIP3    H251337   3.622   5.460   9.035 -1.2430  0.6167 -2.3253
 9048TIP3   OH251338   1.511   3.733  11.627 -0.2092 -0.1632 -0.5909
 9048TIP3    H151339   1.495   3.700  11.716  0.0480 -1.2399 -0.9323
 9048TIP3    H251340   1.444   3.690  11.573 -0.1853  0.2671 -0.9749
 9049TIP3   OH251341   0.038   4.147   8.692  0.5820  0.7573 -0.1172
 9049TIP3    H151342   0.006   4.235   8.669  0.7263  1.0643  0.7803
 9049TIP3    H251343   0.104   4.163   8.760 -1.8156 -0.1652  2.6494
 9050TIP3   OH251344   5.090   6.010  10.619  0.0590  0.1295  0.3617
 9050TIP3    H151345   5.060   5.971  10.702 -1.7853 -0.3454 -0.4799
 9050TIP3    H251346   5.161   5.953  10.590 -0.3091 -0.5937  0.8576
 9051TIP3   OH251347   2.550   1.768  10.409  0.4241  0.1618  0.5275
 9051TIP3    H151348   2.490   1.707  10.367 -0.0914  1.7140 -1.1604
 9051TIP3    H251349   2.612   1.713  10.455 -1.1389 -1.5545  0.7070
 9052TIP3   OH251350   2.977   4.417   9.497  0.5537  0.3897  0.4811
 9052TIP3    H151351   3.040   4.345   9.495  0.4236  0.2883 -0.8937
 9052TIP3    H251352   2.922   4.399   9.574  2.2875  0.5893  1.8241
 9053TIP3   OH251353   4.060   0.355   9.627 -0.8344 -0.5278  0.4777
 9053TIP3    H151354   4.135   0.391   9.579 -2.8561  1.8045 -1.1566
 9053TIP3    H251355   4.028   0.427   9.680 -2.1099 -1.3950  0.9310
 9054TIP3   OH251356   5.351   6.170   9.046  0.3628  0.7497  0.0314
 9054TIP3    H151357   5.422   6.176   9.109  0.1243  0.2043  0.3570
 9054TIP3    H251358   5.393   6.140   8.965  0.8358  2.4097 -0.3751
 9055TIP3   OH251359   4.799   1.174  10.927 -0.0702 -0.0099 -0.4025
 9055TIP3    H151360   4.720   1.173  10.982 -0.0735 -0.3335 -0.4113
 9055TIP3    H251361   4.785   1.104  10.864 -0.0683  0.3590 -0.8244
 9056TIP3   OH251362   1.781   2.278  10.926 -0.0117  0.3850  0.5433
 9056TIP3    H151363   1.819   2.282  11.014  1.5208  0.9190 -0.1041
 9056TIP3    H251364   1.769   2.185  10.909 -0.7314  0.2936  1.4674
 9057TIP3   OH251365   5.145   1.578  12.424 -0.7901  0.3897 -0.1559
 9057TIP3    H151366   5.100   1.657  12.396 -1.6432 -0.1767 -0.4245
 9057TIP3    H251367   5.079   1.509  12.417 -0.0365 -0.3618 -0.0236
 9058TIP3   OH251368   0.578   0.262  11.148 -0.4687 -0.0370  0.8361
 9058TIP3    H151369   0.596   0.192  11.209  1.1132 -2.1434 -1.8300
 9058TIP3    H251370   0.662   0.308  11.137 -0.2213 -0.8160 -0.9585
 9059TIP3   OH251371   3.521   1.961  11.530  0.2823 -0.3204 -0.5088
 9059TIP3    H151372   3.500   2.052  11.507 -1.1451 -1.1008 -2.5878
 9059TIP3    H251373   3.610   1.948  11.496 -0.0049 -0.0572 -1.3968
 9060TIP3   OH251374   1.998   2.242  11.626  0.4986 -0.3022  0.3984
 9060TIP3    H151375   1.942   2.320  11.624  0.5190 -0.2885  0.3474
 9060TIP3    H251376   1.948   2.175  11.580  0.2884 -0.4507  0.8360
 9061TIP3   OH251377   2.328   2.231   9.525  0.6764  0.3934  0.0639
 9061TIP3    H151378   2.410   2.279   9.535  0.4892  0.8237 -0.3924
 9061TIP3    H251379   2.319   2.218   9.430 -0.7686  2.1622 -0.1135
 9062TIP3   OH251380   3.240   1.650   9.245 -0.7696 -1.0552 -0.0985
 9062TIP3    H151381   3.160   1.611   9.210 -0.4394 -3.1547  1.3034
 9062TIP3    H251382   3.230   1.645   9.340 -0.1854  1.3574  0.1747
 9063TIP3   OH251383   4.596   0.023  10.325  0.8258  0.1636 -0.5536
 9063TIP3    H151384   4.656  -0.008  10.257  1.6540  0.4952  0.0199
 9063TIP3    H251385   4.582  -0.054  10.381 -0.6261 -0.3871 -1.6217
 9064TIP3   OH251386   1.893   6.240   9.531 -0.0359 -0.4471  0.4618
 9064TIP3    H151387   1.896   6.318   9.586 -2.3664 -0.9219  1.3547
 9064TIP3    H251388   1.827   6.260   9.465 -0.4165 -1.5352  0.4998
 9065TIP3   OH251389   5.959   2.642  10.700  0.0736  0.0537 -0.1888
 9065TIP3    H151390   5.909   2.578  10.649  0.4270 -0.5123  0.1645
 9065TIP3    H251391   6.030   2.591  10.738  0.1089  0.5784  0.4518
 9066TIP3   OH251392   1.362   4.411  10.020  0.0626 -0.6323  0.0942
 9066TIP3    H151393   1.363   4.413  10.116  0.2491  1.0980  0.0868
 9066TIP3    H251394   1.449   4.379   9.996  0.4000 -0.0448  0.5008
 9067TIP3   OH251395   4.445   1.265  10.455 -0.4403  0.3445 -0.4082
 9067TIP3    H151396   4.483   1.251  10.369  0.4332 -0.6654  0.1187
 9067TIP3    H251397   4.508   1.227  10.516 -1.3059  0.5300  0.6398
 9068TIP3   OH251398   1.413   3.444   9.147 -0.1922 -0.1254  0.5444
 9068TIP3    H151399   1.461   3.425   9.228  5.7184  1.2262 -2.0723
 9068TIP3    H251400   1.425   3.365   9.094  1.0913  0.9800 -0.9014
 9069TIP3   OH251401   6.126   6.490   9.210  0.5385  0.2005 -0.0496
 9069TIP3    H151402   6.119   6.582   9.237  1.4269  0.9270 -2.0763
 9069TIP3    H251403   6.038   6.468   9.178  0.5609  0.6567 -0.4343
 9070TIP3   OH251404   2.828   3.613   9.049 -0.2547  0.0072  0.0894
 9070TIP3    H151405   2.915   3.613   9.088 -0.4273 -1.5193  0.5189
 9070TIP3    H251406   2.816   3.703   9.018  2.1560 -0.1171 -1.5407
 9071TIP3   OH251407   2.239   5.275   8.810  0.2269 -0.4620  0.1776
 9071TIP3    H151408   2.177   5.338   8.846 -1.2587 -2.4682  1.3438
 9071TIP3    H251409   2.310   5.272   8.874  1.2956  1.3487 -0.8322
 9072TIP3   OH251410   1.568   6.636   9.425  0.2732  0.7591 -0.5127
 9072TIP3    H151411   1.542   6.718   9.466  1.5240  1.9279 -1.9700
 9072TIP3    H251412   1.643   6.659   9.370  0.6868 -1.3698 -0.9211
 9073TIP3   OH251413   3.938   4.376   9.851 -0.0716 -0.2371 -0.3313
 9073TIP3    H151414   3.903   4.439   9.914  0.0223 -0.6792  0.1702
 9073TIP3    H251415   4.032   4.390   9.852  0.0281 -0.9147  0.3685
 9074TIP3   OH251416   1.809   2.989   9.527 -0.0061 -0.0171 -0.6134
 9074TIP3    H151417   1.903   2.984   9.545 -0.0158 -0.2379 -0.6109
 9074TIP3    H251418   1.798   2.943   9.444 -0.4165 -2.1680  0.5516
 9075TIP3   OH251419   0.368   3.308   9.941 -0.3538 -0.5902 -0.1847
 9075TIP3    H151420   0.290   3.254   9.928 -1.3953  1.0630 -1.2568
 9075TIP3    H251421   0.430   3.278   9.875 -1.1817 -0.0792 -1.2299
 9076TIP3   OH251422   0.737   1.755  11.055 -0.3995 -0.4848  0.3033
 9076TIP3    H151423   0.713   1.779  11.144  0.0613 -1.6808  0.7772
 9076TIP3    H251424   0.789   1.675  11.065  3.0029  1.3945 -0.6949
 9077TIP3   OH251425   5.989   6.464  10.489  0.0455  0.0721  0.1513
 9077TIP3    H151426   5.895   6.459  10.470  0.3361 -1.7892 -1.0805
 9077TIP3    H251427   6.024   6.520  10.420 -0.1581  0.8831  0.6937
 9078TIP3   OH251428   3.932   1.605  11.299 -0.7976  0.3811 -0.3454
 9078TIP3    H151429   3.878   1.679  11.270 -2.0405 -0.6243 -0.7084
 9078TIP3    H251430   3.872   1.531  11.299  0.5218 -0.7160 -0.3847
 9079TIP3   OH251431   2.206   4.274  11.573  0.0898 -0.0779  0.0744
 9079TIP3    H151432   2.158   4.230  11.643  0.6634 -0.7505  0.0437
 9079TIP3    H251433   2.206   4.366  11.600  1.8232 -0.5366  1.8747
 9080TIP3   OH251434   2.254   4.157  11.837  0.0999 -0.1441 -0.2026
 9080TIP3    H151435   2.315   4.106  11.785  1.0818  0.6865  0.0912
 9080TIP3    H251436   2.291   4.155  11.926 -1.2322 -1.0636  0.3617
 9081TIP3   OH251437   5.849   0.602   8.781 -0.0312 -0.0025 -0.0686
 9081TIP3    H151438   5.854   0.678   8.723 -1.2443  1.4232  1.5756
 9081TIP3    H251439   5.760   0.570   8.770  0.2333 -0.7229 -0.1619
 9082TIP3   OH251440   5.961   1.278  10.465 -0.4725  0.3091  0.3647
 9082TIP3    H151441   6.008   1.325  10.396  0.4204  0.0815  0.8028
 9082TIP3    H251442   5.981   1.186  10.449 -1.5487  0.1308 -0.0020
 9083TIP3   OH251443   2.514   6.160  11.554  0.2819  0.1910 -0.4895
 9083TIP3    H151444   2.518   6.065  11.546 -1.2276 -0.1175  1.5821
 9083TIP3    H251445   2.448   6.176  11.622 -1.2053  2.8134 -2.3546
 9084TIP3   OH251446   4.839   3.346  11.400  0.0278 -0.2809 -0.0974
 9084TIP3    H151447   4.857   3.263  11.443  1.3791 -0.4468 -0.9344
 9084TIP3    H251448   4.798   3.400  11.468 -0.5082 -1.4800  0.5661
 9085TIP3   OH251449   2.265   0.831  10.770 -0.1747 -0.5323  0.0313
 9085TIP3    H151450   2.271   0.896  10.840 -1.2711  0.2259 -0.5501
 9085TIP3    H251451   2.187   0.780  10.790 -0.0956 -0.7716 -0.2566
 9086TIP3   OH251452   5.089   1.901  11.031 -0.1323  1.0062 -0.3137
 9086TIP3    H151453   5.090   1.830  11.095  0.9807  1.4404  0.1674
 9086TIP3    H251454   5.013   1.882  10.975 -0.2144 -0.2068  0.1902
 9087TIP3   OH251455   0.223   6.389   9.017 -0.5653  0.0371  0.2447
 9087TIP3    H151456   0.306   6.404   9.061 -0.8016  1.2492  0.3175
 9087TIP3    H251457   0.196   6.302   9.045  0.8703 -0.5520 -0.1117
 9088TIP3   OH251458   4.663   1.583  11.950 -0.7369 -0.1141  0.4783
 9088TIP3    H151459   4.709   1.504  11.977  0.7484  0.2652 -0.7869
 9088TIP3    H251460   4.588   1.588  12.008  0.2461 -1.3479  1.9378
 9089TIP3   OH251461   5.772   4.215  10.960 -0.3440  0.5022 -0.3712
 9089TIP3    H151462   5.699   4.209  10.898 -0.8781  2.3734  0.0172
 9089TIP3    H251463   5.787   4.309  10.970  3.6606  0.2935 -2.1825
 9090TIP3   OH251464   2.943   1.243  10.161  0.1117 -0.2168  0.0684
 9090TIP3    H151465   2.984   1.287  10.087 -1.2999  0.1442 -0.5224
 9090TIP3    H251466   2.895   1.312  10.207 -1.4527 -0.9425 -0.3944
 9091TIP3   OH251467   0.399   3.634  10.548 -0.4604 -0.7050 -0.4563
 9091TIP3    H151468   0.464   3.695  10.583  0.0310 -0.7380 -1.2729
 9091TIP3    H251469   0.402   3.649  10.453 -1.3596 -0.9940 -0.5390
 9092TIP3   OH251470   4.622   2.833  11.569  0.2924  0.3173 -0.3022
 9092TIP3    H151471   4.709   2.869  11.554  0.6291  0.1405  1.0781
 9092TIP3    H251472   4.637   2.751  11.617 -0.6387  0.6741  0.6599
 9093TIP3   OH251473   4.145   6.641   9.925 -0.2362 -0.0526  0.1277
 9093TIP3    H151474   4.219   6.595   9.886 -0.7333 -1.8605  1.1881
 9093TIP3    H251475   4.116   6.701   9.857  0.5930 -1.1499 -1.2614
 9094TIP3   OH251476   1.160   3.262  11.429 -0.3790 -0.2928  0.2653
 9094TIP3    H151477   1.139   3.343  11.476  1.0099  0.5322 -0.4800
 9094TIP3    H251478   1.154   3.194  11.496 -0.0942  0.6228  1.2616
 9095TIP3   OH251479   2.847   5.608  10.936  0.5226  0.2032 -0.2873
 9095TIP3    H151480   2.848   5.528  10.883 -2.1070 -0.3614  0.3568
 9095TIP3    H251481   2.883   5.581  11.020  1.2721  0.1746 -0.6055
 9096TIP3   OH251482   1.121   6.071   9.433  0.5081 -0.5701  0.6740
 9096TIP3    H151483   1.112   6.136   9.503  0.2026  0.4272 -0.2751
 9096TIP3    H251484   1.038   6.024   9.433  0.8764 -1.2703  1.6310
 9097TIP3   OH251485   6.668   1.831   9.491  0.2586  0.1939 -0.1034
 9097TIP3    H151486   6.762   1.820   9.483  0.5355  1.1076  1.5004
 9097TIP3    H251487   6.651   1.823   9.585 -0.7652  3.3602  0.0948
 9098TIP3   OH251488   1.097   4.209   9.649 -0.0349 -0.3910  0.1789
 9098TIP3    H151489   1.031   4.246   9.706  0.7553  1.6412 -0.1390
 9098TIP3    H251490   1.074   4.240   9.561  0.2098 -1.3171 -0.2238
 9099TIP3   OH251491   5.742   0.308   9.423 -0.7805  0.2112 -0.3572
 9099TIP3    H151492   5.741   0.393   9.467  2.1834 -0.3483  1.0727
 9099TIP3    H251493   5.798   0.321   9.346 -1.5925 -0.0989 -1.0122
 9100TIP3   OH251494   2.119   3.854  11.110 -0.0878 -0.0429 -1.1581
 9100TIP3    H151495   2.026   3.867  11.131 -0.2672 -2.3424 -0.2472
 9100TIP3    H251496   2.163   3.855  11.195  0.7224  0.8875 -1.5708
 9101TIP3   OH251497   4.750   6.195  11.499  0.1234  0.4484 -0.0433
 9101TIP3    H151498   4.729   6.141  11.576  0.7936  0.2396  0.0034
 9101TIP3    H251499   4.843   6.180  11.485  0.1161  0.8978 -0.5844
 9102TIP3   OH251500   1.240   6.402  11.197 -0.3581 -0.4652  0.0846
 9102TIP3    H151501   1.276   6.400  11.109 -0.1682  0.7736  0.1140
 9102TIP3    H251502   1.273   6.483  11.235 -1.2770 -0.4592  0.9289
 9103TIP3   OH251503   0.436   4.609   9.701 -0.3600 -0.0125  0.2084
 9103TIP3    H151504   0.478   4.644   9.780  2.6916  0.6522 -1.5616
 9103TIP3    H251505   0.476   4.657   9.629 -1.9802 -1.5858 -1.8623
 9104TIP3   OH251506   2.594   3.436  10.228  0.0908  0.3060  0.2855
 9104TIP3    H151507   2.654   3.384  10.282 -1.2614 -1.0942  0.5141
 9104TIP3    H251508   2.650   3.501  10.185  1.6556 -0.5344  0.9786
 9105TIP3   OH251509   3.899   0.067   9.159 -0.0495  0.8050  0.7582
 9105TIP3    H151510   3.881   0.087   9.251 -1.3793  2.0213  0.2704
 9105TIP3    H251511   3.956   0.138   9.129  0.3282  0.4471  0.6080
 9106TIP3   OH251512   1.424   2.589   8.828  0.0188 -0.3727  0.4606
 9106TIP3    H151513   1.447   2.596   8.735  2.0147 -1.7572  0.7951
 9106TIP3    H251514   1.343   2.538   8.828 -0.8736  0.9612 -0.5575
 9107TIP3   OH251515   1.917   4.491  10.766 -0.1865 -0.0520 -0.5995
 9107TIP3    H151516   1.918   4.524  10.856  1.2585  1.5459 -1.1316
 9107TIP3    H251517   1.978   4.417  10.766  2.0332  1.6592 -0.7563
 9108TIP3   OH251518   3.795   5.097  10.603 -0.4471  0.1769 -0.6416
 9108TIP3    H151519   3.790   5.004  10.579  2.3752  0.3312 -2.2693
 9108TIP3    H251520   3.727   5.139  10.550 -2.1816 -0.9634  0.5685
 9109TIP3   OH251521   5.220   0.499  11.049 -0.0840  0.2663  0.2237
 9109TIP3    H151522   5.222   0.589  11.016 -0.6829 -0.7245 -2.8564
 9109TIP3    H251523   5.298   0.458  11.011 -0.5156 -0.8481  0.4878
 9110TIP3   OH251524   4.952   1.467  11.762 -0.6323  0.4932 -0.1596
 9110TIP3    H151525   4.870   1.480  11.713 -0.9663 -0.3628  0.1552
 9110TIP3    H251526   4.974   1.554  11.795  0.5915  1.5295 -3.3038
 9111TIP3   OH251527   5.725   6.381   9.345  0.4314  0.0370  0.3191
 9111TIP3    H151528   5.718   6.476   9.355 -0.2391  0.2339 -1.6090
 9111TIP3    H251529   5.730   6.347   9.434 -0.3673  1.8115  1.0716
 9112TIP3   OH251530   3.760   6.149   8.841 -0.3536  0.6520  0.3338
 9112TIP3    H151531   3.836   6.135   8.897  1.2732  1.2315 -1.6083
 9112TIP3    H251532   3.791   6.209   8.773 -2.4545  0.6252 -0.7332
 9113TIP3   OH251533   0.301   2.717  11.359 -0.0427  0.2242 -0.6888
 9113TIP3    H151534   0.258   2.799  11.378  0.6795 -0.0806  2.8692
 9113TIP3    H251535   0.395   2.738  11.362  0.1982 -0.8776  1.7250
 9114TIP3   OH251536   3.317   5.091  11.511 -0.0816 -0.5634  0.0900
 9114TIP3    H151537   3.225   5.096  11.538 -0.5761 -1.6591 -1.2771
 9114TIP3    H251538   3.335   5.178  11.474 -0.9586 -0.7163 -0.7541
 9115TIP3   OH251539   4.560   4.810  12.702 -0.0718  0.2952  0.1660
 9115TIP3    H151540   4.470   4.830  12.727 -1.0158 -0.2576 -2.4504
 9115TIP3    H251541   4.563   4.714  12.700  0.9937  0.2693  1.4390
 9116TIP3   OH251542   6.039   4.985  10.345 -0.4590 -0.0073 -0.2914
 9116TIP3    H151543   6.051   5.062  10.401  3.1089  0.6251 -1.6304
 9116TIP3    H251544   6.022   5.021  10.258 -2.1027 -0.8843 -0.3727
 9117TIP3   OH251545   4.283   2.081  11.807  0.1581 -0.2819  0.5254
 9117TIP3    H151546   4.246   2.108  11.723  0.8948  0.1346  0.3258
 9117TIP3    H251547   4.270   2.157  11.864 -0.7394 -0.7233  0.9234
 9118TIP3   OH251548   6.302   2.632  10.522  0.8155 -0.0043 -0.2896
 9118TIP3    H151549   6.232   2.599  10.467 -1.0502 -0.9403  2.4058
 9118TIP3    H251550   6.356   2.555  10.541  0.2276 -0.1733  0.7915
 9119TIP3   OH251551   2.252   2.950  10.124  0.3241  0.3689 -0.3879
 9119TIP3    H151552   2.187   3.001  10.075 -0.6046 -0.7480 -0.3506
 9119TIP3    H251553   2.247   2.986  10.213 -0.5517  0.0376 -0.2882
 9120TIP3   OH251554   6.196   6.434  11.353 -0.0751 -0.6022 -0.2092
 9120TIP3    H151555   6.128   6.420  11.419 -0.5609  0.1922 -0.5216
 9120TIP3    H251556   6.278   6.435  11.401 -0.4312  0.0447  0.3948
 9121TIP3   OH251557   5.988   1.745   9.405  0.2829 -0.0961  0.4832
 9121TIP3    H151558   6.023   1.679   9.346 -2.9351 -3.2009  1.6580
 9121TIP3    H251559   5.927   1.795   9.352 -1.6534 -2.0519  0.7148
 9122TIP3   OH251560   3.200   5.589  11.107 -0.1832  0.6900  0.3531
 9122TIP3    H151561   3.110   5.567  11.130 -0.0457 -2.7857 -1.7350
 9122TIP3    H251562   3.242   5.505  11.093  2.6829  2.2564 -1.3534
 9123TIP3   OH251563   3.514   3.759  10.710  0.0828 -0.7174  0.9334
 9123TIP3    H151564   3.452   3.823  10.676  0.2423 -0.2207  1.5655
 9123TIP3    H251565   3.564   3.730  10.633  0.7772  0.7569  0.8016
 9124TIP3   OH251566   4.894   0.231  10.342 -0.0164  0.4570 -0.0240
 9124TIP3    H151567   4.888   0.280  10.260  0.0655 -1.2748 -1.0911
 9124TIP3    H251568   4.803   0.212  10.365 -0.0423  0.9850  0.3335
 9125TIP3   OH251569   3.803   5.204  11.684 -0.3711 -0.0957 -0.0980
 9125TIP3    H151570   3.833   5.116  11.708  2.1597  0.0496 -2.2799
 9125TIP3    H251571   3.825   5.258  11.760 -0.3464 -1.0193  0.5718
 9126TIP3   OH251572   4.153   2.382   9.311  0.0808  0.2032  0.5220
 9126TIP3    H151573   4.145   2.470   9.348  0.0058  0.3681  0.1136
 9126TIP3    H251574   4.201   2.394   9.230  0.0887 -0.1360  0.4751
 9127TIP3   OH251575   1.562   6.377  12.510 -0.2010  0.2281  0.4789
 9127TIP3    H151576   1.609   6.295  12.497  1.0381  1.0116 -0.1486
 9127TIP3    H251577   1.578   6.428  12.430 -1.3534  0.8972  0.6439
 9128TIP3   OH251578   2.267   6.400  10.764  0.2913  0.0606  0.1425
 9128TIP3    H151579   2.274   6.462  10.836  0.9326  0.5803 -0.3516
 9128TIP3    H251580   2.351   6.406  10.718 -0.4651  0.5158 -1.2495
 9129TIP3   OH251581   6.190   2.314  10.546  0.1395 -0.1714  0.3292
 9129TIP3    H151582   6.248   2.320  10.470  1.2586 -0.3853  1.1484
 9129TIP3    H251583   6.217   2.234  10.591 -1.1347 -0.5504  0.4638
 9130TIP3   OH251584   4.446   3.220  11.002 -0.0908 -0.0007 -0.0351
 9130TIP3    H151585   4.410   3.201  10.915 -1.1977  2.9392 -0.3615
 9130TIP3    H251586   4.440   3.138  11.050 -4.0479 -0.6133 -1.2368
 9131TIP3   OH251587   4.706   0.959  10.770  0.8349  0.0243  0.1521
 9131TIP3    H151588   4.668   0.904  10.838 -1.2507  1.3402  0.1666
 9131TIP3    H251589   4.771   0.904  10.727 -0.4664 -2.0993  0.7693
 9132TIP3   OH251590   5.025   5.037   9.015 -0.0340 -0.2998  0.2386
 9132TIP3    H151591   5.117   5.028   9.041 -0.0666  0.8055  0.7610
 9132TIP3    H251592   5.003   4.951   8.978  1.0618 -0.7400  0.5535
 9133TIP3   OH251593   0.154   3.535  10.219  0.0592  0.1770  0.3212
 9133TIP3    H151594   0.118   3.535  10.131  0.4284  1.8969  0.1336
 9133TIP3    H251595   0.114   3.611  10.261 -0.2122 -0.6866  1.6927
 9134TIP3   OH251596   3.230   1.140  10.357  0.3352  0.0621  0.5773
 9134TIP3    H151597   3.287   1.094  10.296 -0.3236 -0.0313  0.0213
 9134TIP3    H251598   3.221   1.228  10.320 -2.1909 -0.7404 -0.9576
 9135TIP3   OH251599   3.218   3.011  10.948 -0.8384  0.0209  0.0883
 9135TIP3    H151600   3.149   3.020  11.014 -0.6017  0.2659  0.3070
 9135TIP3    H251601   3.278   2.946  10.984 -1.3893 -0.8124 -0.4840
 9136TIP3   OH251602   1.558   5.842  11.372  0.0551  0.5880  0.6184
 9136TIP3    H151603   1.620   5.835  11.444 -0.3758 -1.2608  0.8427
 9136TIP3    H251604   1.588   5.918  11.322  3.6084 -1.2274 -0.3178
 9137TIP3   OH251605   4.468   4.894  11.146  0.1354 -0.7694 -0.0224
 9137TIP3    H151606   4.545   4.886  11.202  0.6140 -0.8683 -0.6807
 9137TIP3    H251607   4.504   4.917  11.060 -0.5982 -0.4590 -0.2457
 9138TIP3   OH251608   0.965   2.531  10.234  0.0568  0.0121 -0.8232
 9138TIP3    H151609   1.048   2.541  10.280 -0.5324  0.3601  0.1800
 9138TIP3    H251610   0.944   2.618  10.202 -0.9026  0.3498  0.6602
 9139TIP3   OH251611   3.986   4.600  10.723 -0.3779  0.9283  0.1601
 9139TIP3    H151612   4.045   4.622  10.651  0.4102 -0.1064  0.4676
 9139TIP3    H251613   3.917   4.547  10.681 -0.8036  1.6856 -0.1071
 9140TIP3   OH251614   2.143   2.416  10.542  0.2374  0.0811 -0.1584
 9140TIP3    H151615   2.066   2.384  10.589  1.0850 -0.1036  1.1326
 9140TIP3    H251616   2.109   2.441  10.456 -1.2057 -0.2878  0.2747
 9141TIP3   OH251617   2.823   4.763   9.858  0.8749 -0.1149  0.1309
 9141TIP3    H151618   2.808   4.817   9.780  3.0770  1.4458  0.6851
 9141TIP3    H251619   2.762   4.797   9.923 -1.2961 -1.7127 -0.9326
 9142TIP3   OH251620   3.227   6.209  11.248  0.2653 -0.7201 -0.3553
 9142TIP3    H151621   3.216   6.114  11.253  0.0095 -0.6141  3.1877
 9142TIP3    H251622   3.284   6.231  11.322  0.1726  1.9205 -0.9683
 9143TIP3   OH251623   0.421   2.478  11.998 -0.3192  0.0150  0.2903
 9143TIP3    H151624   0.509   2.502  12.026 -0.9468  2.0206  0.7038
 9143TIP3    H251625   0.366   2.496  12.073 -1.1551 -0.8098 -0.1070
 9144TIP3   OH251626   1.174   2.616  11.334  0.2816 -0.1041 -0.0566
 9144TIP3    H151627   1.118   2.578  11.266 -1.7000  2.1585  0.1879
 9144TIP3    H251628   1.262   2.616  11.295 -0.5089 -0.3552 -1.9640
 9145TIP3   OH251629   1.266   2.643  10.806  0.2363  0.6094 -0.2488
 9145TIP3    H151630   1.222   2.570  10.850  0.4575  0.7776  0.2650
 9145TIP3    H251631   1.198   2.711  10.800 -0.2050  0.0796 -1.4639
 9146TIP3   OH251632   2.908   0.709  11.444 -0.1370 -0.1397 -0.3143
 9146TIP3    H151633   2.947   0.748  11.522 -1.3864 -2.1949  1.4599
 9146TIP3    H251634   2.901   0.616  11.465 -1.9665 -0.5109 -2.2483
 9147TIP3   OH251635   0.584   0.843  10.238 -0.0573  0.8397 -0.4868
 9147TIP3    H151636   0.512   0.894  10.201 -2.2967 -1.2884  0.6210
 9147TIP3    H251637   0.584   0.865  10.331 -1.9361 -1.9241  0.2857
 9148TIP3   OH251638   2.043   2.566  11.659  0.6519  0.2788  0.4168
 9148TIP3    H151639   2.007   2.649  11.628  0.6898  0.1114 -0.0959
 9148TIP3    H251640   1.998   2.550  11.742 -0.1378  0.2973  0.0093
 9149TIP3   OH251641   0.111   1.716  10.761 -0.2228 -0.0235 -0.1265
 9149TIP3    H151642   0.056   1.666  10.822  0.3844  0.8580  1.1890
 9149TIP3    H251643   0.170   1.651  10.723 -1.2947 -0.7585 -0.5820
 9150TIP3   OH251644   0.257   6.542  11.678  0.1731 -0.3025 -0.2322
 9150TIP3    H151645   0.298   6.612  11.625  1.5965 -1.2643 -0.4671
 9150TIP3    H251646   0.252   6.579  11.766 -1.6092  1.0773 -0.8616
 9151TIP3   OH251647   1.239   2.719  12.115  0.0585 -0.2937  0.4330
 9151TIP3    H151648   1.268   2.630  12.135 -1.0073 -0.6687  0.3938
 9151TIP3    H251649   1.225   2.718  12.020  2.7976  0.7792 -0.0616
 9152TIP3   OH251650   0.279   3.032   8.936 -0.3008 -0.6104 -0.3101
 9152TIP3    H151651   0.320   3.118   8.927 -2.3535  0.5409  0.5189
 9152TIP3    H251652   0.199   3.039   8.884 -0.6909 -1.8725  0.1009
 9153TIP3   OH251653   0.583   6.422  10.798  0.0186  0.0101 -0.1285
 9153TIP3    H151654   0.660   6.379  10.761  0.8764  1.8845 -0.6366
 9153TIP3    H251655   0.550   6.360  10.862  1.1259 -1.4298 -0.8826
 9154TIP3   OH251656   2.774   5.057  12.066 -0.2181 -0.4613  0.0814
 9154TIP3    H151657   2.789   4.981  12.009 -1.1520 -0.0033 -0.7966
 9154TIP3    H251658   2.857   5.068  12.112  0.5199 -0.9502 -1.0658
 9155TIP3   OH251659   5.241   0.498   9.860 -0.3198 -0.1689 -0.3180
 9155TIP3    H151660   5.217   0.570   9.802 -0.1709 -0.5472 -0.8550
 9155TIP3    H251661   5.323   0.526   9.901 -1.2227  0.7661  0.8857
 9156TIP3   OH251662   4.461   5.420  10.338  0.6189 -0.1985 -0.1588
 9156TIP3    H151663   4.518   5.464  10.274 -1.8089  0.0486 -2.3247
 9156TIP3    H251664   4.410   5.491  10.378  0.2909 -0.5951  0.1301
 9157TIP3   OH251665   2.193   2.340  10.846  0.1902 -0.0239 -0.0452
 9157TIP3    H151666   2.227   2.293  10.921  1.6907  0.8813 -0.1027
 9157TIP3    H251667   2.247   2.309  10.772 -1.4587 -1.1324 -0.8424
 9158TIP3   OH251668   2.550   3.674  10.672 -0.0141  0.3761 -0.2426
 9158TIP3    H151669   2.465   3.634  10.690  0.5499 -0.0844  1.6388
 9158TIP3    H251670   2.612   3.626  10.727  1.5975  0.3396 -1.9513
 9159TIP3   OH251671   2.196   2.116  12.387 -0.3661  0.1352 -0.2957
 9159TIP3    H151672   2.183   2.211  12.393  0.0580  0.1147  1.7239
 9159TIP3    H251673   2.180   2.085  12.476 -2.3141 -1.9562 -1.2851
 9160TIP3   OH251674   0.336   5.308  11.521 -0.4315  0.0757  0.0538
 9160TIP3    H151675   0.298   5.271  11.601  0.9741  0.4762  0.9466
 9160TIP3    H251676   0.371   5.393  11.549  1.9617 -0.6778 -0.4645
 9161TIP3   OH251677   4.440   6.501   9.517 -0.2057  0.1469 -0.3697
 9161TIP3    H151678   4.349   6.472   9.522 -0.1228  0.1092  1.9128
 9161TIP3    H251679   4.439   6.590   9.551  0.6725 -0.0212  0.1251
 9162TIP3   OH251680   2.051   4.292   9.094  0.9048 -0.6234 -0.5364
 9162TIP3    H151681   2.116   4.297   9.164  1.6992 -1.7123 -1.1515
 9162TIP3    H251682   2.032   4.383   9.072 -1.2676 -0.1565  2.7372
 9163TIP3   OH251683   1.086   0.806  10.700 -1.0209  0.6807 -0.1069
 9163TIP3    H151684   1.038   0.811  10.783 -0.2369 -0.7969  0.4751
 9163TIP3    H251685   1.027   0.758  10.642 -0.2521 -1.3191  0.6715
 9164TIP3   OH251686   3.281   1.705   8.863  0.2537 -0.9315  0.1171
 9164TIP3    H151687   3.226   1.725   8.939  0.5603 -1.2406  0.4187
 9164TIP3    H251688   3.218   1.683   8.794 -0.0699  0.2975 -0.0045
 9165TIP3   OH251689   4.163   3.678  11.522 -0.0863  0.1539  0.0558
 9165TIP3    H151690   4.183   3.599  11.572 -0.2164  0.0402 -0.0755
 9165TIP3    H251691   4.220   3.673  11.445 -0.7010 -0.2317 -0.3845
 9166TIP3   OH251692   4.694   1.560  11.669  0.0503 -0.3084  0.4320
 9166TIP3    H151693   4.681   1.592  11.758  0.7952 -0.5943  0.6492
 9166TIP3    H251694   4.663   1.469  11.671 -0.4326 -0.1485  0.2620
 9167TIP3   OH251695   6.596   4.946   9.858 -0.0170 -0.0761  0.0849
 9167TIP3    H151696   6.618   4.967   9.949  1.5453  2.5748 -0.7832
 9167TIP3    H251697   6.550   5.023   9.825 -1.2105 -1.2654 -1.2302
 9168TIP3   OH251698   0.928   4.709  10.934  0.1230 -0.2471 -0.0120
 9168TIP3    H151699   0.925   4.629  10.986  1.9126 -0.2458  0.1779
 9168TIP3    H251700   0.871   4.691  10.859  1.4610 -2.2345 -0.6396
 9169TIP3   OH251701   5.393   1.243  10.927 -0.1051  0.3504 -0.1976
 9169TIP3    H151702   5.454   1.171  10.944  0.4208  0.4965 -1.3495
 9169TIP3    H251703   5.385   1.288  11.011  0.3277 -0.4660  0.2959
 9170TIP3   OH251704   1.299   0.666  10.818 -0.0039  0.6000 -0.2465
 9170TIP3    H151705   1.232   0.719  10.775 -0.4987  0.2197  0.0449
 9170TIP3    H251706   1.373   0.669  10.758 -0.6428  0.1678 -1.0916
 9171TIP3   OH251707   2.457   5.324   8.594 -0.2876  0.1979  0.1071
 9171TIP3    H151708   2.382   5.266   8.599  0.2043 -0.6124 -1.3620
 9171TIP3    H251709   2.428   5.398   8.541 -0.2655  0.2423  0.1563
 9172TIP3   OH251710   1.878   4.716   9.395  0.2915  0.2156  0.6877
 9172TIP3    H151711   1.957   4.664   9.381  0.7960  1.1029  0.2390
 9172TIP3    H251712   1.896   4.800   9.354 -0.1927  1.0625  2.1221
 9173TIP3   OH251713   0.287   2.022   9.189 -0.3135 -0.1395 -0.0269
 9173TIP3    H151714   0.349   1.999   9.258  0.0676 -0.9961 -0.6405
 9173TIP3    H251715   0.302   1.957   9.120 -2.5267 -0.9683  0.1809
 9174TIP3   OH251716   1.951   4.735  10.602 -0.3535  0.1315 -0.0316
 9174TIP3    H151717   1.905   4.788  10.668 -1.2780 -1.6759  0.8427
 9174TIP3    H251718   1.961   4.649  10.643 -1.0030 -1.0703 -2.2695
 9175TIP3   OH251719   0.176   1.232  10.030  0.4608  0.3601 -0.0053
 9175TIP3    H151720   0.255   1.270  10.067  1.1487 -0.0072 -1.0341
 9175TIP3    H251721   0.148   1.294   9.963  1.0940 -0.4803 -1.0891
 9176TIP3   OH251722   2.147   1.983  12.177 -0.0735  0.1294  0.5904
 9176TIP3    H151723   2.236   1.969  12.143  0.3139 -0.5703  1.8478
 9176TIP3    H251724   2.158   2.046  12.248 -0.8741  1.5062 -0.4476
 9177TIP3   OH251725   5.208   4.011  11.115  0.1126 -0.6025  0.4322
 9177TIP3    H151726   5.294   4.048  11.094  1.1093 -2.8018  0.3430
 9177TIP3    H251727   5.153   4.034  11.039  0.7678  0.3152  0.2117
 9178TIP3   OH251728   2.240   3.975   9.264  0.2157  0.2242 -0.0284
 9178TIP3    H151729   2.166   3.961   9.324  0.6795 -3.9308 -0.1421
 9178TIP3    H251730   2.317   3.974   9.320  0.5341 -1.9257 -0.4413
 9179TIP3   OH251731   3.754   0.699   9.630  0.3492 -0.0753 -0.4094
 9179TIP3    H151732   3.675   0.689   9.682 -0.1957  0.0414 -1.1909
 9179TIP3    H251733   3.823   0.720   9.693  0.2109 -2.2718  0.5597
 9180TIP3   OH251734   5.750   4.430   9.574 -0.2798  0.3041  0.3402
 9180TIP3    H151735   5.792   4.493   9.632 -2.4782  0.2641  2.0875
 9180TIP3    H251736   5.793   4.347   9.594  0.0691  0.5802  0.7544
 9181TIP3   OH251737   3.164   5.656  10.810 -0.0182 -0.2523  0.6713
 9181TIP3    H151738   3.071   5.651  10.831 -0.5094  0.6233 -1.1216
 9181TIP3    H251739   3.198   5.570  10.833 -1.2309 -0.5313  1.5068
 9182TIP3   OH251740   3.586   1.092  10.489  0.1219 -0.3124  0.2277
 9182TIP3    H151741   3.558   1.002  10.507 -1.6942  0.2859  0.5262
 9182TIP3    H251742   3.582   1.137  10.573  1.0030  0.0883  0.0775
 9183TIP3   OH251743   6.063   5.354   9.221  0.1155  0.6270  0.1622
 9183TIP3    H151744   6.101   5.367   9.308  1.4870 -0.0517 -0.3123
 9183TIP3    H251745   6.100   5.425   9.168  0.8998 -0.1410 -0.3467
 9184TIP3   OH251746   0.967   6.511  10.394  0.2449  0.5246 -0.1665
 9184TIP3    H151747   1.049   6.538  10.435 -0.5274  1.5998  0.7458
 9184TIP3    H251748   0.958   6.569  10.319  1.1188 -0.7195 -1.2829
 9185TIP3   OH251749   0.632   0.436  11.823  0.4665 -0.2502 -0.1791
 9185TIP3    H151750   0.547   0.395  11.807 -0.2844  0.1805  2.2908
 9185TIP3    H251751   0.676   0.376  11.884  0.9408  0.6652  0.4028
 9186TIP3   OH251752   3.952   3.034   9.485 -0.1049 -0.3374  0.2081
 9186TIP3    H151753   3.974   2.944   9.459  1.1292  0.5439 -2.1182
 9186TIP3    H251754   3.875   3.056   9.432 -1.5174 -0.5529  2.0767
 9187TIP3   OH251755   5.758   5.350  10.108 -0.3744 -0.0832 -0.6528
 9187TIP3    H151756   5.845   5.367  10.073  1.5915 -1.7619  2.8517
 9187TIP3    H251757   5.704   5.335  10.031  1.7576  3.3709 -3.0944
 9188TIP3   OH251758   0.067   3.762   8.993  0.9308  0.1677 -0.0893
 9188TIP3    H151759   0.025   3.719   9.068  4.2755 -1.4933  1.0266
 9188TIP3    H251760   0.068   3.855   9.017 -0.6297  0.0798  0.4940
 9189TIP3   OH251761   0.402   2.465  11.083  0.4010 -0.3642 -0.5983
 9189TIP3    H151762   0.371   2.532  11.022  1.3072 -0.4341 -1.1484
 9189TIP3    H251763   0.497   2.478  11.087  0.5476 -1.4235 -0.4773
 9190TIP3   OH251764   2.891   6.649  10.644  0.3970 -0.1292  0.0875
 9190TIP3    H151765   2.958   6.604  10.697 -0.6052 -1.3275  0.3887
 9190TIP3    H251766   2.859   6.581  10.585 -1.4989  0.0264  0.8717
 9191TIP3   OH251767   4.878   2.022   8.729 -0.0232  0.1737  0.3373
 9191TIP3    H151768   4.915   2.092   8.676 -0.2229  0.5695  0.7135
 9191TIP3    H251769   4.789   2.052   8.749 -0.6772 -0.8968 -0.8230
 9192TIP3   OH251770   3.922   3.089  10.161 -0.5344  0.4293 -0.7849
 9192TIP3    H151771   3.852   3.093  10.225  0.9962 -2.6796  1.3325
 9192TIP3    H251772   3.976   3.167  10.178 -0.5677  0.0549  1.2829
 9193TIP3   OH251773   3.782   4.634  11.716  0.0795  0.3232  0.1506
 9193TIP3    H151774   3.848   4.681  11.767 -0.8159 -0.1669  1.8509
 9193TIP3    H251775   3.820   4.626  11.629  1.1891  2.2458  0.3953
 9194TIP3   OH251776   1.844   4.897  11.839  0.1627 -0.4513 -0.1192
 9194TIP3    H151777   1.880   4.819  11.798 -2.5421 -1.7227 -0.2785
 9194TIP3    H251778   1.751   4.878  11.850 -0.3244  2.1903  1.1932
 9195TIP3   OH251779   0.690   0.691   9.837  0.3391  0.1304  0.3297
 9195TIP3    H151780   0.611   0.701   9.891 -0.2502 -0.4402 -0.3907
 9195TIP3    H251781   0.695   0.596   9.820  1.6105  0.0628  0.9865
 9196TIP3   OH251782   1.526   2.886  10.341  0.2073 -0.4610 -0.1140
 9196TIP3    H151783   1.501   2.806  10.295 -1.8467  0.0353  0.0510
 9196TIP3    H251784   1.451   2.944  10.330  1.4436  1.2702  0.2085
 9197TIP3   OH251785   1.164   2.256  10.493  0.0182  0.2256 -0.6409
 9197TIP3    H151786   1.092   2.270  10.555  0.0200  0.3181 -0.6608
 9197TIP3    H251787   1.222   2.194  10.537  0.0164  0.2870 -0.5529
 9198TIP3   OH251788   2.353   3.396  12.297 -0.0653  0.0756 -0.2159
 9198TIP3    H151789   2.354   3.302  12.281  1.3751  0.1609 -0.7103
 9198TIP3    H251790   2.264   3.413  12.329 -0.2971 -1.4685  0.0591
 9199TIP3   OH251791   1.746   6.608  10.666 -0.3343 -0.2578  0.1417
 9199TIP3    H151792   1.797   6.672  10.616 -1.4363 -0.9295 -1.9820
 9199TIP3    H251793   1.800   6.528  10.665 -0.0666 -0.0883  0.6278
 9200TIP3   OH251794   4.812   5.575   9.126  0.4781 -0.4117  0.5519
 9200TIP3    H151795   4.904   5.581   9.100  0.7345 -1.6034  1.0914
 9200TIP3    H251796   4.815   5.546   9.217 -0.4268  1.5223  1.2501
 9201TIP3   OH251797   3.112   6.142  10.962  0.5238  0.0871  0.1459
 9201TIP3    H151798   3.198   6.112  10.991  0.9435 -0.1539 -1.2955
 9201TIP3    H251799   3.064   6.062  10.940  0.5673  0.3010 -0.7573
 9202TIP3   OH251800   1.065   2.926  10.387 -0.3559  0.2303  0.0484
 9202TIP3    H151801   0.997   2.890  10.331 -0.6585  0.3154  0.3631
 9202TIP3    H251802   1.099   2.851  10.436 -0.3067  0.2098 -0.0159
 9203TIP3   OH251803   2.221   5.401  10.079  0.3280  0.0311  0.1347
 9203TIP3    H151804   2.165   5.439  10.012 -1.4619  0.0526  1.5489
 9203TIP3    H251805   2.214   5.306  10.066  0.6892  0.0535 -0.2372
 9204TIP3   OH251806   2.495   4.224   9.727  0.2681 -0.1201  0.9431
 9204TIP3    H151807   2.579   4.232   9.683 -0.0405 -0.3988  0.2852
 9204TIP3    H251808   2.462   4.138   9.701 -1.1006  0.7610 -0.4181
 9205TIP3   OH251809   4.478   2.776  10.183 -0.0941 -0.3688  0.2916
 9205TIP3    H151810   4.385   2.796  10.184 -0.1946 -0.7730 -0.3889
 9205TIP3    H251811   4.504   2.788  10.091  0.7795  0.8849  0.6810
 9206TIP3   OH251812   2.447   5.831  10.693 -0.3954 -0.1023  0.1873
 9206TIP3    H151813   2.498   5.809  10.771  2.9194  1.4031 -1.3901
 9206TIP3    H251814   2.415   5.746  10.661  1.9192 -1.2762  0.7888
 9207TIP3   OH251815   0.090   4.335  10.499 -0.0907 -0.0415 -0.4053
 9207TIP3    H151816   0.142   4.268  10.543  2.0743  0.5974 -1.7830
 9207TIP3    H251817   0.020   4.286  10.454 -0.6088 -0.9609  1.3330
 9208TIP3   OH251818   1.183   2.172  10.192 -0.5262  0.6257  0.3401
 9208TIP3    H151819   1.199   2.179  10.286  1.7450  0.5324  0.0132
 9208TIP3    H251820   1.204   2.081  10.171  0.4232  1.0146 -0.4748
 9209TIP3   OH251821   4.704   2.359   8.622 -0.1352  0.4680  0.5684
 9209TIP3    H151822   4.709   2.340   8.528 -0.3113  1.5035  0.3368
 9209TIP3    H251823   4.795   2.364   8.651 -0.0721 -0.9271  0.7051
 9210TIP3   OH251824   2.162   3.763  12.739 -0.0859  0.4452  0.6344
 9210TIP3    H151825   2.128   3.712  12.666 -0.6546 -0.0663  1.2544
 9210TIP3    H251826   2.183   3.699  12.807 -0.6063  1.0080  1.3402
 9211TIP3   OH251827   4.428   0.131  11.873  0.0187 -0.1630  0.7102
 9211TIP3    H151828   4.479   0.165  11.946 -0.9371  2.2069  0.3451
 9211TIP3    H251829   4.487   0.069  11.830  1.9415  1.1331  1.3405
 9212TIP3   OH251830   6.058   5.534  10.612  0.4442  0.1994 -0.4722
 9212TIP3    H151831   6.114   5.506  10.685 -0.0478 -0.1636 -0.2315
 9212TIP3    H251832   5.969   5.528  10.646  0.2139  0.1049 -1.0809
 9213TIP3   OH251833   4.912   2.218   9.643  0.1645 -0.1754  0.1833
 9213TIP3    H151834   4.986   2.278   9.635  0.8398 -0.9959  0.1805
 9213TIP3    H251835   4.911   2.170   9.560 -1.0012  0.5317 -0.2287
 9214TIP3   OH251836   3.882   5.025   9.303 -0.7403 -0.3753 -0.1936
 9214TIP3    H151837   3.890   4.930   9.295  0.2142 -0.2307 -1.1419
 9214TIP3    H251838   3.948   5.049   9.367 -0.5296 -0.2846 -0.4429
 9215TIP3   OH251839   5.877   1.737  11.094  0.2495  0.1492 -0.1609
 9215TIP3    H151840   5.880   1.642  11.108 -0.2865  0.1690  0.0784
 9215TIP3    H251841   5.811   1.749  11.026  2.2456  0.1163 -2.2473
 9216TIP3   OH251842   1.493   1.216  12.571 -0.6098 -0.3893  0.1748
 9216TIP3    H151843   1.547   1.284  12.529 -1.5005  0.1178 -0.1711
 9216TIP3    H251844   1.552   1.141  12.579 -0.5184 -0.7171 -2.5173
 9217TIP3   OH251845   4.082   1.104   9.126  0.2126  0.3050 -0.3052
 9217TIP3    H151846   4.171   1.131   9.107  0.2281  1.9897  1.7573
 9217TIP3    H251847   4.027   1.175   9.092  0.0270  1.5191  2.2875
 9218TIP3   OH251848   4.402   5.888  11.500 -0.3175  0.2633 -0.1623
 9218TIP3    H151849   4.414   5.835  11.421 -0.5537 -0.5357  0.3226
 9218TIP3    H251850   4.316   5.929  11.489 -0.5539 -0.2104 -0.1231
 9219TIP3   OH251851   2.217   5.657  10.532 -0.2242  0.3341  0.5943
 9219TIP3    H151852   2.261   5.602  10.467 -0.1304  0.4860  0.5281
 9219TIP3    H251853   2.130   5.672  10.496  0.3029  1.6254 -0.2103
 9220TIP3   OH251854   1.446   4.684  10.942  0.1618 -0.1524 -0.5087
 9220TIP3    H151855   1.401   4.601  10.960  1.9939 -0.6664  2.4121
 9220TIP3    H251856   1.393   4.750  10.986  0.8446 -0.4134  0.7623
 9221TIP3   OH251857   6.264   0.634  10.728 -0.0573 -0.0010  0.0591
 9221TIP3    H151858   6.248   0.681  10.810  0.0779  0.3230 -0.0998
 9221TIP3    H251859   6.179   0.631  10.685 -0.1896 -0.4296  0.3455
 9222TIP3   OH251860   3.834   5.875  10.861 -0.3028 -0.1942 -0.1438
 9222TIP3    H151861   3.824   5.841  10.772  2.0917 -1.6453  0.0662
 9222TIP3    H251862   3.926   5.863  10.882  0.0886  3.6131  1.2100
 9223TIP3   OH251863   2.175   5.880  11.192 -0.3365  0.4444  0.7876
 9223TIP3    H151864   2.214   5.827  11.122  1.5342  1.4193  1.0315
 9223TIP3    H251865   2.080   5.868  11.181 -0.1068  0.5385 -1.8966
 9224TIP3   OH251866   0.403   1.659  11.296 -0.1263 -0.0666  0.8321
 9224TIP3    H151867   0.429   1.725  11.232  0.2908 -0.3257  0.7326
 9224TIP3    H251868   0.314   1.684  11.321 -0.6011 -0.4086 -0.4292
 9225TIP3   OH251869   2.684   0.064  11.403 -0.2568 -0.0956 -0.2367
 9225TIP3    H151870   2.685   0.132  11.470 -0.2683 -1.2590  0.9800
 9225TIP3    H251871   2.759   0.008  11.423 -0.7652 -0.9515 -0.6591
 9226TIP3   OH251872   6.531   5.785  10.314 -0.1654  0.1526 -0.1624
 9226TIP3    H151873   6.500   5.702  10.351 -0.3112  0.5886  0.7180
 9226TIP3    H251874   6.467   5.849  10.344 -0.9029  0.3828 -2.0584
 9227TIP3   OH251875   5.611   0.190   9.094 -0.2635 -0.0724  0.1111
 9227TIP3    H151876   5.696   0.146   9.091  0.3606  0.9570  1.5256
 9227TIP3    H251877   5.569   0.158   9.174 -1.5905 -1.1844 -0.9869
 9228TIP3   OH251878   4.965   5.337  10.059 -0.1364 -0.5655 -0.5845
 9228TIP3    H151879   5.050   5.335  10.103  0.1374  0.7542 -1.0041
 9228TIP3    H251880   4.941   5.430  10.057 -2.7697 -1.0711  1.7032
 9229TIP3   OH251881   0.248   3.369  10.868 -0.3707 -0.4254  0.2761
 9229TIP3    H151882   0.214   3.456  10.888  1.0077 -0.0754  1.2641
 9229TIP3    H251883   0.286   3.377  10.781  0.0886  0.0768  0.5175
 9230TIP3   OH251884   2.939   6.239  11.716 -0.0604  0.2652 -0.1753
 9230TIP3    H151885   2.875   6.204  11.778 -0.0600  1.1754  0.3622
 9230TIP3    H251886   2.887   6.286  11.651 -0.0243 -0.2206 -0.5622
 9231TIP3   OH251887   5.264   2.821   9.094 -0.2269 -0.6634 -0.3590
 9231TIP3    H151888   5.339   2.799   9.038 -0.4490 -3.0494  0.1567
 9231TIP3    H251889   5.252   2.743   9.149 -2.9692 -0.2884 -0.2881
 9232TIP3   OH251890   6.420   1.577  10.079 -0.4516 -0.1969 -0.0970
 9232TIP3    H151891   6.505   1.549  10.114 -0.6117 -0.4088  0.1163
 9232TIP3    H251892   6.397   1.654  10.131 -1.4484 -1.4276  1.3627
 9233TIP3   OH251893   3.200   3.264   8.831  0.2876 -0.1988 -0.6923
 9233TIP3    H151894   3.176   3.309   8.750 -0.2415 -0.6402 -0.7886
 9233TIP3    H251895   3.217   3.334   8.894 -0.4626  0.1417 -0.8557
 9234TIP3   OH251896   2.859   5.011  11.130  0.4210 -0.4465  0.0651
 9234TIP3    H151897   2.861   4.921  11.163 -0.9607 -0.3818  0.3657
 9234TIP3    H251898   2.924   5.057  11.183  0.1481 -0.9603  0.8715
 9235TIP3   OH251899   6.232   3.798  12.252 -0.3447 -0.8868 -0.4100
 9235TIP3    H151900   6.213   3.713  12.290  2.2803 -1.0866  0.6186
 9235TIP3    H251901   6.299   3.781  12.186  1.3267  0.4701  0.8343
 9236TIP3   OH251902   4.181   4.911  10.187  0.2129 -0.2737  0.3503
 9236TIP3    H151903   4.252   4.945  10.132 -0.8271  3.3529  0.9938
 9236TIP3    H251904   4.216   4.914  10.276 -0.1809 -0.0435  0.5003
 9237TIP3   OH251905   3.216   1.252   9.612 -0.6205 -0.0743 -0.2861
 9237TIP3    H151906   3.182   1.329   9.566  1.0388  0.5650 -0.4854
 9237TIP3    H251907   3.295   1.227   9.564 -0.0215 -0.6891  0.9591
 9238TIP3   OH251908   1.467   5.018  11.952 -0.3258  0.2195  0.1797
 9238TIP3    H151909   1.392   5.030  12.010  0.9683  1.1679  1.7191
 9238TIP3    H251910   1.522   5.094  11.968  0.5430  0.0227 -1.6208
 9239TIP3   OH251911   5.631   3.001  11.279  0.1611  0.0903  0.3676
 9239TIP3    H151912   5.546   2.965  11.253  0.8035 -2.7822  1.8425
 9239TIP3    H251913   5.685   2.995  11.200 -0.6616  0.9479 -0.2849
 9240TIP3   OH251914   2.739   2.376  11.064 -0.2187  0.9018  0.1638
 9240TIP3    H151915   2.652   2.386  11.027 -0.8818  1.1570  1.7429
 9240TIP3    H251916   2.732   2.409  11.153  1.3651  0.4496  0.4933
 9241TIP3   OH251917   1.479   4.838   9.103  0.3766  0.6323 -0.3303
 9241TIP3    H151918   1.461   4.745   9.116 -5.3175  1.6200  1.5484
 9241TIP3    H251919   1.556   4.840   9.046  1.2661 -5.0983  0.0988
 9242TIP3   OH251920   4.469   3.812   9.833  0.0426  0.7544  0.1193
 9242TIP3    H151921   4.531   3.885   9.823  1.4091  0.0279  2.5693
 9242TIP3    H251922   4.515   3.749   9.889 -1.8429 -1.1450 -0.3421
 9243TIP3   OH251923   3.361   4.008  10.663  0.3618  0.4529 -0.2793
 9243TIP3    H151924   3.355   4.104  10.662 -0.3964  0.4180 -2.3855
 9243TIP3    H251925   3.273   3.978  10.643 -0.0272 -0.8106  2.7120
 9244TIP3   OH251926   1.233   4.136  10.704  0.6728 -0.4669 -0.6625
 9244TIP3    H151927   1.251   4.211  10.761  0.6120 -1.3277  0.5489
 9244TIP3    H251928   1.298   4.142  10.634  1.7589 -0.2054  0.3385
 9245TIP3   OH251929   0.870   6.362  11.752  0.2587  0.0314  0.5945
 9245TIP3    H151930   0.851   6.451  11.723  0.4096  0.8968  2.9231
 9245TIP3    H251931   0.830   6.306  11.686 -1.3608  1.8215 -0.0411
 9246TIP3   OH251932   4.328   0.497   9.612 -0.0885 -0.3240 -0.6504
 9246TIP3    H151933   4.336   0.586   9.647  1.2578 -0.5174 -0.3851
 9246TIP3    H251934   4.292   0.509   9.524  2.0433  0.6938 -1.4555
 9247TIP3   OH251935   6.355   6.707  10.301 -0.1794 -0.2391 -0.0114
 9247TIP3    H151936   6.415   6.765  10.254  0.8315 -1.5012 -0.3201
 9247TIP3    H251937   6.317   6.651  10.233 -1.2576  0.1201  0.2638
 9248TIP3   OH251938   0.615   6.055   9.067 -0.0169 -0.0266  0.2850
 9248TIP3    H151939   0.649   6.081   8.981 -1.9130 -1.9975 -1.1703
 9248TIP3    H251940   0.667   5.979   9.091  0.8516  0.8178  1.1927
 9249TIP3   OH251941   2.618   0.112  12.333  0.0969 -0.2509  0.2991
 9249TIP3    H151942   2.603   0.175  12.404  0.7393 -0.2866  0.4728
 9249TIP3    H251943   2.532   0.102  12.292 -0.0551  0.6157  0.3703
 9250TIP3   OH251944   4.140   1.026  11.781  0.1820  0.4930  0.4968
 9250TIP3    H151945   4.140   0.938  11.743 -1.0390  0.5651  0.2860
 9250TIP3    H251946   4.198   1.077  11.723 -1.5741  0.5816 -1.2876
 9251TIP3   OH251947   3.732   4.850  10.479  0.1629  0.2191  0.2480
 9251TIP3    H151948   3.727   4.879  10.388 -0.3572 -1.9192 -0.4512
 9251TIP3    H251949   3.823   4.823  10.491  0.2732  0.6573  0.4344
 9252TIP3   OH251950   3.761   3.194  10.371 -0.0208 -0.1947 -0.3368
 9252TIP3    H151951   3.741   3.136  10.445  0.0177 -0.8287 -0.8186
 9252TIP3    H251952   3.852   3.222  10.387 -0.0739 -0.1745 -0.0519
 9253TIP3   OH251953   0.796   5.944  10.367 -0.2822  0.1714  1.3928
 9253TIP3    H151954   0.822   5.934  10.276 -1.6206  0.7797  0.9138
 9253TIP3    H251955   0.832   6.028  10.394 -2.3399  1.4275  0.4652
 9254TIP3   OH251956   2.748   5.319   9.866 -0.0586  0.4320 -0.2694
 9254TIP3    H151957   2.794   5.266   9.801  0.8063  0.1362  0.5481
 9254TIP3    H251958   2.814   5.383   9.895 -0.6383  0.9921 -0.1772
 9255TIP3   OH251959   5.241   2.390  10.030 -0.6679  0.5817 -0.3316
 9255TIP3    H151960   5.327   2.388   9.990 -0.2698 -2.2121  0.4057
 9255TIP3    H251961   5.187   2.443   9.971  0.9624  0.3591 -2.0929
 9256TIP3   OH251962   2.958   0.453  11.510 -0.2968 -0.2409  0.3005
 9256TIP3    H151963   2.934   0.379  11.566  0.8795 -1.3243 -0.5678
 9256TIP3    H251964   2.916   0.435  11.426 -1.8637  1.2605  0.7118
 9257TIP3   OH251965   5.629   3.723  10.530  0.3677  0.1321 -0.2667
 9257TIP3    H151966   5.591   3.636  10.521 -1.2643  0.7334  0.4359
 9257TIP3    H251967   5.672   3.722  10.615  0.0820  0.0946 -0.1206
 9258TIP3   OH251968   6.170   3.970   8.852  0.3741 -0.4253  0.1413
 9258TIP3    H151969   6.129   4.043   8.897  0.9161  0.0621 -0.1398
 9258TIP3    H251970   6.097   3.919   8.817 -0.0007  0.1067  0.1457
 9259TIP3   OH251971   6.533   2.237   8.557  0.1749  0.5475 -0.3303
 9259TIP3    H151972   6.585   2.159   8.575  1.8410  1.9510  1.3134
 9259TIP3    H251973   6.583   2.309   8.595 -2.4329  2.1527  0.3480
 9260TIP3   OH251974   1.255   3.431  10.527  0.6131  0.5113  0.2877
 9260TIP3    H151975   1.169   3.390  10.537 -0.2407  2.1713  0.1151
 9260TIP3    H251976   1.237   3.525  10.533  2.3080  0.9198 -0.5699
 9261TIP3   OH251977   5.481   2.019  12.667 -0.8886  0.2675 -0.3853
 9261TIP3    H151978   5.571   2.035  12.639 -0.0957 -0.5862  1.4771
 9261TIP3    H251979   5.483   1.932  12.706 -2.3855  0.4676  0.2211
 9262TIP3   OH251980   2.701   1.939  12.149  0.6872 -0.7386  0.4778
 9262TIP3    H151981   2.707   1.878  12.223  1.4973  0.4371  1.4166
 9262TIP3    H251982   2.678   2.023  12.189  0.0000 -0.3088 -0.7489
 9263TIP3   OH251983   0.198   0.438  11.731 -0.2035 -0.6274  0.7359
 9263TIP3    H151984   0.281   0.396  11.755 -0.5991 -1.0886  1.3010
 9263TIP3    H251985   0.166   0.386  11.657  0.7452  0.4676 -0.5077
 9264TIP3   OH251986   0.578   2.771  11.124 -0.0876 -0.1154  0.2938
 9264TIP3    H151987   0.588   2.785  11.030 -2.0961  0.5441  0.1130
 9264TIP3    H251988   0.582   2.676  11.134 -1.0965 -0.2866 -0.6665
 9265TIP3   OH251989   4.286   1.926   9.392 -0.1085  0.4195 -0.0941
 9265TIP3    H151990   4.355   1.961   9.337  0.0701  3.9993  2.0674
 9265TIP3    H251991   4.205   1.955   9.351 -0.0256  1.8196  0.6798
 9266TIP3   OH251992   1.663   5.676  10.350  0.9236  0.4954 -0.0018
 9266TIP3    H151993   1.740   5.624  10.330  0.0370 -0.9588  0.2423
 9266TIP3    H251994   1.602   5.658  10.278 -0.7135 -1.5843  1.7625
 9267TIP3   OH251995   6.030   5.228  10.463  0.4457 -0.2022  0.0022
 9267TIP3    H151996   5.961   5.262  10.520 -0.7177 -1.6583 -0.4972
 9267TIP3    H251997   6.017   5.273  10.379  1.4020  1.0246  0.4713
 9268TIP3   OH251998   5.442   6.715  10.260  0.6156 -0.2562 -0.3445
 9268TIP3    H151999   5.383   6.732  10.333  1.1147 -1.7714  0.4497
 9268TIP3    H252000   5.507   6.785  10.265  1.3981 -1.0679  1.4903
 9269TIP3   OH252001   3.066   4.636   9.153 -0.0449  0.0280 -0.1502
 9269TIP3    H152002   3.109   4.691   9.088 -1.1850  0.2341 -0.7478
 9269TIP3    H252003   3.100   4.668   9.237 -0.2024  1.2213 -0.5182
 9270TIP3   OH252004   6.608   3.898  10.892  0.0304 -0.1162  0.4829
 9270TIP3    H152005   6.517   3.912  10.866  0.3928  0.5031 -0.5122
 9270TIP3    H252006   6.611   3.924  10.985 -0.5748  0.9049  0.2263
 9271TIP3   OH252007   2.479   3.683   8.949 -0.1940 -0.4988 -0.1801
 9271TIP3    H152008   2.561   3.731   8.955 -1.7622  2.1825  2.7156
 9271TIP3    H252009   2.422   3.739   8.896 -0.6734 -1.5578 -0.8200
 9272TIP3   OH252010   3.602   1.373  10.412  0.1529 -0.0485 -0.5292
 9272TIP3    H152011   3.580   1.371  10.319 -3.1292 -1.7542  0.1460
 9272TIP3    H252012   3.632   1.284  10.432  1.3649  0.4515 -0.0075
 9273TIP3   OH252013   1.362   0.457   9.534 -0.3026  0.2276 -0.7375
 9273TIP3    H152014   1.286   0.426   9.484 -0.1698 -1.3281 -0.0374
 9273TIP3    H252015   1.351   0.419   9.620  1.0241  0.3980 -0.4727
 9274TIP3   OH252016   3.943   0.058  11.054 -0.3668  0.1210  0.2835
 9274TIP3    H152017   3.886   0.006  10.999  0.2884 -1.1071  0.7337
 9274TIP3    H252018   3.887   0.128  11.088 -1.9810 -1.7850  1.7536
 9275TIP3   OH252019   0.180   5.883  11.259  0.0978  0.3653  0.5147
 9275TIP3    H152020   0.143   5.801  11.293  0.2051 -0.2704 -0.8611
 9275TIP3    H252021   0.234   5.916  11.331  0.1056 -0.8058  1.0664
 9276TIP3   OH252022   4.110   0.079   9.681 -0.3165  0.0974  0.6731
 9276TIP3    H152023   4.071   0.166   9.688 -1.1549  0.0095 -1.8151
 9276TIP3    H252024   4.037   0.023   9.654  0.7113 -0.8798 -0.1650
 9277TIP3   OH252025   0.318   3.385  10.592  0.1639 -0.1845  0.6688
 9277TIP3    H152026   0.332   3.476  10.567 -0.5439 -0.3409 -0.3805
 9277TIP3    H252027   0.357   3.335  10.520 -3.9194 -0.6510 -1.5479
 9278TIP3   OH252028   5.863   0.522   9.135 -0.4009  0.5029  0.5686
 9278TIP3    H152029   5.873   0.602   9.084  0.2261 -0.1561 -0.3836
 9278TIP3    H252030   5.789   0.477   9.094  0.7937 -0.5556 -0.5478
 9279TIP3   OH252031   2.762   0.844  10.330  0.4421  0.2973 -0.3860
 9279TIP3    H152032   2.836   0.896  10.361  1.0269 -0.4478 -0.5042
 9279TIP3    H252033   2.769   0.848  10.235  0.4220  0.1056 -0.3957
 9280TIP3   OH252034   5.517   1.811  11.825 -0.1543  0.4556 -0.1628
 9280TIP3    H152035   5.573   1.746  11.783 -1.8143 -1.0921 -0.0458
 9280TIP3    H252036   5.508   1.781  11.915 -0.9746  0.8275 -0.1123
 9281TIP3   OH252037   6.620   4.995   9.134 -0.2227 -0.4683 -0.1740
 9281TIP3    H152038   6.563   4.947   9.194  1.6583 -2.3564  0.2402
 9281TIP3    H252039   6.561   5.053   9.086 -2.5212 -2.4920  0.0097
 9282TIP3   OH252040   2.599   6.394  11.422 -0.1363 -0.1741  0.2302
 9282TIP3    H152041   2.563   6.322  11.473 -0.2223  1.1128  2.0554
 9282TIP3    H252042   2.526   6.455  11.413  0.1497  0.0520 -0.6584
 9283TIP3   OH252043   2.176   3.615  11.909 -0.1487  0.3594 -0.1578
 9283TIP3    H152044   2.178   3.668  11.830  0.1582 -0.2947 -0.5998
 9283TIP3    H252045   2.196   3.676  11.980 -2.3736  1.3618 -0.3127
 9284TIP3   OH252046   1.469   0.203  11.031  0.2291 -0.0758  0.1500
 9284TIP3    H152047   1.527   0.240  10.964  0.6810 -0.3329  0.3977
 9284TIP3    H252048   1.382   0.205  10.991  0.6064 -0.9226 -0.7343
 9285TIP3   OH252049   2.734   6.466  11.056 -0.0718 -0.1203 -0.1092
 9285TIP3    H152050   2.663   6.519  11.091 -1.7361 -0.6930 -2.4318
 9285TIP3    H252051   2.811   6.524  11.059 -0.8699  0.9205  1.3256
 9286TIP3   OH252052   6.020   1.575  12.456  0.1857  0.6086  0.0461
 9286TIP3    H152053   6.017   1.542  12.545 -0.9056 -1.3640 -0.6510
 9286TIP3    H252054   5.961   1.650  12.456 -0.5153  0.0784  0.7999
 9287TIP3   OH252055   3.834   4.171  10.699  0.3673  0.0966  0.6010
 9287TIP3    H152056   3.874   4.094  10.739  1.4728  0.1994 -0.2648
 9287TIP3    H252057   3.892   4.194  10.627 -1.1255  0.4213 -0.5438
 9288TIP3   OH252058   1.922   3.047  10.373  0.1966  0.2953  0.3003
 9288TIP3    H152059   1.856   3.006  10.318  1.2889 -0.9621 -0.1274
 9288TIP3    H252060   1.879   3.124  10.410 -1.7484 -0.9239  0.6729
 9289TIP3   OH252061   4.950   2.916  11.731  0.4626  0.4031 -0.5382
 9289TIP3    H152062   4.908   2.993  11.769 -2.3578 -0.8340 -0.8833
 9289TIP3    H252063   5.038   2.915  11.769 -0.3567  2.2269  1.6201
 9290TIP3   OH252064   6.108   5.878  12.032 -0.5626 -0.0489  0.1108
 9290TIP3    H152065   6.179   5.843  11.978  1.9153  1.7103  2.0154
 9290TIP3    H252066   6.038   5.813  12.026  0.6288 -1.2084 -2.9604
 9291TIP3   OH252067   2.749   2.231   9.688 -0.2885  0.7174  0.4699
 9291TIP3    H152068   2.775   2.151   9.734 -1.6562  0.5341  0.9819
 9291TIP3    H252069   2.813   2.296   9.715  0.2158  0.0614  0.8921
 9292TIP3   OH252070   5.880   4.789  10.119 -0.4669  0.0951 -0.2884
 9292TIP3    H152071   5.943   4.862  10.123 -0.1999 -0.1552  0.1710
 9292TIP3    H252072   5.893   4.743  10.202 -1.2596  0.0404 -0.1931
 9293TIP3   OH252073   3.502   4.923  11.405 -0.0017 -0.2468 -0.0182
 9293TIP3    H152074   3.579   4.980  11.407 -0.0495 -0.1732 -0.2270
 9293TIP3    H252075   3.434   4.974  11.450  0.4441 -0.8804  1.4468
 9294TIP3   OH252076   6.028   1.414  11.536  0.2523  0.2461 -0.0140
 9294TIP3    H152077   6.081   1.437  11.612  2.5494 -1.8906 -0.8344
 9294TIP3    H252078   6.002   1.498  11.498 -0.6454  1.3695  2.8339
 9295TIP3   OH252079   2.787   0.228  11.197 -0.1941 -0.4621  0.9316
 9295TIP3    H152080   2.759   0.164  11.262  1.2894 -0.5340  1.5328
 9295TIP3    H252081   2.736   0.206  11.118 -2.2494 -0.1760  2.1042
 9296TIP3   OH252082   3.203   2.532  10.953 -0.3301 -0.2146  0.0501
 9296TIP3    H152083   3.214   2.439  10.971 -1.3815 -0.1371  1.2060
 9296TIP3    H252084   3.120   2.538  10.907  0.2989  0.0500 -1.0890
 9297TIP3   OH252085   5.624   1.436   9.805  0.3922 -0.8282  0.0745
 9297TIP3    H152086   5.699   1.395   9.763  2.9969  1.0551  2.4868
 9297TIP3    H252087   5.639   1.530   9.794 -0.6392 -0.3655  2.1122
 9298TIP3   OH252088   4.293   1.371  10.130 -0.2338 -0.0931  0.2966
 9298TIP3    H152089   4.235   1.393  10.058  0.0020 -1.9793 -0.5122
 9298TIP3    H252090   4.380   1.367  10.091  0.2445  0.9872  1.1556
 9299TIP3   OH252091   3.866   5.523   9.553 -0.8935  0.1145  0.4133
 9299TIP3    H152092   3.872   5.429   9.565  1.6168  0.2710  1.0613
 9299TIP3    H252093   3.801   5.535   9.483  0.6878 -2.2989 -1.6445
 9300TIP3   OH252094   2.794   2.988  12.446  0.4426 -0.1927  0.2123
 9300TIP3    H152095   2.773   3.014  12.536 -0.2786  0.3766 -0.1142
 9300TIP3    H252096   2.890   2.995  12.441  0.4795 -0.1147  0.8969
 9301TIP3   OH252097   1.428   5.387  10.902 -0.6037 -0.1177 -0.0808
 9301TIP3    H152098   1.356   5.324  10.895 -0.9878  0.3318 -0.2691
 9301TIP3    H252099   1.479   5.373  10.822 -0.7621 -0.1093 -0.1864
 9302TIP3   OH252100   5.210   6.289   9.257 -0.5761 -0.2452 -0.0077
 9302TIP3    H152101   5.247   6.374   9.282 -0.9732 -0.4142  1.2077
 9302TIP3    H252102   5.239   6.276   9.166  2.1094 -0.2698  0.7656
 9303TIP3   OH252103   3.469   1.746  10.938  0.3218 -0.0831  0.4838
 9303TIP3    H152104   3.405   1.812  10.966  0.1784 -0.0284  0.0312
 9303TIP3    H252105   3.518   1.725  11.018  0.7165  0.9508  0.5274
 9304TIP3   OH252106   1.308   4.958   9.353  0.1477  0.0074  0.2687
 9304TIP3    H152107   1.252   4.919   9.286 -0.2583 -1.0890  1.2014
 9304TIP3    H252108   1.393   4.917   9.341 -0.4962 -1.9676  1.8013
 9305TIP3   OH252109   5.172   5.243  11.084  0.5242  0.2035  0.1258
 9305TIP3    H152110   5.154   5.192  11.005  0.5327  0.5189 -0.0817
 9305TIP3    H252111   5.090   5.290  11.102  0.4329 -0.0738  0.4633
 9306TIP3   OH252112   5.065   6.561  11.298  0.0764  0.4659  0.9479
 9306TIP3    H152113   5.016   6.634  11.338 -1.8433 -0.0637 -0.3069
 9306TIP3    H252114   5.034   6.559  11.208  0.8787 -1.2701  0.6891
 9307TIP3   OH252115   2.703   5.250   9.438 -0.0450  0.1718  0.7709
 9307TIP3    H152116   2.625   5.249   9.494 -0.2882 -2.5236  0.5522
 9307TIP3    H252117   2.677   5.302   9.362 -1.9659 -1.2713  0.3536
 9308TIP3   OH252118   3.055   1.329  10.672  0.0839 -0.3777  0.3014
 9308TIP3    H152119   3.050   1.323  10.767 -0.1756 -0.6063  0.2716
 9308TIP3    H252120   3.080   1.241  10.643  0.1113 -0.3217  0.1523
 9309TIP3   OH252121   2.590   5.555   9.441  0.2465  0.2337  0.3132
 9309TIP3    H152122   2.507   5.509   9.431  0.3267  0.5741 -2.9564
 9309TIP3    H252123   2.566   5.642   9.473 -0.5535  0.0571  0.2120
 9310TIP3   OH252124   4.059   3.606   8.868 -0.1626 -0.0684  0.3442
 9310TIP3    H152125   4.053   3.533   8.929 -0.0765 -1.5973 -1.3805
 9310TIP3    H252126   3.971   3.611   8.829  0.8619 -2.1955 -2.6515
 9311TIP3   OH252127   3.285   1.819   9.702 -0.4423  0.0146  0.3976
 9311TIP3    H152128   3.289   1.904   9.657  1.6177  0.0469  0.5483
 9311TIP3    H252129   3.329   1.834   9.786  1.9951 -1.6829 -0.4734
 9312TIP3   OH252130   1.533   5.492  11.508 -0.3857  0.1671  0.0349
 9312TIP3    H152131   1.537   5.498  11.604 -3.1040 -0.6218  0.2854
 9312TIP3    H252132   1.487   5.409  11.492  2.0427 -0.8776 -2.0604
 9313TIP3   OH252133   1.364   5.331  11.766  0.1402 -0.1574 -0.0808
 9313TIP3    H152134   1.389   5.357  11.854 -0.4950 -0.7062  0.2684
 9313TIP3    H252135   1.294   5.391  11.742  0.5995  0.2685 -0.3907
 9314TIP3   OH252136   1.712   3.977   8.852  0.0984 -0.4500 -0.3867
 9314TIP3    H152137   1.759   3.897   8.875  0.8425  0.2266  0.5102
 9314TIP3    H252138   1.774   4.047   8.869 -0.8332  0.3826 -0.3209
 9315TIP3   OH252139   3.770   1.358  11.319  0.0741 -0.3371  0.3750
 9315TIP3    H152140   3.779   1.272  11.279 -0.5089  0.1927 -0.9551
 9315TIP3    H252141   3.718   1.342  11.398 -1.1954 -1.0332 -0.5646
 9316TIP3   OH252142   4.616   3.901  12.938 -0.0437 -0.0449  0.7504
 9316TIP3    H152143   4.615   3.889  12.843 -1.8385  1.7695  0.4541
 9316TIP3    H252144   4.644   3.992  12.950 -2.6559  0.7243  1.7036
 9317TIP3   OH252145   5.481   6.609  10.018 -0.4509 -0.1148  0.4677
 9317TIP3    H152146   5.430   6.625   9.938 -1.8822 -0.4080  1.2845
 9317TIP3    H252147   5.429   6.648  10.088  1.6314  1.6968  1.1118
 9318TIP3   OH252148   0.473   6.690  10.956 -0.1866  0.3575  0.0452
 9318TIP3    H152149   0.516   6.611  10.988 -0.5976 -0.1694 -0.6846
 9318TIP3    H252150   0.381   6.666  10.945 -0.3667  1.0096  0.0726
 9319TIP3   OH252151   1.693   2.670   9.992 -0.1980  0.4803 -0.7556
 9319TIP3    H152152   1.739   2.588   9.973 -1.5642 -0.0640 -1.9146
 9319TIP3    H252153   1.744   2.737   9.947  0.5863  0.1820 -0.3183
 9320TIP3   OH252154   1.162   2.403  10.006 -0.3704 -0.0323  0.4127
 9320TIP3    H152155   1.153   2.323  10.058  1.9710 -0.9540 -0.4441
 9320TIP3    H252156   1.257   2.417  10.000 -0.4478  0.0205 -3.4789
 9321TIP3   OH252157   1.679   0.349   9.945  0.1284  0.1970 -0.2878
 9321TIP3    H152158   1.667   0.393  10.030  0.4765 -0.2119 -0.0238
 9321TIP3    H252159   1.773   0.344   9.933  0.0849  1.7687 -1.5130
 9322TIP3   OH252160   5.323   6.532  10.930 -0.1840 -0.6998 -0.7108
 9322TIP3    H152161   5.414   6.504  10.938  0.2767  0.4623 -1.5699
 9322TIP3    H252162   5.303   6.526  10.837 -1.5006 -2.3844 -0.3604
 9323TIP3   OH252163   5.792   4.128   9.673  0.3275 -0.5396 -0.2197
 9323TIP3    H152164   5.774   4.042   9.712  0.8082  0.1160  1.5142
 9323TIP3    H252165   5.785   4.113   9.578 -0.9273 -2.1750  0.0891
 9324TIP3   OH252166   5.457   4.462  10.693 -0.2469  0.3465 -0.1614
 9324TIP3    H152167   5.490   4.540  10.738 -0.7410  0.3158  0.2788
 9324TIP3    H252168   5.471   4.479  10.600  1.4499  0.1114  0.0309
 9325TIP3   OH252169   5.852   6.556  11.341 -0.4197  0.4304 -0.2593
 9325TIP3    H152170   5.774   6.526  11.387 -0.8851  1.0637 -0.6157
 9325TIP3    H252171   5.924   6.510  11.384 -0.9139  0.3975  0.5657
 9326TIP3   OH252172   4.234   0.488  11.474  0.3617  0.1547 -0.1544
 9326TIP3    H152173   4.185   0.409  11.454  0.1522  0.4359 -0.7813
 9326TIP3    H252174   4.216   0.547  11.401  0.9226  0.5921  0.0480
 9327TIP3   OH252175   6.112   3.547   9.514  1.0667 -0.3791  0.1667
 9327TIP3    H152176   6.044   3.605   9.549 -1.0035 -1.7127 -1.3923
 9327TIP3    H252177   6.173   3.534   9.587 -0.9936 -0.0483  2.0570
 9328TIP3   OH252178   5.796   5.673  10.120  0.6357  0.5007  0.3480
 9328TIP3    H152179   5.763   5.740  10.059  1.5223  1.3620  0.7927
 9328TIP3    H252180   5.718   5.624  10.146  0.1225  0.6470 -0.8316
 9329TIP3   OH252181   3.325   5.582   8.903  0.0015  0.0613  0.2533
 9329TIP3    H152182   3.311   5.495   8.867 -0.3581  0.2419 -0.0555
 9329TIP3    H252183   3.371   5.568   8.985 -1.0444 -0.4964  0.7607
 9330TIP3   OH252184   1.203   1.258  11.015 -0.0805 -0.5299 -0.2304
 9330TIP3    H152185   1.147   1.191  11.054 -0.0110  0.2753  1.3281
 9330TIP3    H252186   1.290   1.219  11.014  0.2905  0.1114  2.2820
 9331TIP3   OH252187   1.063   3.354  11.886  0.1852 -0.4000  0.0878
 9331TIP3    H152188   1.098   3.276  11.842 -1.8254 -2.5835  2.0717
 9331TIP3    H252189   1.109   3.357  11.969 -0.3359  0.0370  0.3667
 9332TIP3   OH252190   0.950   3.851   8.808 -0.3656  0.3360 -0.0516
 9332TIP3    H152191   1.041   3.822   8.804 -0.4993 -0.4150  1.3149
 9332TIP3    H252192   0.933   3.860   8.902 -1.5122  1.0904 -0.3161
 9333TIP3   OH252193   1.076   5.820  10.470  0.7860  0.5817 -0.0867
 9333TIP3    H152194   1.079   5.728  10.499  2.8036  0.7208  0.2634
 9333TIP3    H252195   1.023   5.817  10.390 -0.7419 -0.5729  0.8861
 9334TIP3   OH252196   1.405   5.228   9.385 -0.1354 -0.4708  0.1564
 9334TIP3    H152197   1.334   5.164   9.388 -0.6159 -0.0142 -0.8074
 9334TIP3    H252198   1.465   5.194   9.319 -0.0934 -0.2276  0.0688
 9335TIP3   OH252199   4.833   3.276   8.514 -0.3978 -0.3339  0.3904
 9335TIP3    H152200   4.814   3.195   8.562  1.5883 -1.7181 -1.0089
 9335TIP3    H252201   4.782   3.269   8.434  0.0340 -0.3607  0.1178
 9336TIP3   OH252202   1.862   3.933  11.139  0.3566  0.0728  0.8365
 9336TIP3    H152203   1.834   4.003  11.080  2.5109  0.9138  0.7168
 9336TIP3    H252204   1.853   3.970  11.226  1.4480  0.5362  0.7750
 9337TIP3   OH252205   2.264   5.975  10.545 -0.1025 -0.0667 -0.3090
 9337TIP3    H152206   2.273   5.908  10.477  0.4430 -1.1627  0.7930
 9337TIP3    H252207   2.320   5.944  10.616 -0.9728  0.8311  0.7997
 9338TIP3   OH252208   1.180   6.129   9.699 -0.0759 -0.7586 -1.0202
 9338TIP3    H152209   1.176   6.121   9.794  0.5113  2.2386 -0.6620
 9338TIP3    H252210   1.239   6.059   9.672  1.8507 -0.0915  1.1329
 9339TIP3   OH252211   0.260   3.147   9.547  0.6670  0.4057  0.1216
 9339TIP3    H152212   0.172   3.169   9.515  0.5250  0.0002  0.2285
 9339TIP3    H252213   0.250   3.141   9.642  0.5795 -0.6406  0.0569
 9340TIP3   OH252214   5.530   1.311  12.529 -0.1796 -0.2051 -0.4298
 9340TIP3    H152215   5.530   1.262  12.447  0.8600  0.8731 -1.1056
 9340TIP3    H252216   5.486   1.393  12.508  0.4422  0.2420 -0.0326
 9341TIP3   OH252217   0.636   4.499  11.592 -0.1226 -0.5946  0.2323
 9341TIP3    H152218   0.710   4.439  11.584 -0.0029 -0.2531 -1.8381
 9341TIP3    H252219   0.669   4.583  11.562 -0.4227  0.4626  2.6591
 9342TIP3   OH252220   3.288   1.915  11.079 -0.2379 -0.0886 -0.2263
 9342TIP3    H152221   3.231   1.897  11.153  0.6832  1.6703  0.9672
 9342TIP3    H252222   3.365   1.957  11.117  1.3843 -1.3743 -1.9083
 9343TIP3   OH252223   3.483   0.620   9.676 -0.2289  0.0596  0.1110
 9343TIP3    H152224   3.506   0.563   9.603  0.7272 -2.0641  1.9391
 9343TIP3    H252225   3.430   0.564   9.734  0.6482  1.0154  1.9303
 9344TIP3   OH252226   3.684   5.329  12.195 -0.0180  0.0892 -0.3382
 9344TIP3    H152227   3.778   5.346  12.199 -0.0037 -0.0033 -0.2803
 9344TIP3    H252228   3.664   5.286  12.278 -0.1927  0.5188 -0.1529
 9345TIP3   OH252229   2.297   1.559  10.334  0.4802 -0.2669 -0.2635
 9345TIP3    H152230   2.256   1.569  10.420  0.3131 -1.5522 -0.1795
 9345TIP3    H252231   2.388   1.534  10.354  0.9062  1.0419 -0.4636
 9346TIP3   OH252232   4.377   5.647  10.811  0.1784  0.0565 -0.4497
 9346TIP3    H152233   4.294   5.642  10.764  0.5473 -1.1161 -1.0086
 9346TIP3    H252234   4.400   5.556  10.830  1.3707  0.3502 -0.3783
 9347TIP3   OH252235   1.139   4.537   9.110 -0.4894  0.4022  0.7989
 9347TIP3    H152236   1.045   4.544   9.126 -0.8006 -0.2350 -0.6672
 9347TIP3    H252237   1.167   4.626   9.090 -1.0554  0.3622 -0.1894
 9348TIP3   OH252238   0.025   2.124   9.820 -0.0255 -0.4033 -0.1655
 9348TIP3    H152239  -0.035   2.155   9.753  1.3949  1.3195 -0.7311
 9348TIP3    H252240   0.005   2.177   9.897  0.1609 -0.4562 -0.0784
 9349TIP3   OH252241   2.342   5.656  12.414  0.1336 -0.3918 -0.9603
 9349TIP3    H152242   2.356   5.729  12.352 -1.1182  0.5916 -0.1304
 9349TIP3    H252243   2.330   5.699  12.499 -0.4196 -1.5928 -0.4126
 9350TIP3   OH252244   3.730   2.078   9.136 -0.5097 -0.8701  0.6442
 9350TIP3    H152245   3.743   2.090   9.230  0.4991  2.0608  0.2362
 9350TIP3    H252246   3.818   2.069   9.101 -0.5745  1.2680 -0.2722
 9351TIP3   OH252247   0.878   6.651  10.173  0.0383 -0.1748 -0.0881
 9351TIP3    H152248   0.935   6.684  10.104 -0.1916  1.4885  0.4802
 9351TIP3    H252249   0.789   6.667  10.141 -0.0719  0.4124  0.4988
 9352TIP3   OH252250   1.712   5.405  10.240 -0.2365  0.3293  0.2541
 9352TIP3    H152251   1.684   5.325  10.197 -0.4216  0.5275  0.0029
 9352TIP3    H252252   1.778   5.442  10.181  0.9095 -0.3744  1.0666
 9353TIP3   OH252253   4.725   3.159  12.110 -0.3751 -0.9971 -0.3264
 9353TIP3    H152254   4.723   3.129  12.201 -0.1665  0.4274  0.1873
 9353TIP3    H252255   4.639   3.199  12.096  0.3878  0.8839  0.0472
 9354TIP3   OH252256   6.052   6.148  11.529 -0.2866  0.0528 -0.2407
 9354TIP3    H152257   5.961   6.120  11.543 -0.3141  1.0606  1.9130
 9354TIP3    H252258   6.104   6.078  11.568 -0.2434  0.8655  1.2057
 9355TIP3   OH252259   4.068   1.974  10.122  0.0844  0.2182 -0.6984
 9355TIP3    H152260   4.153   2.001  10.158  0.4059 -0.0705 -1.2237
 9355TIP3    H252261   4.090   1.903  10.061 -0.6539 -0.6481  0.0129
 9356TIP3   OH252262   6.067   3.084  10.052  0.1710 -0.1943 -1.3004
 9356TIP3    H152263   5.989   3.083  10.106  0.2588  1.4412 -1.1086
 9356TIP3    H252264   6.135   3.043  10.107 -0.1742 -0.2040 -0.8778
 9357TIP3   OH252265   0.196   3.251  11.379  0.4070 -0.6206  0.6399
 9357TIP3    H152266   0.229   3.339  11.361 -3.4948  1.1039  1.0123
 9357TIP3    H252267   0.213   3.202  11.298 -0.5115  1.5801 -0.9977
 9358TIP3   OH252268   2.481   4.192  10.051 -0.0238  0.2369  0.2877
 9358TIP3    H152269   2.462   4.167   9.960 -0.6661  3.2742 -0.5254
 9358TIP3    H252270   2.576   4.202  10.053  0.2066 -1.5953  0.5236
 9359TIP3   OH252271   0.250   3.371  11.748 -0.2947  0.2371  0.2728
 9359TIP3    H152272   0.267   3.327  11.831 -2.2171  0.7090  0.9787
 9359TIP3    H252273   0.193   3.310  11.700 -3.1062  1.8415  1.3204
 9360TIP3   OH252274   6.377   2.201  11.509 -0.3103  0.3326  0.1442
 9360TIP3    H152275   6.458   2.253  11.512 -0.3719  0.4479 -0.2470
 9360TIP3    H252276   6.349   2.206  11.418  1.3257 -2.9109 -0.6758
 9361TIP3   OH252277   4.957   2.376   8.718  0.2822 -0.0338 -0.4619
 9361TIP3    H152278   4.945   2.369   8.813 -2.1441  2.9739 -0.3931
 9361TIP3    H252279   5.039   2.425   8.708  1.4227 -1.7521 -0.0785
 9362TIP3   OH252280   0.792   6.608  11.625  0.1507 -0.0866  0.1744
 9362TIP3    H152281   0.811   6.649  11.540 -1.5059  1.6789  0.5954
 9362TIP3    H252282   0.709   6.562  11.611 -0.1713  0.2793  0.8614
 9363TIP3   OH252283   0.853   2.141   8.777  0.1471 -0.2949  0.7051
 9363TIP3    H152284   0.820   2.084   8.847 -1.1373 -2.3857 -1.4713
 9363TIP3    H252285   0.906   2.083   8.722  0.0645  0.9887 -0.7743
 9364TIP3   OH252286   4.027   6.278   9.875  0.5378  0.2135  1.0785
 9364TIP3    H152287   4.037   6.334   9.951  3.4747  0.3045  0.7158
 9364TIP3    H252288   4.098   6.214   9.882 -0.3394 -1.0424 -0.5600
 9365TIP3   OH252289   0.589   5.760  10.245  0.2804 -0.2840 -0.1845
 9365TIP3    H152290   0.588   5.759  10.149  1.2511  0.5538 -0.2254
 9365TIP3    H252291   0.583   5.853  10.268  0.7819 -0.4253  0.5406
 9366TIP3   OH252292   3.418   2.556   9.520 -0.6328 -0.1945  0.4865
 9366TIP3    H152293   3.509   2.562   9.548 -1.0069  0.9474  1.5461
 9366TIP3    H252294   3.371   2.617   9.577 -2.1108 -0.9716  0.1611
 9367TIP3   OH252295   0.659   4.499  12.056  0.5188  0.1267 -0.1040
 9367TIP3    H152296   0.587   4.549  12.094 -2.6224 -2.5399 -2.0708
 9367TIP3    H252297   0.691   4.555  11.985  0.9725  1.6320  1.2176
 9368TIP3   OH252298   6.011   5.357  12.032  0.0163  0.4092 -0.6448
 9368TIP3    H152299   6.094   5.397  12.058 -0.4213 -0.2418  1.9497
 9368TIP3    H252300   6.037   5.278  11.985  1.0482 -1.5423  2.8413
 9369TIP3   OH252301   1.270   4.664   9.635  0.0985  0.3107  0.3963
 9369TIP3    H152302   1.256   4.580   9.679 -0.5112  0.5404  0.6471
 9369TIP3    H252303   1.220   4.658   9.554  0.4869  0.2361  0.1559
 9370TIP3   OH252304   1.445   3.370  11.263  0.5586  0.1358  0.1479
 9370TIP3    H152305   1.480   3.295  11.312 -0.9339 -0.5089  0.2996
 9370TIP3    H252306   1.354   3.377  11.293  0.5008  1.6319 -0.3258
 9371TIP3   OH252307   0.261   4.403   9.640 -0.3061 -0.2073 -1.1961
 9371TIP3    H152308   0.186   4.461   9.623 -2.6001 -1.9812  1.8784
 9371TIP3    H252309   0.325   4.460   9.683 -1.9767  0.4447  0.5891
 9372TIP3   OH252310   4.206   2.455   9.002 -0.0953 -0.5224  0.1111
 9372TIP3    H152311   4.122   2.425   8.969  0.8187 -0.0869 -2.9240
 9372TIP3    H252312   4.232   2.526   8.943  0.9220  1.7038  2.9698
 9373TIP3   OH252313   3.649   5.914  10.410 -0.1697 -0.3034 -0.3806
 9373TIP3    H152314   3.713   5.946  10.347 -1.1223  1.0026 -0.7291
 9373TIP3    H252315   3.566   5.954  10.383 -0.8610 -0.8027  0.9014
 9374TIP3   OH252316   5.304   4.199  10.681 -0.1001  0.3253  0.2221
 9374TIP3    H152317   5.285   4.197  10.587  1.5423  0.6015 -0.1313
 9374TIP3    H252318   5.311   4.292  10.702 -0.7400  0.2731  0.6870
 9375TIP3   OH252319   3.751   5.821   9.375  0.4557  0.2165  0.2186
 9375TIP3    H152320   3.670   5.782   9.410  0.2442  0.7274  0.3004
 9375TIP3    H252321   3.800   5.848   9.452 -0.2967  1.9255  0.1396
 9376TIP3   OH252322   4.285   5.062  10.765 -0.6119  0.4134  0.1088
 9376TIP3    H152323   4.213   4.998  10.765 -1.0881  0.9427 -0.8393
 9376TIP3    H252324   4.242   5.146  10.779 -0.0842  0.6442  0.3469
 9377TIP3   OH252325   3.936   6.561   8.985  0.5523 -0.2938 -0.0018
 9377TIP3    H152326   3.850   6.523   9.003 -0.5879  1.6982 -0.8344
 9377TIP3    H252327   3.947   6.628   9.053  1.6693 -0.8139  0.3507
 9378TIP3   OH252328   0.348   6.477  10.636  0.4218 -0.0251  0.1466
 9378TIP3    H152329   0.292   6.453  10.710  1.8946  1.0405  1.6875
 9378TIP3    H252330   0.437   6.455  10.665  0.9918  0.0402 -1.4745
 9379TIP3   OH252331   1.415   3.780   9.316  0.4921 -0.1378 -0.4364
 9379TIP3    H152332   1.339   3.737   9.276  0.2244 -0.2084  0.1310
 9379TIP3    H252333   1.427   3.860   9.265 -1.2150  0.8966  0.6762
 9380TIP3   OH252334   3.453   2.302   9.629  0.6429  0.3663  0.2257
 9380TIP3    H152335   3.400   2.257   9.563  2.7764 -1.3042 -0.4768
 9380TIP3    H252336   3.437   2.395   9.613 -1.3461 -0.0503 -0.5138
 9381TIP3   OH252337   2.317   3.190   9.711 -0.0860  0.0558 -0.0818
 9381TIP3    H152338   2.234   3.232   9.689  0.2439  1.0737  0.5936
 9381TIP3    H252339   2.382   3.236   9.658 -0.0821 -1.6070 -1.6234
 9382TIP3   OH252340   0.296   5.808   9.754  0.1976  0.3099 -0.7565
 9382TIP3    H152341   0.293   5.896   9.794 -0.6858 -0.1474  0.2197
 9382TIP3    H252342   0.205   5.787   9.736  0.2383 -1.0162  0.4209
 9383TIP3   OH252343   0.706   1.252  12.412 -0.5379 -0.4065 -0.4040
 9383TIP3    H152344   0.616   1.263  12.444 -0.3115  1.2336 -0.2370
 9383TIP3    H252345   0.699   1.185  12.344 -1.6569 -1.2561  0.5014
 9384TIP3   OH252346   1.120   2.641   9.068 -0.2319  0.1793 -0.4142
 9384TIP3    H152347   1.153   2.551   9.064 -0.2380  0.1311  0.4393
 9384TIP3    H252348   1.159   2.684   8.992 -1.5126 -0.9545 -1.7798
 9385TIP3   OH252349   0.320   6.115  10.558 -0.2581 -0.5970 -0.2090
 9385TIP3    H152350   0.329   6.126  10.653 -1.4115 -1.1674 -0.0141
 9385TIP3    H252351   0.407   6.091  10.528  0.0674 -0.6439  0.7457
 9386TIP3   OH252352   5.366   4.508  10.429 -0.4387 -0.2443 -0.4066
 9386TIP3    H152353   5.336   4.556  10.352  1.5371  0.5294 -0.7610
 9386TIP3    H252354   5.299   4.525  10.496 -0.5755  1.7604 -0.9853
 9387TIP3   OH252355   6.363   2.901   8.724 -0.4074  0.5202  0.6936
 9387TIP3    H152356   6.353   2.994   8.708 -1.3487  0.4530  0.8483
 9387TIP3    H252357   6.276   2.871   8.749 -0.2253 -0.4951  0.1687
 9388TIP3   OH252358   3.172   0.086  10.662 -0.0926  0.4826  0.0483
 9388TIP3    H152359   3.148   0.144  10.590 -0.0727 -0.1913 -0.5103
 9388TIP3    H252360   3.126   0.004  10.644  0.7608 -0.0521  0.2046
 9389TIP3   OH252361   4.867   0.434   9.382 -0.4139 -0.0858 -0.0618
 9389TIP3    H152362   4.815   0.464   9.457  2.1067  0.8226  1.4553
 9389TIP3    H252363   4.868   0.509   9.322 -1.8032 -0.5384 -0.6717
 9390TIP3   OH252364   2.118   2.087   9.082  0.8131 -0.2020 -0.2573
 9390TIP3    H152365   2.089   2.019   9.143  0.9162 -0.5043 -0.5376
 9390TIP3    H252366   2.038   2.124   9.046  0.7513 -1.0759 -1.0760
 9391TIP3   OH252367   3.710   1.522  11.107 -0.2948 -0.1285  0.3137
 9391TIP3    H152368   3.720   1.452  11.172 -0.9885 -0.9142 -0.4190
 9391TIP3    H252369   3.668   1.593  11.156  0.6495 -0.0906  1.1296
 9392TIP3   OH252370   4.312   0.995  11.105  0.4006  0.1903  0.1242
 9392TIP3    H152371   4.330   1.057  11.175 -1.3382  0.8929 -0.0039
 9392TIP3    H252372   4.307   0.910  11.148 -2.9267  0.8593  1.3397
 9393TIP3   OH252373   3.548   6.132   9.908  0.2195 -0.0587  0.1897
 9393TIP3    H152374   3.465   6.110   9.950  1.4987 -1.9654  1.9406
 9393TIP3    H252375   3.559   6.064   9.841 -0.2343  1.0164 -1.0200
 9394TIP3   OH252376   6.230   3.144  10.981 -0.1105 -0.2359  0.0828
 9394TIP3    H152377   6.313   3.107  11.010  0.3829  1.3302  0.8046
 9394TIP3    H252378   6.198   3.193  11.057 -1.3822 -0.3036 -0.3897
 9395TIP3   OH252379   0.934   6.277   9.283  0.0337  0.3772  0.6052
 9395TIP3    H152380   0.995   6.349   9.266 -0.7133  1.0528  0.6766
 9395TIP3    H252381   0.981   6.198   9.257 -0.1952  1.1320 -2.4708
 9396TIP3   OH252382   0.608   5.929  10.806  0.0748  0.2920 -0.5319
 9396TIP3    H152383   0.671   5.879  10.858  0.8846  0.4723 -1.2972
 9396TIP3    H252384   0.526   5.924  10.855  0.5947 -0.2574  0.3095
 9397TIP3   OH252385   3.133   2.595  10.460 -0.3398  0.5269  0.6175
 9397TIP3    H152386   3.173   2.533  10.399 -1.2415 -0.1588  0.7106
 9397TIP3    H252387   3.041   2.568  10.466 -1.0972  2.6751 -0.3809
 9398TIP3   OH252388   2.823   1.181  11.378  0.4885  0.1697  0.1253
 9398TIP3    H152389   2.868   1.260  11.408 -0.0755 -0.7888  4.0475
 9398TIP3    H252390   2.788   1.142  11.458  1.6927 -4.6769 -1.4174
 9399TIP3   OH252391   5.627   3.264  10.028  0.0823 -0.6229  0.6489
 9399TIP3    H152392   5.601   3.324   9.958  3.3997  0.7075  0.3521
 9399TIP3    H252393   5.573   3.187  10.015 -3.9634  1.9149  0.6061
 9400TIP3   OH252394   5.193   2.563  10.623 -0.5092 -0.3732  0.8749
 9400TIP3    H152395   5.153   2.638  10.668 -0.9154 -0.3773  0.5254
 9400TIP3    H252396   5.285   2.565  10.651 -0.1310  1.2064 -0.3466
 9401TIP3   OH252397   4.019   5.023   9.714  0.1977 -0.8255 -0.4596
 9401TIP3    H152398   4.064   5.079   9.777 -2.1045 -0.1534  0.7075
 9401TIP3    H252399   3.948   4.983   9.764 -2.7093  0.9020 -2.8423
 9402TIP3   OH252400   5.875   4.687   9.741 -0.3782  0.1233  0.9760
 9402TIP3    H152401   5.861   4.760   9.801  0.2405 -1.1831  2.8117
 9402TIP3    H252402   5.969   4.689   9.721 -0.8717  1.6924 -1.5920
 9403TIP3   OH252403   2.794   1.473  11.058  0.4988 -0.4387  0.1322
 9403TIP3    H152404   2.871   1.444  11.010  0.5182 -1.3948  0.7110
 9403TIP3    H252405   2.822   1.554  11.102  0.2977  0.8099 -1.8929
 9404TIP3   OH252406   5.807   0.985  11.786 -0.3167 -0.5024  0.3659
 9404TIP3    H152407   5.821   1.060  11.728  0.4964 -0.9132  0.0092
 9404TIP3    H252408   5.895   0.962  11.817 -0.6741 -0.6858  1.2679
 9405TIP3   OH252409   2.331   5.762   9.838 -0.2119  0.3705  0.1212
 9405TIP3    H152410   2.398   5.821   9.803 -1.2282  1.6783  0.3155
 9405TIP3    H252411   2.369   5.675   9.829  0.8135  0.9321 -1.3609
 9406TIP3   OH252412   0.981   0.656  11.119  0.6855  0.1972  0.0291
 9406TIP3    H152413   1.067   0.633  11.084  0.7189  1.3747 -0.7222
 9406TIP3    H252414   0.933   0.690  11.044 -0.8859 -1.5568  0.1686
 9407TIP3   OH252415   0.547   1.171  11.710  0.5581 -0.1534 -0.3162
 9407TIP3    H152416   0.541   1.266  11.710 -0.6256 -0.2099 -1.0362
 9407TIP3    H252417   0.623   1.152  11.655  0.5615  0.3609 -0.4954
 9408TIP3   OH252418   5.941   5.279  11.218 -0.2483  0.6028  0.0740
 9408TIP3    H152419   5.985   5.198  11.193 -0.1037  1.0226 -1.0758
 9408TIP3    H252420   6.005   5.324  11.274 -0.2526  0.0244  0.5546
 9409TIP3   OH252421   1.759   1.842  10.141  0.4485  0.0821  0.1742
 9409TIP3    H152422   1.775   1.932  10.114 -0.3040  0.0737 -0.3254
 9409TIP3    H252423   1.846   1.803  10.149  0.7350  0.4011 -1.1896
 9410TIP3   OH252424   2.950   6.084  10.121 -0.3961  0.1733 -0.5376
 9410TIP3    H152425   3.025   6.106  10.066  0.3684  1.7973  1.0692
 9410TIP3    H252426   2.916   6.168  10.151  0.2920 -0.5903  2.8046
 9411TIP3   OH252427   2.419   4.877   9.135  0.0174  0.2665  1.0062
 9411TIP3    H152428   2.395   4.934   9.208 -0.0646 -0.7684  1.8203
 9411TIP3    H252429   2.441   4.794   9.177 -0.6860 -0.5546 -0.2172
 9412TIP3   OH252430   3.592   5.476  10.791 -0.3556  0.2731  0.0512
 9412TIP3    H152431   3.565   5.501  10.879  0.2692  1.1447  0.0045
 9412TIP3    H252432   3.681   5.508  10.783 -0.9701  1.7580 -1.4987
 9413TIP3   OH252433   1.619   0.510  11.776 -0.3284 -0.3033  0.0600
 9413TIP3    H152434   1.628   0.469  11.690 -3.1593 -0.1105 -0.4145
 9413TIP3    H252435   1.635   0.439  11.838 -0.5877 -1.0002 -0.6592
 9414TIP3   OH252436   5.159   5.062  10.887  0.1918  0.0506  0.0542
 9414TIP3    H152437   5.247   5.045  10.852  0.4890 -0.0899  0.8574
 9414TIP3    H252438   5.154   5.011  10.967 -0.9087 -0.5438 -0.3733
 9415TIP3   OH252439   5.592   0.112  12.114 -0.0945 -0.0677 -0.0241
 9415TIP3    H152440   5.521   0.166  12.146  1.4821  2.0938  0.0442
 9415TIP3    H252441   5.593   0.036  12.172 -0.7703  1.0824  1.5644
 9416TIP3   OH252442   2.669   6.117   9.177 -0.4567  0.3430 -0.4196
 9416TIP3    H152443   2.629   6.045   9.128 -1.7195  0.2242  0.7414
 9416TIP3    H252444   2.650   6.195   9.124 -0.8830  0.0817 -0.6590
 9417TIP3   OH252445   1.911   1.738  12.543  0.0472 -0.0203  0.1473
 9417TIP3    H152446   1.844   1.670  12.538 -0.0347  0.1605 -2.4160
 9417TIP3    H252447   1.862   1.819  12.560 -0.3222 -0.0309 -0.7822
 9418TIP3   OH252448   5.182   1.329  10.710 -0.0798 -0.5704  0.3592
 9418TIP3    H152449   5.135   1.337  10.793 -0.1713  0.4245  0.2170
 9418TIP3    H252450   5.165   1.411  10.664 -0.0143 -1.0964 -0.6434
 9419TIP3   OH252451   5.025   1.618   9.468  0.0734  0.4387 -0.1186
 9419TIP3    H152452   5.051   1.526   9.478  1.3744  0.5680 -1.7339
 9419TIP3    H252453   4.934   1.621   9.496  0.3539 -1.1035  1.0584
 9420TIP3   OH252454   5.102   2.840  11.352 -0.1737 -0.2209 -0.2607
 9420TIP3    H152455   5.187   2.799  11.367 -0.4958 -0.6832  0.3288
 9420TIP3    H252456   5.119   2.906  11.284  0.8617  0.3859  0.5433
 9421TIP3   OH252457   4.785   4.040  11.575 -0.1667  0.0978  0.3353
 9421TIP3    H152458   4.731   3.983  11.521 -0.4913  1.6978 -1.1190
 9421TIP3    H252459   4.729   4.063  11.649 -0.3692 -0.6785  0.4310
 9422TIP3   OH252460   0.935   0.677   9.126 -0.1728  0.0097 -0.1817
 9422TIP3    H152461   0.998   0.741   9.094  1.0370 -0.1618  1.6773
 9422TIP3    H252462   0.988   0.599   9.147 -1.4816 -1.3352 -1.5979
 9423TIP3   OH252463   2.850   1.749  11.234 -0.0936  0.2870  0.2767
 9423TIP3    H152464   2.824   1.840  11.252 -0.6042  0.1857  0.0639
 9423TIP3    H252465   2.910   1.756  11.160 -0.2805  0.4309  0.1388
 9424TIP3   OH252466   3.852   2.782   9.324 -0.0494 -0.3232  0.5349
 9424TIP3    H152467   3.881   2.701   9.282  1.3065 -0.0961  0.9666
 9424TIP3    H252468   3.874   2.851   9.261  2.3807  0.0638  1.6864
 9425TIP3   OH252469   6.302   1.957  11.602 -0.2349  0.5332  0.2757
 9425TIP3    H152470   6.341   2.033  11.559 -1.3219  1.2981  0.5887
 9425TIP3    H252471   6.375   1.897  11.616  0.8638  1.9934  1.0317
 9426TIP3   OH252472   2.880   5.584   9.454 -0.9085 -0.7197 -0.1655
 9426TIP3    H152473   2.942   5.517   9.485 -0.6365  0.3936  1.8636
 9426TIP3    H252474   2.794   5.542   9.461 -0.5729 -1.6844 -1.3626
 9427TIP3   OH252475   2.678   1.271   9.976  0.0562 -0.2039  0.0678
 9427TIP3    H152476   2.718   1.253   9.891 -0.5981 -1.3170 -0.0199
 9427TIP3    H252477   2.600   1.216   9.978 -0.8103  1.0046  0.7379
 9428TIP3   OH252478   3.685   1.169   9.787  0.1784  0.4409 -0.3221
 9428TIP3    H152479   3.611   1.164   9.728 -0.5215 -0.7757  0.6153
 9428TIP3    H252480   3.711   1.261   9.786 -0.6632  0.6794 -1.4678
 9429TIP3   OH252481   5.950   4.082   9.925  0.0759  0.0510 -0.0841
 9429TIP3    H152482   5.941   4.153   9.861  0.9663  1.4758  1.3267
 9429TIP3    H252483   5.974   4.006   9.872  0.0112  0.9957 -1.5367
 9430TIP3   OH252484   3.866   3.819  12.056  0.1780 -0.3426  0.1474
 9430TIP3    H152485   3.928   3.876  12.102 -1.3855  0.4672  1.3932
 9430TIP3    H252486   3.787   3.873  12.046 -0.2353 -1.1972 -1.7212
 9431TIP3   OH252487   2.121   4.156  12.142 -0.4628  0.6154  0.4720
 9431TIP3    H152488   2.196   4.120  12.093 -0.5515  1.1502 -0.0722
 9431TIP3    H252489   2.160   4.201  12.217 -0.3897 -1.3008  1.6526
 9432TIP3   OH252490   3.818   1.860  11.620 -0.8985  0.4325 -0.0307
 9432TIP3    H152491   3.862   1.941  11.644 -0.9278  0.1195  1.1463
 9432TIP3    H252492   3.784   1.825  11.702  1.1822 -2.0036 -0.0761
 9433TIP3   OH252493   0.313   2.953   9.206  0.2460 -0.6703  0.0087
 9433TIP3    H152494   0.271   2.870   9.228  1.2208 -0.9726  0.8001
 9433TIP3    H252495   0.271   2.980   9.124 -0.0159 -1.9945 -0.3182
 9434TIP3   OH252496   4.409   1.438  11.447  0.0553 -0.2455 -0.0219
 9434TIP3    H152497   4.321   1.457  11.415 -0.1707  0.6417  1.0815
 9434TIP3    H252498   4.444   1.523  11.474  1.2217 -0.5998 -0.3327
 9435TIP3   OH252499   5.111   0.176  11.214  0.2201  0.0053  0.1969
 9435TIP3    H152500   5.146   0.139  11.133 -0.0883 -0.3542  0.2266
 9435TIP3    H252501   5.073   0.259  11.188  1.0125  0.3645  0.1488
 9436TIP3   OH252502   1.703   0.066  10.870 -0.0786  0.5667  0.0410
 9436TIP3    H152503   1.729   0.000  10.806  1.3271  0.1837  0.9702
 9436TIP3    H252504   1.690   0.146  10.818 -0.0924 -0.0117 -0.8655
 9437TIP3   OH252505   2.504   3.713  11.098  0.2550  0.2123  0.6428
 9437TIP3    H152506   2.586   3.719  11.049  0.4375 -2.0203  0.5762
 9437TIP3    H252507   2.530   3.694  11.188 -0.1522  2.2408  1.2477
 9438TIP3   OH252508   3.237   6.118  10.517  0.7731  0.0038 -0.4050
 9438TIP3    H152509   3.180   6.046  10.544  0.1346  0.6688  0.0539
 9438TIP3    H252510   3.180   6.176  10.467  1.0438  0.6729  0.0525
 9439TIP3   OH252511   4.228   2.873   9.548  0.3914 -0.3026  0.0327
 9439TIP3    H152512   4.204   2.952   9.501  1.8266 -0.5648 -1.2070
 9439TIP3    H252513   4.202   2.890   9.639 -1.4043  0.6486 -0.6329
 9440TIP3   OH252514   6.090   2.879   9.331 -0.3601 -0.6337  0.6829
 9440TIP3    H152515   6.150   2.859   9.259 -0.5125 -0.6992  0.5731
 9440TIP3    H252516   6.127   2.832   9.406  0.1652 -0.0286  0.8119
 9441TIP3   OH252517   2.338   5.017  10.636  0.1312 -0.3893 -0.7819
 9441TIP3    H152518   2.409   4.963  10.600 -0.1461  0.0811 -2.1097
 9441TIP3    H252519   2.364   5.033  10.726  0.1338 -2.8644 -0.2651
 9442TIP3   OH252520   1.291   4.462  10.944  0.3623 -0.1791  0.3035
 9442TIP3    H152521   1.343   4.460  10.864 -0.1292  1.2673 -0.0870
 9442TIP3    H252522   1.304   4.375  10.983  1.9177 -0.3549 -0.4904
 9443TIP3   OH252523   4.922   3.556  11.853 -0.2115  0.4071 -0.1792
 9443TIP3    H152524   4.840   3.582  11.895 -1.4624  0.1973 -2.3289
 9443TIP3    H252525   4.990   3.599  11.904 -1.6913  1.0942  1.3096
 9444TIP3   OH252526   5.367   3.148  10.272 -0.0651 -0.3079 -0.2739
 9444TIP3    H152527   5.402   3.101  10.197  1.3686  0.2263  0.0180
 9444TIP3    H252528   5.413   3.111  10.348 -1.0636 -0.4446  0.2830
 9445TIP3   OH252529   2.528   0.370  11.829  0.2919  0.1817  0.3799
 9445TIP3    H152530   2.478   0.300  11.871  3.0727 -1.6241  0.9251
 9445TIP3    H252531   2.584   0.405  11.898  0.8345  1.1502 -0.5208
 9446TIP3   OH252532   6.165   4.120   8.618  0.3086  0.3412  0.1804
 9446TIP3    H152533   6.180   4.073   8.700 -0.6873 -1.1611 -0.4593
 9446TIP3    H252534   6.250   4.156   8.595  1.2099 -1.4390  0.5448
 9447TIP3   OH252535   2.964   5.984  10.585  0.5920 -0.3867  0.1046
 9447TIP3    H152536   3.037   5.924  10.568  0.3107 -0.8022  0.3359
 9447TIP3    H252537   2.886   5.928  10.580  0.4558 -0.4314  2.1859
 9448TIP3   OH252538   5.167   3.554   9.245 -0.1808 -0.0277  0.3812
 9448TIP3    H152539   5.229   3.623   9.220  0.4937 -0.0116  1.9714
 9448TIP3    H252540   5.087   3.600   9.268  0.5626  0.3749  2.3615
 9449TIP3   OH252541   5.253   2.238   9.695 -0.4075 -0.0258 -0.2781
 9449TIP3    H152542   5.232   2.322   9.654 -0.0604  0.4421  0.4849
 9449TIP3    H252543   5.345   2.245   9.718 -0.1033 -1.0181 -1.1200
 9450TIP3   OH252544   0.134   6.347  10.811  0.0004  0.2442  0.1290
 9450TIP3    H152545   0.121   6.254  10.834 -0.4176  0.4956  0.9623
 9450TIP3    H252546   0.063   6.366  10.750 -0.0848  0.0902  0.1788
 9451TIP3   OH252547   6.075   4.947   9.858  0.4877  0.9280  0.0440
 9451TIP3    H152548   6.139   4.940   9.929 -0.6978  2.0373  1.2777
 9451TIP3    H252549   6.122   4.995   9.789  2.1606 -1.4780 -0.6471
 9452TIP3   OH252550   1.319   3.627  10.148  0.3549 -0.0725  0.1416
 9452TIP3    H152551   1.388   3.606  10.084  0.6811  1.3903 -0.0248
 9452TIP3    H252552   1.347   3.711  10.186 -1.1790  0.3871  0.3037
 9453TIP3   OH252553   1.680   4.563  12.448  0.5262 -0.2284  0.2424
 9453TIP3    H152554   1.758   4.617  12.458  0.9145 -0.6789 -0.2669
 9453TIP3    H252555   1.615   4.604  12.504  0.6144  1.1347 -0.5957
 9454TIP3   OH252556   3.007   2.070  10.809 -0.0396  0.0674 -0.1737
 9454TIP3    H152557   2.963   1.986  10.797  0.3978  0.0772 -2.1603
 9454TIP3    H252558   2.974   2.102  10.893 -1.4942 -1.3101 -0.1661
 9455TIP3   OH252559   1.294   1.172  10.118 -0.0583  0.1513 -0.0780
 9455TIP3    H152560   1.348   1.238  10.074 -1.6286  1.3417 -0.2950
 9455TIP3    H252561   1.264   1.115  10.048 -0.5281  0.5619 -0.2162
 9456TIP3   OH252562   2.330   2.873  11.108 -0.4918 -0.4729 -0.0250
 9456TIP3    H152563   2.302   2.782  11.121  1.8219 -1.3284 -0.3811
 9456TIP3    H252564   2.333   2.910  11.196  1.1947 -1.6688  0.4875
 9457TIP3   OH252565   6.366   3.477  11.071  0.1923 -0.5939  0.0288
 9457TIP3    H152566   6.414   3.557  11.093 -0.7593  0.2945 -1.0211
 9457TIP3    H252567   6.417   3.436  11.002 -0.5550  0.3862 -1.1353
 9458TIP3   OH252568   4.827   5.540  11.543  0.1573 -0.1989  0.0936
 9458TIP3    H152569   4.859   5.459  11.503 -0.9136  1.1535 -3.9206
 9458TIP3    H252570   4.865   5.610  11.490 -0.5147  1.9261  2.2226
 9459TIP3   OH252571   5.463   5.283   9.497 -0.2223 -0.2146 -0.4241
 9459TIP3    H152572   5.468   5.188   9.488 -0.4733 -0.2241 -0.4828
 9459TIP3    H252573   5.551   5.310   9.522  0.0933 -0.3637 -1.3235
 9460TIP3   OH252574   3.865   0.987  10.692  0.1937 -0.0398 -0.2889
 9460TIP3    H152575   3.938   1.003  10.752  0.3506  1.2375 -0.7905
 9460TIP3    H252576   3.884   1.042  10.616 -0.8379 -0.3807 -0.8128
 9461TIP3   OH252577   0.220   5.718  10.831  0.0842  0.2221  0.3033
 9461TIP3    H152578   0.136   5.710  10.786 -1.3214  0.8304  2.6482
 9461TIP3    H252579   0.282   5.670  10.776 -1.4367  1.1111 -2.3339
 9462TIP3   OH252580   4.820   2.214  11.037 -0.4643 -0.6289 -0.2571
 9462TIP3    H152581   4.909   2.244  11.055  0.0137 -2.2103  0.1926
 9462TIP3    H252582   4.821   2.189  10.945 -0.9060  0.7660 -0.6751
 9463TIP3   OH252583   3.772   1.180   9.316  0.1200 -0.0706  0.0762
 9463TIP3    H152584   3.794   1.104   9.369  0.3315 -0.6496 -0.8317
 9463TIP3    H252585   3.691   1.156   9.271  0.4323  0.0594 -0.5657
 9464TIP3   OH252586   6.644   5.814  10.809  0.0941 -0.1046 -0.3501
 9464TIP3    H152587   6.614   5.882  10.748  0.4866  0.1085 -0.3088
 9464TIP3    H252588   6.671   5.863  10.887  0.1913 -0.3294 -0.2435
 9465TIP3   OH252589   4.331   1.175  11.305 -0.2043  0.2727 -0.2134
 9465TIP3    H152590   4.297   1.251  11.257  1.0197  1.0632  0.1313
 9465TIP3    H252591   4.372   1.213  11.383 -1.7369 -0.9437  1.2570
 9466TIP3   OH252592   3.384   6.221   9.438 -0.3086 -0.1880 -0.0095
 9466TIP3    H152593   3.460   6.271   9.466  0.6088 -2.6803  2.4113
 9466TIP3    H252594   3.414   6.171   9.361  0.7209 -1.4243  1.1377
 9467TIP3   OH252595   1.378   1.068  12.253 -0.1015 -0.0432  0.0484
 9467TIP3    H152596   1.454   1.120  12.230 -0.8569  1.3758  0.6091
 9467TIP3    H252597   1.313   1.090  12.187 -0.3400 -0.4816  0.1347
 9468TIP3   OH252598   3.779   2.305  10.827 -0.1786  0.3440 -0.4127
 9468TIP3    H152599   3.746   2.322  10.739 -0.5364  1.0156 -0.1516
 9468TIP3    H252600   3.703   2.319  10.884 -0.1302 -0.7480 -0.0519
 9469TIP3   OH252601   6.187   4.329  10.127 -0.1732  0.6383 -0.7535
 9469TIP3    H152602   6.206   4.245  10.085 -1.7884  1.1074 -2.5822
 9469TIP3    H252603   6.255   4.387  10.095  0.6897  0.1652  0.1659
 9470TIP3   OH252604   0.300   4.291  10.062  0.1400 -0.9204 -0.1072
 9470TIP3    H152605   0.233   4.323  10.002 -0.9267 -1.7547  0.6164
 9470TIP3    H252606   0.337   4.214  10.018  0.3530 -0.6994 -0.3209
 9471TIP3   OH252607   0.502   5.410  10.427 -0.3366 -0.5525  0.0379
 9471TIP3    H152608   0.522   5.349  10.497 -1.7181 -0.7942  0.2508
 9471TIP3    H252609   0.494   5.495  10.470 -0.5567 -0.5943  0.0812
 9472TIP3   OH252610   0.210   5.300  10.442  0.1543 -0.5310 -0.0508
 9472TIP3    H152611   0.212   5.318  10.536 -0.2537 -2.2418  0.3124
 9472TIP3    H252612   0.279   5.357  10.406  0.0215  0.4787  1.1992
 9473TIP3   OH252613   5.339   3.245   9.234  0.0858  0.2822  0.0702
 9473TIP3    H152614   5.429   3.254   9.202  0.2122  0.5007  0.4811
 9473TIP3    H252615   5.331   3.151   9.253  0.1374  0.2165 -0.2197
 9474TIP3   OH252616   1.203   6.069   8.846 -0.2731  0.6644  0.3038
 9474TIP3    H152617   1.285   6.119   8.849  0.0491  0.1075  1.4361
 9474TIP3    H252618   1.135   6.135   8.836  0.3101  1.1381 -0.6040
 9475TIP3   OH252619   0.829   2.234  12.062 -0.0878  0.9185  0.0740
 9475TIP3    H152620   0.859   2.323  12.046  3.8277  0.1924  2.0468
 9475TIP3    H252621   0.801   2.235  12.154 -1.1799  0.3441 -0.2375
 9476TIP3   OH252622   6.029   1.306  11.026  0.3223  0.2749 -0.8572
 9476TIP3    H152623   6.055   1.216  11.045  1.1413  0.4219 -1.2581
 9476TIP3    H252624   5.977   1.300  10.946  0.2759  0.1450 -0.8171
 9477TIP3   OH252625   5.823   6.125  12.254  0.7190  0.5058 -0.7516
 9477TIP3    H152626   5.841   6.111  12.347 -1.9254  1.6848  0.0211
 9477TIP3    H252627   5.808   6.037  12.219 -2.1473  0.1849  0.9298
 9478TIP3   OH252628   6.578   5.412   9.822 -0.1711 -0.0607  0.1970
 9478TIP3    H152629   6.637   5.340   9.844 -0.8489 -0.3914  0.9923
 9478TIP3    H252630   6.576   5.467   9.901 -0.3809  0.3273 -0.0719
 9479TIP3   OH252631   5.826   2.796   9.336 -0.2336 -0.0266  0.0904
 9479TIP3    H152632   5.817   2.706   9.303 -0.9823 -0.6471  1.8121
 9479TIP3    H252633   5.916   2.821   9.315  0.2555 -1.5064  0.3063
 9480TIP3   OH252634   4.832   2.970  10.457  0.6258  0.0476 -0.0829
 9480TIP3    H152635   4.751   2.995  10.412  0.9747  1.6538  0.1285
 9480TIP3    H252636   4.820   2.877  10.477 -1.0832  0.1934 -0.2344
 9481TIP3   OH252637   0.987   0.596   9.936 -0.3439  0.3687  0.2832
 9481TIP3    H152638   0.914   0.636   9.889  1.3259  1.4672 -1.5306
 9481TIP3    H252639   1.064   0.644   9.907  1.1603 -0.8597  1.9817
 9482TIP3   OH252640   0.084   2.202  11.157  0.2121  0.5785 -0.7737
 9482TIP3    H152641   0.025   2.139  11.198 -1.1494  2.8179  0.9116
 9482TIP3    H252642   0.029   2.250  11.096  0.3134  2.4248  0.5208
 9483TIP3   OH252643   5.822   4.190  10.179  0.4286 -0.4287 -0.1519
 9483TIP3    H152644   5.883   4.158  10.112  1.1408  0.7422 -0.0994
 9483TIP3    H252645   5.757   4.241  10.130 -1.3287 -2.7074 -0.3638
 9484TIP3   OH252646   4.876   4.448  11.682  0.1496  0.2049 -0.4981
 9484TIP3    H152647   4.781   4.440  11.675  0.2915 -2.0322 -0.5533
 9484TIP3    H252648   4.901   4.505  11.610 -0.8697 -1.7796 -2.5221
 9485TIP3   OH252649   4.934   2.019  10.037  0.1885 -0.7422 -0.0410
 9485TIP3    H152650   4.985   2.029   9.957  1.1675  0.4631  0.7041
 9485TIP3    H252651   4.988   2.057  10.106 -0.6853 -1.6388  1.1894
 9486TIP3   OH252652   1.611   2.277  11.452  0.0584  0.4813  0.0831
 9486TIP3    H152653   1.571   2.202  11.497 -0.9235  2.0256  1.9303
 9486TIP3    H252654   1.654   2.326  11.522 -0.3515  2.2787 -0.8671
 9487TIP3   OH252655   4.157   5.052   9.448  0.3607 -0.2937 -0.1928
 9487TIP3    H152656   4.175   4.964   9.416  1.6540 -0.6080  1.2749
 9487TIP3    H252657   4.125   5.039   9.537 -1.3866  0.6395 -0.6406
 9488TIP3   OH252658   0.202   5.368  10.709  0.4838  0.6364  0.2798
 9488TIP3    H152659   0.222   5.376  10.802  0.4942  0.4873  0.2902
 9488TIP3    H252660   0.132   5.431  10.693 -0.1075  0.0532  0.5601
 9489TIP3   OH252661   1.896   4.216  11.993  0.2734 -0.4870 -0.5781
 9489TIP3    H152662   1.929   4.276  11.927 -0.6403  0.5675 -0.1194
 9489TIP3    H252663   1.974   4.179  12.034  0.8725  0.9376 -0.3958
 9490TIP3   OH252664   1.484   2.868   9.783 -0.1513 -0.2644  0.3853
 9490TIP3    H152665   1.424   2.868   9.708  0.0867  0.0298  0.1912
 9490TIP3    H252666   1.495   2.776   9.805  0.7534 -0.4452 -0.7270
 9491TIP3   OH252667   0.102   6.490   9.765  0.0456  0.0985  0.7354
 9491TIP3    H152668   0.072   6.486   9.674  1.4453 -1.2780  0.2659
 9491TIP3    H252669   0.071   6.408   9.803 -0.2800  0.5384  1.4165
 9492TIP3   OH252670   4.499   5.609   9.955  0.1834  0.2641  0.9160
 9492TIP3    H152671   4.551   5.646   9.884 -0.9406 -1.7010 -1.0417
 9492TIP3    H252672   4.413   5.595   9.917 -0.5288 -0.6633  2.7423
 9493TIP3   OH252673   1.203   4.079  11.350  0.0169 -0.5343 -0.0628
 9493TIP3    H152674   1.273   4.016  11.334 -0.7772 -1.2339 -0.8653
 9493TIP3    H252675   1.126   4.041  11.309 -0.3341  1.3057 -1.2577
 9494TIP3   OH252676   3.653   3.151   9.664 -0.2066 -0.0629 -0.6767
 9494TIP3    H152677   3.671   3.062   9.633 -0.0729  0.1985 -1.3601
 9494TIP3    H252678   3.739   3.193   9.668 -0.0761 -0.3980  1.0731
 9495TIP3   OH252679   1.472   2.378  10.646  0.3395 -0.3389 -0.0242
 9495TIP3    H152680   1.485   2.471  10.629  0.0897 -0.3945 -0.5398
 9495TIP3    H252681   1.395   2.355  10.594 -0.3952 -0.5424  1.0982
 9496TIP3   OH252682   5.409   1.521  12.442 -0.1461 -0.4027  0.0349
 9496TIP3    H152683   5.317   1.546  12.449 -0.1482 -0.4545  0.2050
 9496TIP3    H252684   5.456   1.604  12.440 -0.1927 -0.3765 -0.0083
 9497TIP3   OH252685   3.580   2.600  10.488 -0.5749  0.5325 -0.5389
 9497TIP3    H152686   3.636   2.653  10.544 -0.0312 -1.7561  1.2421
 9497TIP3    H252687   3.492   2.611  10.525 -0.6070  0.8241 -0.6974
 9498TIP3   OH252688   3.179   0.673  10.567  0.2069  0.0814 -0.0076
 9498TIP3    H152689   3.247   0.624  10.614  0.0543 -0.2118 -0.0856
 9498TIP3    H252690   3.222   0.705  10.488  0.5511  0.8522  0.4850
 9499TIP3   OH252691   3.004   1.075   9.685 -0.4832 -0.4827  0.1407
 9499TIP3    H152692   3.080   1.131   9.674 -0.0809 -0.4424  2.6413
 9499TIP3    H252693   3.000   1.024   9.604  1.4870  0.3372 -0.5294
 9500TIP3   OH252694   2.245   4.393  10.555 -0.2921  0.3391 -0.6848
 9500TIP3    H152695   2.164   4.342  10.557  0.5724 -1.0863  1.1244
 9500TIP3    H252696   2.232   4.455  10.483 -2.2583 -1.0264 -1.6257
 9501TIP3   OH252697   6.326   2.840   9.141  0.3238  0.2314  1.0798
 9501TIP3    H152698   6.356   2.927   9.167 -0.6788  2.1134 -3.1531
 9501TIP3    H252699   6.404   2.800   9.101  0.0237  0.5975  0.0879
 9502TIP3   OH252700   6.430   3.961  11.565  0.3401 -0.0125 -0.1406
 9502TIP3    H152701   6.387   3.882  11.531  1.8285 -1.4280  1.0686
 9502TIP3    H252702   6.384   3.980  11.647  0.1705  0.2213 -0.2878
 9503TIP3   OH252703   1.019   4.477  11.038 -0.0828  0.2803 -0.4158
 9503TIP3    H152704   1.106   4.470  10.999 -0.1893 -0.8541 -0.4830
 9503TIP3    H252705   1.033   4.461  11.132 -0.4181 -1.7355 -0.6616
 9504TIP3   OH252706   2.084   0.244  10.534  0.3155 -0.2101  0.1751
 9504TIP3    H152707   2.178   0.265  10.537  0.8739 -1.5781 -2.8838
 9504TIP3    H252708   2.081   0.149  10.541 -0.9197 -0.1266  0.8884
 9505TIP3   OH252709   3.927   1.567  12.145 -0.0831  0.3666  0.1511
 9505TIP3    H152710   4.023   1.573  12.142 -0.1716  1.6944 -0.7605
 9505TIP3    H252711   3.898   1.655  12.165 -1.1535  0.2195 -0.6888
 9506TIP3   OH252712   2.747   0.853  11.741 -0.1933  0.1780  0.3515
 9506TIP3    H152713   2.801   0.921  11.702  1.3508 -1.1762  0.0138
 9506TIP3    H252714   2.804   0.811  11.806 -1.4235 -0.1671  1.2511
 9507TIP3   OH252715   1.643   1.218  10.743  0.2857  0.0388 -0.0745
 9507TIP3    H152716   1.581   1.149  10.719  0.5453  0.2639 -1.4515
 9507TIP3    H252717   1.589   1.296  10.755 -0.0277 -0.4033  1.6384
 9508TIP3   OH252718   4.928   5.614  11.808 -0.0238  1.1187 -0.0019
 9508TIP3    H152719   5.020   5.604  11.832 -0.3679 -0.6129  0.6873
 9508TIP3    H252720   4.929   5.617  11.712  0.7076  0.6819 -0.0139
 9509TIP3   OH252721   0.976   0.873  10.956  0.6068  0.6228 -0.3525
 9509TIP3    H152722   0.882   0.892  10.954  0.3921 -0.3960 -0.4862
 9509TIP3    H252723   1.004   0.900  11.044 -0.0786 -0.2435  0.1475
 9510TIP3   OH252724   5.543   4.863  10.695  0.0008 -0.0134  0.0552
 9510TIP3    H152725   5.472   4.904  10.644  0.5910 -0.7365 -1.4190
 9510TIP3    H252726   5.596   4.936  10.725 -1.2083  0.5265  0.9624
 9511TIP3   OH252727   5.081   5.647  10.662  0.3717 -0.6006 -0.1585
 9511TIP3    H152728   5.073   5.554  10.640 -1.0198 -0.3401 -0.8765
 9511TIP3    H252729   5.002   5.666  10.713  2.0173 -0.4486  2.5323
 9512TIP3   OH252730   6.252   6.247   9.557 -0.3695 -0.2810 -0.1184
 9512TIP3    H152731   6.253   6.202   9.641  0.1031 -1.4774 -0.7482
 9512TIP3    H252732   6.344   6.265   9.538 -0.4094 -0.6696 -0.7106
 9513TIP3   OH252733   0.040   1.764  11.908 -0.1564 -0.0421  0.3851
 9513TIP3    H152734   0.113   1.734  11.961 -0.4765 -2.6663 -0.5097
 9513TIP3    H252735   0.044   1.710  11.829 -0.8839  2.3193 -1.4071
 9514TIP3   OH252736   5.125   4.474  11.360  0.1830  0.1590 -0.4963
 9514TIP3    H152737   5.205   4.477  11.414 -0.0771  2.2513 -0.1490
 9514TIP3    H252738   5.128   4.388  11.318  2.2966 -0.0663 -0.0076
 9515TIP3   OH252739   6.651   2.915   8.882  0.7891  0.4354 -0.2895
 9515TIP3    H152740   6.582   2.936   8.819 -0.3698  0.0554  0.8130
 9515TIP3    H252741   6.685   2.830   8.854 -0.7675 -0.4692  0.4308
 9516TIP3   OH252742   1.046   2.002   8.620  0.5523 -0.9578 -0.0341
 9516TIP3    H152743   1.117   1.939   8.625  1.1345 -0.3679 -0.7162
 9516TIP3    H252744   1.078   2.071   8.561 -0.6517 -0.7835 -0.5181
 9517TIP3   OH252745   0.895   0.251  11.789 -0.2658  0.3878 -0.6547
 9517TIP3    H152746   0.885   0.159  11.816  0.8575  0.8420  1.4956
 9517TIP3    H252747   0.920   0.297  11.868  1.1541  2.2491 -2.0936
 9518TIP3   OH252748   1.914   2.217   9.443 -0.4347 -0.4537  0.4076
 9518TIP3    H152749   1.933   2.290   9.384 -0.1940  0.5144  1.6368
 9518TIP3    H252750   1.858   2.159   9.393  0.8971 -0.3740 -1.2539
 9519TIP3   OH252751   1.023   1.865  10.585 -0.1198  0.3120 -0.2352
 9519TIP3    H152752   0.981   1.854  10.500  1.1610 -1.3069 -0.7204
 9519TIP3    H252753   1.021   1.778  10.625  1.5830  0.4640  0.2647
 9520TIP3   OH252754   5.243   4.539   8.831 -0.6473 -0.4525  0.2147
 9520TIP3    H152755   5.175   4.563   8.895 -0.2644 -1.2225  0.9412
 9520TIP3    H252756   5.310   4.495   8.884  1.1875  1.6320 -0.2175
 9521TIP3   OH252757   3.079   3.139   9.215  0.3948  0.0899 -0.4819
 9521TIP3    H152758   3.108   3.099   9.133 -0.1463 -2.9928  0.6834
 9521TIP3    H252759   3.119   3.085   9.283 -2.3248  0.0584  1.2505
 9522TIP3   OH252760   0.098   4.769  10.656 -0.0051  0.1198 -0.4506
 9522TIP3    H152761   0.191   4.760  10.679 -0.3902  0.0939  1.1979
 9522TIP3    H252762   0.081   4.863  10.661 -0.0489  0.1361 -0.8696
 9523TIP3   OH252763   5.869   0.773   9.006 -0.2636  0.4279  0.3102
 9523TIP3    H152764   5.947   0.825   8.991 -0.2058  0.6447  1.2601
 9523TIP3    H252765   5.854   0.726   8.924  2.2451 -1.4635  0.8093
 9524TIP3   OH252766   1.151   1.555   9.994 -0.8314 -0.8408 -0.5763
 9524TIP3    H152767   1.107   1.471  10.009 -1.1087 -0.6354 -0.2302
 9524TIP3    H252768   1.123   1.610  10.067 -0.2669 -0.5998 -0.5389
 9525TIP3   OH252769   0.082   1.996  10.812 -0.0192 -0.6473 -0.1736
 9525TIP3    H152770   0.054   1.913  10.772 -0.8103 -0.7857  0.6302
 9525TIP3    H252771   0.066   2.062  10.744  1.2143 -1.2118 -1.0504
 9526TIP3   OH252772   0.987   2.956  10.673 -0.1421  0.2811 -0.2136
 9526TIP3    H152773   1.071   2.940  10.716 -1.1413 -0.5686  1.5353
 9526TIP3    H252774   0.990   2.903  10.593  1.4067  1.1916 -0.8044
 9527TIP3   OH252775   6.086   1.765  10.223  0.0183 -0.0484  0.1191
 9527TIP3    H152776   6.163   1.763  10.165  2.3974  0.8932  2.9692
 9527TIP3    H252777   6.058   1.857  10.220  0.6393  0.1824  0.9734
 9528TIP3   OH252778   5.463   0.107  10.625  0.2392 -0.2807 -0.4530
 9528TIP3    H152779   5.374   0.128  10.597  0.3862 -0.7566 -1.3109
 9528TIP3    H252780   5.508   0.191  10.628  0.0014 -0.1399 -0.8714
 9529TIP3   OH252781   1.321   3.902   9.564 -0.0144 -0.3311 -0.3582
 9529TIP3    H152782   1.229   3.891   9.538  0.0630  1.8138 -1.7950
 9529TIP3    H252783   1.370   3.890   9.483  0.8698 -0.2960  0.1647
 9530TIP3   OH252784   0.899   1.904  13.394 -0.3056 -0.3262 -0.0406
 9530TIP3    H152785   0.946   1.970  13.344 -1.6675  0.4973 -0.2639
 9530TIP3    H252786   0.837   1.866  13.332  0.1173 -1.4776  0.2191
 9531TIP3   OH252787   5.054   3.036  11.115 -0.0796 -0.6031 -0.4258
 9531TIP3    H152788   5.040   3.125  11.145 -0.1003  0.1475 -2.4882
 9531TIP3    H252789   5.141   3.038  11.074  0.4628 -1.8649  0.5875
 9532TIP3   OH252790   0.570   5.271  10.668  0.2717  0.1995 -0.2047
 9532TIP3    H152791   0.646   5.224  10.634 -0.7173 -1.6497 -0.0036
 9532TIP3    H252792   0.551   5.230  10.752 -0.1633  1.5286  0.3774
 9533TIP3   OH252793   3.709   4.231   9.287  0.0006  0.2113 -0.3553
 9533TIP3    H152794   3.646   4.195   9.225  0.5158 -1.7940  0.2005
 9533TIP3    H252795   3.708   4.170   9.361  2.9887 -0.3244 -0.5963
 9534TIP3   OH252796   5.699   4.352   9.972 -0.2730 -0.4052  0.0196
 9534TIP3    H152797   5.787   4.341   9.936 -0.6490  1.7416 -1.7860
 9534TIP3    H252798   5.688   4.447   9.979 -1.9873 -0.6615  1.4841
 9535TIP3   OH252799   3.362   2.747   9.689 -0.0109 -0.2858  0.7471
 9535TIP3    H152800   3.396   2.836   9.678 -1.4848  0.1244 -0.9931
 9535TIP3    H252801   3.357   2.735   9.784  1.0426  1.1341  1.0241
 9536TIP3   OH252802   0.130   6.171  10.364 -0.4195  0.1287  0.0977
 9536TIP3    H152803   0.090   6.088  10.339 -1.4304  0.2679  1.1744
 9536TIP3    H252804   0.195   6.148  10.430  0.3991  0.0429 -0.7200
 9537TIP3   OH252805   0.171   4.082  10.282  0.4941  0.1665 -0.1914
 9537TIP3    H152806   0.104   4.140  10.319  0.2800  0.0494 -0.3872
 9537TIP3    H252807   0.248   4.137  10.272  0.3035  0.4108 -0.3400
 9538TIP3   OH252808   4.033   2.498  11.595  0.0316 -0.0365 -0.0482
 9538TIP3    H152809   3.976   2.558  11.548  0.0805 -0.8152 -1.1351
 9538TIP3    H252810   4.105   2.552  11.626  0.6235  0.3071 -1.9067
 9539TIP3   OH252811   4.885   6.180  10.876 -0.3237  0.0116  0.1733
 9539TIP3    H152812   4.944   6.135  10.816 -0.3285 -0.5746  0.5974
 9539TIP3    H252813   4.877   6.121  10.951 -0.0980  0.8470  0.8772
 9540TIP3   OH252814   5.275   6.645  10.448 -0.2680  0.3192 -0.0744
 9540TIP3    H152815   5.293   6.556  10.418 -0.4121  0.0126  0.7315
 9540TIP3    H252816   5.283   6.640  10.543  0.1422  1.2656 -0.0532
 9541TIP3   OH252817   5.727   5.003   9.742 -0.2104  0.0623  0.3523
 9541TIP3    H152818   5.649   5.027   9.693  1.0810  1.5790 -1.0696
 9541TIP3    H252819   5.799   5.008   9.679  0.9677 -2.0656  1.4106
 9542TIP3   OH252820   5.425   5.369  10.822 -0.2148  0.3635 -0.1250
 9542TIP3    H152821   5.431   5.273  10.820 -0.6348  0.3322 -2.4445
 9542TIP3    H252822   5.512   5.398  10.846  0.3068 -0.5883 -0.7796
 9543TIP3   OH252823   4.954   6.710  10.567  0.0021 -0.2223  0.0333
 9543TIP3    H152824   5.007   6.636  10.597 -0.0636 -0.2157  0.1635
 9543TIP3    H252825   4.864   6.684  10.586  0.0720  0.5615  1.5339
 9544TIP3   OH252826   3.560   6.310  10.605 -0.4646 -0.6249  0.3002
 9544TIP3    H152827   3.522   6.249  10.667 -0.1817 -0.3367  0.7704
 9544TIP3    H252828   3.637   6.265  10.571  0.1888 -0.2522  1.2254
 9545TIP3   OH252829   1.358   6.703   9.030 -0.1432  0.3194  0.3838
 9545TIP3    H152830   1.437   6.753   9.052  0.5991  0.3479 -2.0256
 9545TIP3    H252831   1.373   6.617   9.068  0.9496  0.3929  0.1611
 9546TIP3   OH252832   1.566   5.093  10.973 -0.2882  0.1740 -0.2526
 9546TIP3    H152833   1.616   5.014  10.994  0.0296  0.9879  2.4730
 9546TIP3    H252834   1.475   5.068  10.987 -0.2569  0.0820 -0.2113
 9547TIP3   OH252835   4.555   4.787  10.110 -0.3347 -0.5457  0.1641
 9547TIP3    H152836   4.506   4.705  10.118  0.4761 -0.9241  1.5452
 9547TIP3    H252837   4.492   4.849  10.073 -1.8597 -1.0445  1.7885
 9548TIP3   OH252838   5.245   5.046  11.407 -0.0715  0.2960  0.4906
 9548TIP3    H152839   5.162   5.052  11.454  0.4285  1.1911  1.3214
 9548TIP3    H252840   5.307   5.014  11.473  0.4348  0.5895  0.1663
 9549TIP3   OH252841   3.834   5.357  11.922  0.0300  0.2661  0.2542
 9549TIP3    H152842   3.885   5.375  12.002 -0.1697  2.4167 -0.0331
 9549TIP3    H252843   3.743   5.351  11.953  0.2221 -1.8127  0.5318
 9550TIP3   OH252844   5.218   4.762  10.538 -0.2810 -0.3771  0.0806
 9550TIP3    H152845   5.234   4.821  10.465 -2.4302  1.1227  0.7208
 9550TIP3    H252846   5.142   4.711  10.511  1.4110 -2.8316 -0.3769
 9551TIP3   OH252847   4.316   1.927  10.682  0.0069  0.1023  0.1423
 9551TIP3    H152848   4.378   1.905  10.751 -0.3724  2.5124  1.3707
 9551TIP3    H252849   4.367   1.979  10.620 -0.4664  1.1809  0.6155
 9552TIP3   OH252850   0.110   1.434  11.878  0.2075 -0.0666  0.4470
 9552TIP3    H152851   0.126   1.506  11.938  3.2850 -0.7206  0.5975
 9552TIP3    H252852   0.069   1.474  11.801 -0.4020  1.3866  1.5032
 9553TIP3   OH252853   0.577   2.142   9.668  0.3706  0.0896  0.2239
 9553TIP3    H152854   0.582   2.105   9.756  0.6392 -0.2149  0.0802
 9553TIP3    H252855   0.645   2.210   9.667 -1.8256  2.4863  1.3686
 9554TIP3   OH252856   4.760   3.089   8.719 -0.0650 -0.7339 -0.2375
 9554TIP3    H152857   4.768   3.006   8.766  1.8122  0.4526  1.7577
 9554TIP3    H252858   4.813   3.150   8.771 -1.1050  1.6285 -1.8126
 9555TIP3   OH252859   1.034   2.018  13.170  0.0634 -0.1987 -0.1535
 9555TIP3    H152860   1.085   2.067  13.106  0.7252 -0.1339  0.4071
 9555TIP3    H252861   1.065   1.927  13.160  1.0886  0.0041  0.9063
 9556TIP3   OH252862   2.334   4.296  11.167 -0.4976  0.2686  0.6362
 9556TIP3    H152863   2.355   4.370  11.223  3.6600  0.8264 -1.2731
 9556TIP3    H252864   2.355   4.327  11.078  0.4721 -2.8238 -0.3312
 9557TIP3   OH252865   5.360   5.785  12.042 -0.4892  0.1055 -0.7251
 9557TIP3    H152866   5.351   5.768  12.136 -0.2214  1.3535 -0.4581
 9557TIP3    H252867   5.455   5.790  12.027 -0.5421  0.5223 -0.9425
 9558TIP3   OH252868   3.772   1.771   9.110  0.1795  0.2317  0.0181
 9558TIP3    H152869   3.794   1.851   9.063  0.8324  0.2294  0.3001
 9558TIP3    H252870   3.687   1.789   9.151 -0.1310  0.4250 -0.7101
 9559TIP3   OH252871   4.936   4.368  10.838 -0.3730  0.2435  0.2341
 9559TIP3    H152872   4.947   4.380  10.744  0.4138 -2.7378 -0.1268
 9559TIP3    H252873   4.937   4.457  10.873  0.4759  1.3742 -2.4251
 9560TIP3   OH252874   0.731   3.667   8.785 -0.2231  0.2323  0.9958
 9560TIP3    H152875   0.788   3.618   8.844 -0.3108 -2.8178 -1.1707
 9560TIP3    H252876   0.787   3.735   8.747  2.0262 -2.3890 -0.7234
 9561TIP3   OH252877   2.749   1.648  10.560 -0.5278 -0.6497  0.1379
 9561TIP3    H152878   2.779   1.704  10.632 -2.6143  0.2896  0.3504
 9561TIP3    H252879   2.754   1.559  10.595  1.9251 -0.5780  0.1286
 9562TIP3   OH252880   1.111   0.486  10.164 -0.0371  0.0200 -0.0907
 9562TIP3    H152881   1.101   0.553  10.231  2.1993  0.3833 -0.0556
 9562TIP3    H252882   1.064   0.520  10.088 -2.6405 -0.4098  1.1970
 9563TIP3   OH252883   3.036   0.460  12.656 -0.1766  0.2551 -0.8444
 9563TIP3    H152884   3.061   0.451  12.564 -0.3199  0.3518 -0.8924
 9563TIP3    H252885   2.970   0.392  12.670  1.2606 -1.0907 -0.2978
 9564TIP3   OH252886   5.888   3.747  10.015  0.2394 -0.0360 -0.2880
 9564TIP3    H152887   5.848   3.758  10.101 -0.1451 -1.8983 -0.1774
 9564TIP3    H252888   5.982   3.752  10.032  0.1400  0.7755  0.0415
 9565TIP3   OH252889   2.110   2.509   9.931 -0.8088  0.1902  0.1208
 9565TIP3    H152890   2.105   2.493   9.837  0.0131  1.5237 -0.1811
 9565TIP3    H252891   2.188   2.460   9.960 -1.5149 -0.8720  0.2815
 9566TIP3   OH252892   5.372   0.211   9.566  0.3717  0.2841  0.3554
 9566TIP3    H152893   5.288   0.244   9.598  1.2951 -0.0076  3.4219
 9566TIP3    H252894   5.352   0.123   9.534 -0.4512  0.0217  1.5176
 9567TIP3   OH252895   4.628   2.148   8.793  0.1439  0.0102  0.5018
 9567TIP3    H152896   4.624   2.229   8.741 -0.7798 -0.4965 -0.2579
 9567TIP3    H252897   4.586   2.170   8.876 -0.5516  0.1831  0.1077
 9568TIP3   OH252898   3.858   3.825  10.186  0.1913 -0.0687 -0.0452
 9568TIP3    H152899   3.787   3.885  10.209  0.1901  1.0154 -2.5268
 9568TIP3    H252900   3.816   3.756  10.135  0.4504 -1.3692  1.4288
 9569TIP3   OH252901   5.770   3.842   9.789  0.1026  0.1287 -0.3667
 9569TIP3    H152902   5.853   3.840   9.837 -1.2288  0.3673  2.1299
 9569TIP3    H252903   5.706   3.808   9.852 -2.1641  2.5440 -1.2002
 9570TIP3   OH252904   3.898   6.357  10.959 -0.1652  0.0854  0.0028
 9570TIP3    H152905   3.971   6.319  11.008 -0.5185 -1.8650 -0.8606
 9570TIP3    H252906   3.872   6.288  10.898 -0.3764  2.0559 -2.2850
 9571TIP3   OH252907   4.322   3.181   8.895 -0.8459 -0.2482  0.3446
 9571TIP3    H152908   4.388   3.246   8.921 -2.2288  0.1809  3.1210
 9571TIP3    H252909   4.369   3.122   8.835  1.9072  0.3164  1.7906
 9572TIP3   OH252910   0.752   4.883  11.957  0.0244  0.5182 -0.6294
 9572TIP3    H152911   0.714   4.962  11.917  1.1323  2.0041  1.1095
 9572TIP3    H252912   0.711   4.878  12.043  2.2232  1.0391  0.5089
 9573TIP3   OH252913   2.877   4.859  11.855  0.4969  0.0443 -0.3192
 9573TIP3    H152914   2.966   4.877  11.823  0.1158  1.3765 -0.7343
 9573TIP3    H252915   2.887   4.786  11.915  1.6211 -0.9417 -1.6395
 9574TIP3   OH252916   2.486   5.611   8.843  0.0678  0.1509 -0.0146
 9574TIP3    H152917   2.564   5.556   8.850  1.1195  1.6642  0.7866
 9574TIP3    H252918   2.455   5.618   8.933 -1.3598 -0.8748 -0.3907
 9575TIP3   OH252919   1.888   5.374  10.642  0.2969  0.0109 -0.4521
 9575TIP3    H152920   1.912   5.462  10.672  0.6009 -0.0889 -0.4017
 9575TIP3    H252921   1.919   5.316  10.711  0.9095 -0.2154 -0.9136
 9576TIP3   OH252922   6.465   3.123  11.908 -0.5980  0.2260 -0.4896
 9576TIP3    H152923   6.415   3.202  11.929  1.7276  2.0531 -1.3943
 9576TIP3    H252924   6.520   3.107  11.985  1.5126  1.6851 -1.6078
 9577TIP3   OH252925   1.245   3.998   9.163 -0.4069 -0.1964 -0.3887
 9577TIP3    H152926   1.213   3.914   9.131 -1.4722  0.3308 -0.7627
 9577TIP3    H252927   1.274   4.045   9.085  2.1464 -0.9775  0.0230
 9578TIP3   OH252928   2.753   0.198  11.993  0.6446 -0.5287  0.8546
 9578TIP3    H152929   2.840   0.229  12.018  0.1565  2.2033 -0.4597
 9578TIP3    H252930   2.692   0.255  12.040 -0.3403 -0.0334 -0.9259
 9579TIP3   OH252931   4.731   6.603  11.357 -0.9000 -0.0452 -0.4627
 9579TIP3    H152932   4.707   6.530  11.414 -1.4294  0.5305  0.0667
 9579TIP3    H252933   4.808   6.642  11.398 -0.2498 -0.6717 -1.0753
 9580TIP3   OH252934   1.123   5.139  11.319  0.8323 -0.1355 -0.3086
 9580TIP3    H152935   1.192   5.102  11.265 -0.3277 -0.0551 -1.9271
 9580TIP3    H252936   1.053   5.161  11.257 -1.5715 -2.2827  1.4422
 9581TIP3   OH252937   6.097   6.246   9.331  0.3298 -0.2785  0.3106
 9581TIP3    H152938   6.115   6.334   9.298 -0.6223  0.3849  1.4259
 9581TIP3    H252939   6.155   6.236   9.407 -0.0630 -0.3048  0.6175
 9582TIP3   OH252940   5.147   0.846   9.184  0.5095 -0.1665  0.0504
 9582TIP3    H152941   5.121   0.868   9.273  0.4583  0.7839 -0.1957
 9582TIP3    H252942   5.067   0.853   9.132  0.7493  0.3502 -0.2613
 9583TIP3   OH252943   4.024   0.898  11.425 -0.1074 -0.4645 -0.3522
 9583TIP3    H152944   4.074   0.856  11.355 -0.7280 -1.9231  0.0197
 9583TIP3    H252945   4.060   0.861  11.506  0.2625  0.8132  0.0894
 9584TIP3   OH252946   0.244   6.168   9.653  0.8002 -0.9751  0.2944
 9584TIP3    H152947   0.300   6.219   9.594  0.9801  0.1916  1.4387
 9584TIP3    H252948   0.304   6.135   9.720  0.2570 -0.2419  1.1712
 9585TIP3   OH252949   0.366   3.589   9.487 -0.3173  0.0755  0.0500
 9585TIP3    H152950   0.447   3.606   9.536  1.2997 -2.3110 -1.5922
 9585TIP3    H252951   0.297   3.591   9.554  1.6498 -2.1546  2.3478
 9586TIP3   OH252952   3.623   4.462   9.419  0.1178 -0.1689  0.3346
 9586TIP3    H152953   3.694   4.509   9.463  0.0572  0.2141  0.0327
 9586TIP3    H252954   3.661   4.378   9.395  0.1953 -0.3246  0.9766
 9587TIP3   OH252955   5.448   1.918  10.519  0.0680 -0.4676  0.1653
 9587TIP3    H152956   5.509   1.844  10.520 -1.0456 -1.4932  2.8644
 9587TIP3    H252957   5.367   1.883  10.483  0.6799  0.6293 -2.4742
 9588TIP3   OH252958   4.957   3.973  10.381  0.2471  0.2713 -0.1306
 9588TIP3    H152959   4.945   3.878  10.385  2.9974 -0.1548 -0.0745
 9588TIP3    H252960   4.933   4.004  10.468 -0.9092 -0.3199 -0.2224
 9589TIP3   OH252961   1.159   0.836  11.434  0.0687 -0.2469  0.1272
 9589TIP3    H152962   1.092   0.776  11.402 -0.3203  1.1303 -1.8471
 9589TIP3    H252963   1.242   0.795  11.407 -0.1793 -0.0858 -0.9456
 9590TIP3   OH252964   4.908   4.189   8.800 -0.1572 -0.3559 -0.1645
 9590TIP3    H152965   4.896   4.259   8.736  0.1176 -0.9639 -0.8914
 9590TIP3    H252966   4.839   4.126   8.780 -0.1499 -0.4940  0.2322
 9591TIP3   OH252967   5.576   4.870  11.099  0.1256  0.1273 -0.3747
 9591TIP3    H152968   5.666   4.854  11.127 -0.2214  1.6825  1.9923
 9591TIP3    H252969   5.562   4.964  11.116 -2.2115 -0.2829  0.3533
 9592TIP3   OH252970   5.863   5.571  10.952 -0.0835 -0.1235 -0.2501
 9592TIP3    H152971   5.948   5.535  10.979  0.9859  0.7558 -2.2549
 9592TIP3    H252972   5.884   5.654  10.910 -2.1971  1.3350  1.3028
 9593TIP3   OH252973   5.680   6.602  10.965  0.2795 -0.2469 -0.0559
 9593TIP3    H152974   5.649   6.550  11.039  0.5838 -2.5041 -1.4441
 9593TIP3    H252975   5.705   6.538  10.899  0.1197  1.6903 -2.1069
 9594TIP3   OH252976   0.595   1.904   9.527  0.3285  0.1323  0.2691
 9594TIP3    H152977   0.591   1.976   9.590  2.6998 -1.0195  1.8964
 9594TIP3    H252978   0.506   1.871   9.522 -1.3997  4.3403 -2.1712
 9595TIP3   OH252979   0.999   3.451   9.564  0.1152  0.5244  0.1080
 9595TIP3    H152980   0.961   3.475   9.479 -0.0232 -1.3781 -0.4123
 9595TIP3    H252981   1.054   3.526   9.588  0.0775  1.1477 -1.6126
 9596TIP3   OH252982   1.302   6.628  10.454  0.2010 -0.8808  0.6346
 9596TIP3    H152983   1.317   6.547  10.406  0.3348 -0.2287 -0.4708
 9596TIP3    H252984   1.322   6.607  10.545  2.7302 -1.4692  0.0356
 9597TIP3   OH252985   2.992   0.424  11.223  0.4082 -0.0413  0.5573
 9597TIP3    H152986   3.078   0.382  11.224  0.8660  0.7784 -1.2396
 9597TIP3    H252987   2.931   0.352  11.206  0.8169 -0.4980  0.9977
 9598TIP3   OH252988   6.109   4.204  12.222  0.5866  0.1468  0.0679
 9598TIP3    H152989   6.172   4.201  12.150 -0.2127  1.2267 -0.7025
 9598TIP3    H252990   6.126   4.125  12.272  1.1541 -0.6409 -1.3220
 9599TIP3   OH252991   3.048   4.462  10.708 -0.4081 -0.3840  0.0589
 9599TIP3    H152992   3.136   4.499  10.704 -0.9431  1.0625  1.1610
 9599TIP3    H252993   3.039   4.414  10.626  0.6620  1.1627 -1.0157
 9600TIP3   OH252994   3.256   5.315  11.371 -0.4701 -0.8216  0.0729
 9600TIP3    H152995   3.214   5.400  11.379 -0.4426 -0.8299  0.3175
 9600TIP3    H252996   3.311   5.322  11.292  0.7090 -0.0945  0.9313
 9601TIP3   OH252997   4.364   4.604  10.192  0.0451 -0.2681 -0.2403
 9601TIP3    H152998   4.343   4.530  10.135  1.1847  0.8750 -2.2418
 9601TIP3    H252999   4.302   4.596  10.264  0.3319 -3.3318 -0.1970
 9602TIP3   OH253000   6.065   3.828  10.545 -0.5091  0.3016 -0.0535
 9602TIP3    H153001   6.045   3.901  10.486  1.5548  0.4555 -0.6396
 9602TIP3    H253002   6.067   3.751  10.489  0.9680  0.3755 -0.1550
 9603TIP3   OH253003   4.182   2.744   9.131 -0.2718  0.4760  0.1580
 9603TIP3    H153004   4.133   2.824   9.110 -0.2934  0.5421  0.4527
 9603TIP3    H253005   4.271   2.763   9.101 -0.3663  0.4575 -0.1365
 9604TIP3   OH253006   4.777   2.128   9.174  0.2828  0.5369 -0.6188
 9604TIP3    H153007   4.833   2.201   9.200  1.2844 -0.1933 -0.6396
 9604TIP3    H253008   4.690   2.152   9.206  0.7169  1.4459 -0.0643
 9605TIP3   OH253009   0.415   4.918  11.015  0.0397 -0.7610 -1.0088
 9605TIP3    H153010   0.400   4.913  10.921  0.6084 -0.1142 -1.1391
 9605TIP3    H253011   0.501   4.959  11.024 -0.8582  1.0821 -0.1969
 9606TIP3   OH253012   4.355   3.717  12.485 -0.4543  0.5598 -0.0463
 9606TIP3    H153013   4.350   3.794  12.542  0.8026 -0.5926  1.7080
 9606TIP3    H253014   4.267   3.708  12.449 -0.5654  2.9910 -0.5838
 9607TIP3   OH253015   4.974   4.632  10.906 -0.3524 -0.0689 -0.4197
 9607TIP3    H153016   5.051   4.676  10.869  0.2227  0.0403  0.8295
 9607TIP3    H253017   4.970   4.663  10.996 -1.4192 -0.6756 -0.2376
 9608TIP3   OH253018   4.845   4.319   9.034 -0.1104  0.1213  0.2912
 9608TIP3    H153019   4.902   4.281   8.967  1.2504  0.0306  1.4472
 9608TIP3    H253020   4.768   4.262   9.036  0.5853 -0.8465 -0.0512
 9609TIP3   OH253021   4.296   0.741   9.165  0.0014 -0.3100  0.3311
 9609TIP3    H153022   4.298   0.806   9.095 -0.0594  0.2494  0.8481
 9609TIP3    H253023   4.360   0.772   9.229 -0.3285 -0.5397  0.7764
 9610TIP3   OH253024   2.601   0.733  10.808 -0.3260 -0.0620  0.5901
 9610TIP3    H153025   2.621   0.801  10.744 -2.4247 -1.7527 -2.0801
 9610TIP3    H253026   2.638   0.653  10.770 -4.1507 -1.6789 -0.2628
 9611TIP3   OH253027   5.569   2.221  11.015  0.0462 -0.4829 -0.0001
 9611TIP3    H153028   5.616   2.274  10.951 -1.3714 -1.3659 -1.8560
 9611TIP3    H253029   5.588   2.131  10.989 -2.3239 -0.8617 -0.6004
 9612TIP3   OH253030   0.413   5.463  11.317 -0.5294  0.1105 -0.3776
 9612TIP3    H153031   0.479   5.441  11.382 -0.3547 -0.6276 -0.7882
 9612TIP3    H253032   0.330   5.437  11.357 -0.9406  3.4899  1.2504
 9613TIP3   OH253033   0.581   0.597  10.133 -0.1964 -0.2725  0.7162
 9613TIP3    H153034   0.491   0.566  10.134 -0.6437  0.9021  2.4764
 9613TIP3    H253035   0.577   0.682  10.177  1.7782 -0.2285  0.8920
 9614TIP3   OH253036   3.284   5.337  10.019  0.3108  0.1932  0.2291
 9614TIP3    H153037   3.249   5.408  10.074 -2.1226  1.1245 -2.2848
 9614TIP3    H253038   3.219   5.326   9.950  1.4424 -3.3759 -0.4901
 9615TIP3   OH253039   5.722   5.059  10.126 -0.0604  0.4535  0.1490
 9615TIP3    H153040   5.777   5.033  10.052 -0.0674 -0.5093  0.4678
 9615TIP3    H253041   5.728   5.154  10.128  1.8566  0.3766  0.3532
 9616TIP3   OH253042   1.731   4.302   9.716 -0.6071  0.0920 -0.1670
 9616TIP3    H153043   1.666   4.257   9.663 -0.8762  0.1335  0.1253
 9616TIP3    H253044   1.765   4.371   9.660  0.0883 -0.7055 -0.7670
 9617TIP3   OH253045   0.697   1.451  10.593 -0.0129 -0.6907  0.4907
 9617TIP3    H153046   0.747   1.528  10.622  0.3394 -1.2261  1.3585
 9617TIP3    H253047   0.610   1.463  10.630 -1.1194  1.0603 -2.3726
 9618TIP3   OH253048   0.913   3.274   9.317 -0.4256  0.1621 -0.6408
 9618TIP3    H153049   0.900   3.228   9.234  0.0598  0.9877 -1.1809
 9618TIP3    H253050   1.004   3.304   9.314 -0.5091  0.4998  0.0340
 9619TIP3   OH253051   5.404   0.293  12.179 -0.2873 -0.9065 -0.5436
 9619TIP3    H153052   5.343   0.275  12.251  0.8118 -1.2479  0.3203
 9619TIP3    H253053   5.405   0.389  12.173 -0.3009 -0.8683 -0.0307
 9620TIP3   OH253054   3.737   2.841   8.927 -0.1327 -0.1259 -0.4345
 9620TIP3    H153055   3.656   2.823   8.975  0.7256 -0.5392  0.9192
 9620TIP3    H253056   3.763   2.756   8.892  1.8729 -1.0037  2.7037
 9621TIP3   OH253057   5.657   4.907  10.352 -0.1449  0.5910 -0.6002
 9621TIP3    H153058   5.735   4.925  10.299  1.0311 -0.4130  0.7326
 9621TIP3    H253059   5.642   4.813  10.342 -1.4229  0.8255 -1.1084
 9622TIP3   OH253060   0.475   1.556  12.240 -0.4965  0.2141  0.7343
 9622TIP3    H153061   0.547   1.503  12.275 -0.2149 -0.7843 -1.2073
 9622TIP3    H253062   0.396   1.506  12.262 -0.3683 -0.1180  0.4432
 9623TIP3   OH253063   4.645   1.607   9.043  0.3103 -0.2350  0.7367
 9623TIP3    H153064   4.645   1.694   9.001  1.8306  0.0349  1.2403
 9623TIP3    H253065   4.733   1.597   9.078  0.0643 -1.8723  0.9707
 9624TIP3   OH253066   6.458   4.312  10.637 -0.1407 -0.1175 -0.4646
 9624TIP3    H153067   6.416   4.232  10.666  0.0101 -0.0309 -0.0013
 9624TIP3    H253068   6.504   4.345  10.715  0.8648 -0.2674 -0.9688
 9625TIP3   OH253069   4.353   4.649   9.558  0.7813 -0.3287  0.1905
 9625TIP3    H153070   4.416   4.688   9.499  0.7081  0.3066  0.5271
 9625TIP3    H253071   4.406   4.594   9.617  1.2035  1.1718  1.2750
 9626TIP3   OH253072   0.899   1.732   9.887 -0.8771  0.0656  0.8064
 9626TIP3    H153073   0.861   1.739   9.974 -1.0877  2.1016  0.5995
 9626TIP3    H253074   0.844   1.669   9.841 -1.4549 -0.1592  1.7987
 9627TIP3   OH253075   4.643   6.290  10.176 -0.2179  0.2230  0.3075
 9627TIP3    H153076   4.735   6.288  10.150 -0.2643  0.1385  0.1504
 9627TIP3    H253077   4.594   6.286  10.094 -0.3802 -1.3186  0.4454
 9628TIP3   OH253078   5.511   4.285  10.298 -0.3688 -0.5096 -0.2263
 9628TIP3    H153079   5.473   4.278  10.210 -1.7258 -1.5071  0.4181
 9628TIP3    H253080   5.446   4.335  10.348  0.9550  1.1611 -0.0617
 9629TIP3   OH253081   5.163   4.526   8.559 -0.2777  0.7221 -0.3285
 9629TIP3    H153082   5.180   4.603   8.505 -0.5214  0.8379 -0.2454
 9629TIP3    H253083   5.217   4.539   8.637 -1.3674  1.5151  0.3303
 9630TIP3   OH253084   4.889   1.190  10.443  0.1139 -0.1899 -0.0403
 9630TIP3    H153085   4.878   1.175  10.350 -0.3215 -0.1066 -0.0056
 9630TIP3    H253086   4.800   1.192  10.478  0.1607  1.5149  0.0974
 9631TIP3   OH253087   1.404   3.256   8.919 -0.0554 -0.5530 -0.9366
 9631TIP3    H153088   1.346   3.182   8.934  0.0792 -0.2847  1.2047
 9631TIP3    H253089   1.480   3.219   8.873 -0.8140 -1.3476 -1.5873
 9632TIP3   OH253090   5.233   3.165   9.528  0.4549  0.2060  0.3189
 9632TIP3    H153091   5.287   3.140   9.603  0.2540  1.5530  0.9594
 9632TIP3    H253092   5.263   3.109   9.456  1.2517 -0.5116  1.1856
 9633TIP3   OH253093   5.624   6.677   9.653  0.2840  0.5179 -0.1433
 9633TIP3    H153094   5.627   6.582   9.662 -0.9257  0.3520 -1.1944
 9633TIP3    H253095   5.667   6.695   9.570  0.0580  0.8397 -0.1933
 9634TIP3   OH253096   3.784   2.111  11.485 -0.1163  0.0626  0.5552
 9634TIP3    H153097   3.699   2.138  11.450  0.2922  2.0620  0.9623
 9634TIP3    H253098   3.840   2.103  11.408 -0.0042  1.4262  0.4740
 9635TIP3   OH253099   2.690   1.967  10.274 -0.2377  0.3574  0.1623
 9635TIP3    H153100   2.750   1.988  10.346 -2.2472  1.4968  1.6027
 9635TIP3    H253101   2.639   1.893  10.305  1.3634 -1.6756 -1.7007
 9636TIP3   OH253102   6.497   3.949  12.295 -0.3327  0.3868  0.1110
 9636TIP3    H153103   6.532   3.870  12.254  0.4370  1.2469 -0.9554
 9636TIP3    H253104   6.402   3.940  12.288 -0.2528 -0.5319  0.1703
 9637TIP3   OH253105   6.000   1.076   9.740 -0.4512 -0.0266 -0.6256
 9637TIP3    H153106   6.062   1.074   9.668  0.3647 -0.8882  0.0766
 9637TIP3    H253107   6.052   1.098   9.817 -0.9550 -0.9557  0.0076
 9638TIP3   OH253108   0.839   1.508  11.512 -0.3629 -0.1544 -0.5316
 9638TIP3    H153109   0.746   1.530  11.517 -0.2871 -0.0399  0.6840
 9638TIP3    H253110   0.884   1.593  11.509 -0.3197 -0.1758 -2.8451
 9639TIP3   OH253111   2.318   0.037  10.491 -0.0399  0.0655  0.3286
 9639TIP3    H153112   2.386   0.054  10.557 -0.7182  1.0997  0.7787
 9639TIP3    H253113   2.318   0.114  10.435 -2.3674  1.1674  1.7017
 9640TIP3   OH253114   4.513   0.405  11.012  0.2410 -0.3390  0.2278
 9640TIP3    H153115   4.584   0.344  10.994 -0.5012 -0.9087 -0.8134
 9640TIP3    H253116   4.439   0.350  11.037 -0.0092  0.2189  0.7497
 9641TIP3   OH253117   1.454   5.837  10.521 -0.1336 -0.0511  0.1196
 9641TIP3    H153118   1.393   5.763  10.528 -0.5303  0.3666  1.3216
 9641TIP3    H253119   1.539   5.796  10.504 -0.6324 -0.6689 -1.0330
 9642TIP3   OH253120   1.838   3.783  10.419  0.0331  0.7951 -0.0826
 9642TIP3    H153121   1.772   3.724  10.383  0.9583 -0.3727  0.0899
 9642TIP3    H253122   1.821   3.783  10.513 -0.0172  0.8551 -0.0919
 9643TIP3   OH253123   1.186   2.025   9.609 -0.0949  0.0766 -0.7938
 9643TIP3    H153124   1.155   1.941   9.578 -0.0014 -0.3547  0.2420
 9643TIP3    H253125   1.259   2.004   9.667 -1.9507  0.6301  1.8969
 9644TIP3   OH253126   4.229   5.557  10.436 -0.2219  0.0612  0.6047
 9644TIP3    H153127   4.207   5.596  10.352  1.1868  0.9280  0.6003
 9644TIP3    H253128   4.175   5.604  10.500 -1.1634 -0.4787  0.2221
 9645TIP3   OH253129   1.021   2.050  11.702  0.2021 -0.0239  0.2733
 9645TIP3    H153130   1.051   2.111  11.634 -2.4120 -0.4039 -1.4061
 9645TIP3    H253131   0.941   2.011  11.665 -0.6233 -1.2619  3.0659
 9646TIP3   OH253132   3.350   3.403   9.970  0.1549 -0.0502  0.4458
 9646TIP3    H153133   3.439   3.397  10.006  0.6872  2.3975 -0.2600
 9646TIP3    H253134   3.320   3.489   9.995 -0.4109  0.8104 -2.7065
 9647TIP3   OH253135   4.809   1.792   8.889 -0.2070 -0.1762 -0.3241
 9647TIP3    H153136   4.869   1.852   8.844  1.0486 -0.9917  0.2167
 9647TIP3    H253137   4.724   1.809   8.848 -0.3093  3.1899  0.9543
 9648TIP3   OH253138   5.084   3.822   9.181  0.4660 -0.7350  0.4386
 9648TIP3    H153139   5.155   3.858   9.233  0.4377 -0.8932  0.5875
 9648TIP3    H253140   5.119   3.818   9.092  0.9359 -1.5725  0.6493
 9649TIP3   OH253141   1.247   2.282  11.242 -0.2375 -0.0773  0.3930
 9649TIP3    H153142   1.206   2.210  11.195 -0.7798 -0.6168  1.6627
 9649TIP3    H253143   1.286   2.336  11.173 -0.5814 -1.0996 -0.6338
 9650TIP3   OH253144   5.791   1.241   9.665  0.3847  0.0864  0.2065
 9650TIP3    H153145   5.866   1.193   9.700  0.5764 -0.7057 -1.2077
 9650TIP3    H253146   5.828   1.321   9.627  0.3254  0.3713  0.7405
 9651TIP3   OH253147   1.613   0.839  12.508  0.8811  0.0115 -0.5776
 9651TIP3    H153148   1.582   0.890  12.582  1.5126  0.7283 -0.7967
 9651TIP3    H253149   1.603   0.748  12.536 -1.9400  0.1660 -0.8686
 9652TIP3   OH253150   2.537   0.301  10.987 -0.7439  0.4781 -0.5906
 9652TIP3    H153151   2.452   0.327  10.952 -1.7666 -2.1534 -0.3235
 9652TIP3    H253152   2.567   0.377  11.036 -3.3864  1.1830  0.1046
 9653TIP3   OH253153   5.726   4.371   8.677 -0.6141  0.3253 -0.4665
 9653TIP3    H153154   5.692   4.282   8.687  0.9009 -0.3210 -0.7357
 9653TIP3    H253155   5.819   4.359   8.656 -0.4912  1.9654 -1.0189
 9654TIP3   OH253156   0.649   0.779   8.882  0.0025  0.5701 -0.1340
 9654TIP3    H153157   0.681   0.709   8.938 -1.3368 -0.1564 -0.2293
 9654TIP3    H253158   0.568   0.745   8.844  0.5591  1.2657 -2.0771
 9655TIP3   OH253159   3.229   0.850  11.987 -0.0602 -0.0844 -0.3418
 9655TIP3    H153160   3.221   0.945  11.999 -1.6500 -0.2113 -0.2075
 9655TIP3    H253161   3.296   0.823  12.050 -0.4379  0.7900  0.4497
 9656TIP3   OH253162   0.123   1.300  11.407  0.1730 -0.5757  0.0225
 9656TIP3    H153163   0.116   1.205  11.398 -1.5040 -0.4936  0.1923
 9656TIP3    H253164   0.088   1.335  11.325  2.2217 -0.0777 -0.7155
 9657TIP3   OH253165   5.390   2.680  10.165 -0.4456  0.2002 -0.5053
 9657TIP3    H153166   5.384   2.607  10.227 -0.6923  1.9456  1.6628
 9657TIP3    H253167   5.473   2.667  10.120  0.1001 -0.7453  0.7179
 9658TIP3   OH253168   2.940   5.922   9.591 -0.2137  0.2441 -0.7164
 9658TIP3    H153169   2.989   5.963   9.520 -0.6231  1.7262 -0.1837
 9658TIP3    H253170   2.943   5.828   9.572  1.3001  0.4550 -1.6462
 9659TIP3   OH253171   2.604   2.306  10.138 -0.6444  0.1565 -0.0525
 9659TIP3    H153172   2.675   2.353  10.182 -0.0762 -1.0767  0.3733
 9659TIP3    H253173   2.648   2.237  10.088 -1.5585 -0.9574  0.6290
 9660TIP3   OH253174   3.612   1.668  10.393  0.7403  0.1341 -0.1876
 9660TIP3    H153175   3.547   1.661  10.323 -1.0904 -0.7269  1.4924
 9660TIP3    H253176   3.632   1.578  10.416  2.5771  0.3891 -0.6489
 9661TIP3   OH253177   3.325   2.646   9.971  0.9159  0.0735  0.1835
 9661TIP3    H153178   3.297   2.695  10.048 -1.9506  0.3860 -0.9424
 9661TIP3    H253179   3.268   2.569   9.970  1.3728 -0.2752 -1.2680
 9662TIP3   OH253180   0.710   3.362  12.544 -0.2352  0.0325  0.4463
 9662TIP3    H153181   0.709   3.428  12.475 -1.1668  0.5785  0.9603
 9662TIP3    H253182   0.714   3.279  12.498  0.0214  0.4174 -0.2378
 9663TIP3   OH253183   5.657   2.944  10.636  0.0823 -0.1028  0.0093
 9663TIP3    H153184   5.746   2.946  10.670 -0.3121  1.3378  1.0543
 9663TIP3    H253185   5.638   2.851  10.623  1.8880 -0.4031 -0.7175
 9664TIP3   OH253186   0.404   2.371   9.274 -0.1546 -0.0962  0.2321
 9664TIP3    H153187   0.317   2.341   9.250 -1.1061  2.3157  0.3532
 9664TIP3    H253188   0.424   2.325   9.356 -0.1352 -2.6088 -1.1003
 9665TIP3   OH253189   4.454   4.014  10.993 -0.1386  0.1891  0.4403
 9665TIP3    H153190   4.482   4.085  10.935  0.9337  0.9862  1.8844
 9665TIP3    H253191   4.522   3.948  10.984  1.6957  1.5634  2.9337
 9666TIP3   OH253192   3.407   1.489  10.577  0.4737 -0.1666  0.4517
 9666TIP3    H153193   3.447   1.436  10.509  0.9816 -1.0885  1.4338
 9666TIP3    H253194   3.474   1.495  10.645  0.5464  1.9953  0.2720
 9667TIP3   OH253195   4.131   0.452  10.808 -0.5385 -0.5034  0.2528
 9667TIP3    H153196   4.202   0.513  10.829  0.2593 -0.8801 -1.1937
 9667TIP3    H253197   4.075   0.452  10.885 -0.1664  1.5060  0.5698
 9668TIP3   OH253198   6.206   1.872   8.776 -0.2081 -0.0615  0.3318
 9668TIP3    H153199   6.206   1.876   8.680 -1.2814  0.1996  0.3284
 9668TIP3    H253200   6.295   1.846   8.799  0.2004  0.3692 -0.7133
 9669TIP3   OH253201   3.634   1.192  11.807  0.1078 -0.0297 -0.0283
 9669TIP3    H153202   3.666   1.259  11.868 -0.7767  1.7582 -1.4190
 9669TIP3    H253203   3.713   1.147  11.777  1.0444  2.0205 -0.8375
 9670TIP3   OH253204   1.064   0.028   8.927 -0.5047 -0.0429  0.6407
 9670TIP3    H153205   1.153   0.003   8.952  0.1329 -0.2913 -1.7283
 9670TIP3    H253206   1.072   0.117   8.893 -0.9366 -0.5199 -0.7389
 9671TIP3   OH253207   5.660   3.558   9.187 -0.0827  0.2292  0.0082
 9671TIP3    H153208   5.753   3.570   9.205  0.4716 -2.2779 -0.7638
 9671TIP3    H253209   5.636   3.478   9.235 -1.1624 -0.6322 -1.8445
 9672TIP3   OH253210   2.743   4.318   9.058 -0.5848  0.0390 -0.3399
 9672TIP3    H153211   2.676   4.249   9.062 -0.1468 -0.3443  0.7445
 9672TIP3    H253212   2.819   4.275   9.020 -0.5180  0.1047 -0.2792
 9673TIP3   OH253213   4.297   5.088  11.337  0.6826 -0.1723 -0.1047
 9673TIP3    H153214   4.250   5.006  11.320  0.1353  0.0916  0.1221
 9673TIP3    H253215   4.376   5.061  11.384  1.2303 -0.7105 -1.2954
 9674TIP3   OH253216   6.299   4.395   8.493  0.0450  0.5378  0.4174
 9674TIP3    H153217   6.289   4.488   8.475 -1.3442  0.3401  0.0869
 9674TIP3    H253218   6.384   4.388   8.537 -0.0293  2.0029  0.8261
 9675TIP3   OH253219   1.617   4.562  11.814 -0.3180  0.1178  0.0642
 9675TIP3    H153220   1.692   4.549  11.872 -0.0277  1.9430  0.1403
 9675TIP3    H253221   1.584   4.649  11.836 -1.0411  0.2931 -1.5658
 9676TIP3   OH253222   0.517   3.796  10.902 -0.4092  0.1285 -0.0266
 9676TIP3    H153223   0.472   3.878  10.919  0.6311  0.1950  3.1010
 9676TIP3    H253224   0.577   3.816  10.831 -0.6018  1.9308  0.2651
 9677TIP3   OH253225   4.838   5.191  11.397  0.2351  1.0505  0.1378
 9677TIP3    H153226   4.904   5.157  11.459  0.0480  0.1824 -0.1188
 9677TIP3    H253227   4.890   5.233  11.329  0.4829  1.2672  0.4551
 9678TIP3   OH253228   6.074   1.484   9.325 -0.5806  0.2233 -0.0292
 9678TIP3    H153229   6.137   1.416   9.346 -1.0466 -0.4295 -0.7018
 9678TIP3    H253230   6.003   1.472   9.389 -0.9803 -0.3710 -0.5707
 9679TIP3   OH253231   5.192   5.412  11.727  0.2328  0.1758 -0.4565
 9679TIP3    H153232   5.286   5.411  11.709  0.4756 -0.9549  0.6740
 9679TIP3    H253233   5.173   5.324  11.759 -0.9965  0.7084  0.3707
 9680TIP3   OH253234   5.277   3.373   9.809  0.8138 -0.4639 -0.2014
 9680TIP3    H153235   5.315   3.342   9.727 -1.5889 -0.8310 -1.2441
 9680TIP3    H253236   5.248   3.293   9.854  0.9469 -0.1754  0.4138
 9681TIP3   OH253237   6.593   0.212  12.143 -0.4844  0.2500 -0.4179
 9681TIP3    H153238   6.499   0.195  12.130 -1.1938  3.2620 -0.0521
 9681TIP3    H253239   6.620   0.147  12.206 -2.4202 -0.5342 -0.3115
 9682TIP3   OH253240   4.359   2.009   9.668  0.0553 -0.0769  0.0375
 9682TIP3    H153241   4.342   2.096   9.632 -0.3239 -0.2496 -0.2080
 9682TIP3    H253242   4.339   1.949   9.596  1.5690 -0.3147 -0.2265
 9683TIP3   OH253243   1.712   6.693  11.880  0.3021 -0.0898  0.2878
 9683TIP3    H153244   1.677   6.778  11.853  0.3116 -0.5478 -1.2849
 9683TIP3    H253245   1.794   6.713  11.923  0.5385  0.6929 -0.4974
 9684TIP3   OH253246   4.023   6.186   9.315 -0.1510 -0.2796 -0.4967
 9684TIP3    H153247   4.024   6.172   9.410 -0.8021  1.0114 -0.2749
 9684TIP3    H253248   4.004   6.279   9.305 -3.5228 -0.9718 -1.9182
 9685TIP3   OH253249   2.113   6.062  10.228  0.3322  0.2509 -0.6139
 9685TIP3    H153250   2.204   6.033  10.227  0.2208 -0.1465 -2.1420
 9685TIP3    H253251   2.063   5.980  10.221 -0.2840  0.2174  2.5747
 9686TIP3   OH253252   0.264   5.826  10.529  0.2432  0.1085 -0.4589
 9686TIP3    H153253   0.348   5.781  10.524 -0.0352 -0.3373 -1.3907
 9686TIP3    H253254   0.286   5.916  10.551  1.0616  0.2511 -1.7739
 9687TIP3   OH253255   2.874   1.007  10.930  0.1101 -0.1930  0.3975
 9687TIP3    H153256   2.855   0.983  11.021  1.4315  1.1275  1.0638
 9687TIP3    H253257   2.938   0.942  10.900  1.7039  0.8742  1.3339
 9688TIP3   OH253258   0.806   2.613  10.641 -0.2245  0.1307  0.5123
 9688TIP3    H153259   0.737   2.661  10.594 -0.7722 -1.3838 -0.3102
 9688TIP3    H253260   0.795   2.522  10.612  1.2147 -0.3783  1.4856
 9689TIP3   OH253261   0.768   1.392  11.794 -0.0913  0.1586 -0.0031
 9689TIP3    H153262   0.738   1.431  11.876  2.2384 -0.8283  1.4317
 9689TIP3    H253263   0.847   1.442  11.772 -0.8039  0.5527 -1.8060
 9690TIP3   OH253264   3.290   2.277   9.406 -0.0135 -0.7826  0.5210
 9690TIP3    H153265   3.351   2.284   9.333 -0.0979 -0.5626  0.4709
 9690TIP3    H253266   3.214   2.231   9.370 -0.7437  0.7478  0.0216
 9691TIP3   OH253267   1.848   3.663  12.189 -0.1201  0.3124  0.3588
 9691TIP3    H153268   1.864   3.618  12.272 -1.7286 -0.1935  0.4291
 9691TIP3    H253269   1.892   3.609  12.123 -0.0958 -0.1108  0.7181
 9692TIP3   OH253270   1.642   1.511   9.233 -0.0630 -0.1174 -0.5149
 9692TIP3    H153271   1.618   1.461   9.311  0.8849  0.3182  0.0694
 9692TIP3    H253272   1.652   1.445   9.165 -3.2761 -0.3307 -0.9655
 9693TIP3   OH253273   5.421   2.745   9.537 -1.0297  0.5145  0.4504
 9693TIP3    H153274   5.425   2.650   9.544 -1.5940  0.5096  0.7839
 9693TIP3    H253275   5.328   2.764   9.524 -0.6771  0.8580 -2.2625
 9694TIP3   OH253276   0.904   4.769   9.009  0.0415 -0.0169 -0.6041
 9694TIP3    H153277   0.887   4.690   9.061  0.0895 -0.6193 -1.4790
 9694TIP3    H253278   0.821   4.788   8.967 -0.2186  0.9447  0.2929
 9695TIP3   OH253279   4.208   0.034  11.090 -0.2515 -0.3996 -0.2883
 9695TIP3    H153280   4.230  -0.033  11.025 -0.2982 -2.2800  1.5501
 9695TIP3    H253281   4.116   0.053  11.076 -0.1357 -0.3989 -1.0853
 9696TIP3   OH253282   1.004   2.199  12.587  0.4941  0.3508 -0.2807
 9696TIP3    H153283   1.094   2.196  12.554  0.9136  1.1063  0.7222
 9696TIP3    H253284   0.980   2.107  12.597  1.2286  0.1347 -0.3849
 9697TIP3   OH253285   3.691   3.650  10.487 -0.1753 -0.2634  0.5156
 9697TIP3    H153286   3.715   3.560  10.511  1.6303 -0.2702 -1.0762
 9697TIP3    H253287   3.651   3.642  10.400 -0.2015  0.4460  0.4557
 9698TIP3   OH253288   5.452   4.132  11.092 -0.6291  0.5853 -0.5921
 9698TIP3    H153289   5.528   4.091  11.050 -0.7335 -0.2369 -0.0104
 9698TIP3    H253290   5.440   4.214  11.045  0.9368  0.9832 -0.3582
 9699TIP3   OH253291   0.612   0.539   9.042  0.4810  0.1292  1.1215
 9699TIP3    H153292   0.624   0.446   9.064 -0.4443 -0.2166  0.2581
 9699TIP3    H253293   0.647   0.586   9.117  2.4667 -0.8732  0.9029
 9700TIP3   OH253294   6.578   2.684   8.773  0.2743 -0.2809 -0.5670
 9700TIP3    H153295   6.569   2.639   8.857  1.4111  0.1048 -0.2261
 9700TIP3    H253296   6.493   2.726   8.759  0.8914  2.0466  1.8252
 9701TIP3   OH253297   2.680   6.011  10.020  0.1974 -0.4513 -0.8027
 9701TIP3    H153298   2.668   5.924   9.981  0.1208 -0.3743 -0.9510
 9701TIP3    H253299   2.775   6.024  10.019  0.2388 -0.7132 -0.3888
 9702TIP3   OH253300   0.025   0.583  10.123 -0.6550 -0.1425 -0.3670
 9702TIP3    H153301   0.061   0.646  10.061 -0.4442  0.8720  0.7536
 9702TIP3    H253302  -0.067   0.574  10.097 -0.8108  0.9931 -0.2619
 9703TIP3   OH253303   6.153   1.185   9.300 -0.5245 -0.1753 -0.2705
 9703TIP3    H153304   6.224   1.208   9.239 -0.1142 -1.7294 -0.4040
 9703TIP3    H253305   6.086   1.146   9.245 -1.6892  1.6015 -0.1961
 9704TIP3   OH253306   6.241   3.625   9.308 -0.7312 -0.3276 -0.5301
 9704TIP3    H153307   6.276   3.537   9.293  1.6405  0.0912  1.7854
 9704TIP3    H253308   6.179   3.614   9.380 -1.1959 -0.2288 -0.9113
 9705TIP3   OH253309   5.365   0.268   8.962  0.1699 -0.4186  0.4146
 9705TIP3    H153310   5.444   0.237   9.005 -0.1492  0.3085  1.5783
 9705TIP3    H253311   5.308   0.296   9.033  0.3799  2.6909 -0.5153
 9706TIP3   OH253312   5.451   1.403   8.937  0.0241 -0.2694  0.5750
 9706TIP3    H153313   5.400   1.322   8.936 -1.5456  0.6550  1.5615
 9706TIP3    H253314   5.390   1.470   8.907  0.9833  0.7066  0.7485
 9707TIP3   OH253315   4.016   2.614   9.866  0.4197  0.0054  0.0412
 9707TIP3    H153316   4.066   2.691   9.838 -0.1068  0.2738 -0.1853
 9707TIP3    H253317   4.047   2.543   9.809  0.2516  0.2654 -0.3825
 9708TIP3   OH253318   4.843   6.151  10.063 -0.3252 -0.5349 -0.0571
 9708TIP3    H153319   4.916   6.105  10.021  0.3050  0.2631  0.1623
 9708TIP3    H253320   4.803   6.085  10.120  0.5668 -0.8283  0.2469
 9709TIP3   OH253321   4.023   2.167  10.802 -0.2939  0.3264 -0.2664
 9709TIP3    H153322   3.994   2.088  10.848  2.3736  0.6586  2.3272
 9709TIP3    H253323   3.957   2.233  10.823 -0.3099 -0.1479  1.3233
 9710TIP3   OH253324   3.412   0.275  11.040  0.0845 -0.6755 -0.4706
 9710TIP3    H153325   3.482   0.218  11.071  1.1364  0.7221 -0.1722
 9710TIP3    H253326   3.458   0.347  10.997 -1.1827  0.1855 -0.4207
 9711TIP3   OH253327   0.752   4.079  12.660 -0.1835 -0.0199 -0.0584
 9711TIP3    H153328   0.663   4.104  12.635  0.9562  1.9299 -2.6785
 9711TIP3    H253329   0.750   4.076  12.755 -3.5692 -2.3169 -0.0030
 9712TIP3   OH253330   0.031   0.943  10.152  0.4730 -0.0255 -0.1418
 9712TIP3    H153331  -0.007   0.883  10.216  2.1817 -1.8922 -0.7729
 9712TIP3    H253332   0.019   1.030  10.190 -0.3920 -0.9147  1.7199
 9713TIP3   OH253333   5.358   3.225   8.716  0.2185  0.7264  0.7666
 9713TIP3    H153334   5.332   3.164   8.786  0.2419 -0.2983 -0.0806
 9713TIP3    H253335   5.430   3.180   8.671  0.2422  1.3895  0.1262
 9714TIP3   OH253336   5.140   2.381  10.807 -0.6094 -0.1735  0.0049
 9714TIP3    H153337   5.180   2.428  10.734 -0.2582 -1.0833 -0.3998
 9714TIP3    H253338   5.053   2.357  10.775 -0.5330 -0.3911 -0.0410
 9715TIP3   OH253339   6.586   0.543   8.908 -0.0851 -0.1891  0.1392
 9715TIP3    H153340   6.632   0.486   8.970 -0.2439  1.3287  1.7313
 9715TIP3    H253341   6.514   0.489   8.875 -0.5675 -0.7744  2.0082
 9716TIP3   OH253342   3.433   1.776  10.614  0.0312  0.0087  0.6909
 9716TIP3    H153343   3.488   1.757  10.538 -0.0671  1.7344  0.1539
 9716TIP3    H253344   3.415   1.690  10.653  0.4858 -0.8613 -0.9431
 9717TIP3   OH253345   2.275   4.970   8.746 -0.2689 -0.0683 -0.0617
 9717TIP3    H153346   2.267   5.065   8.735  0.6785 -0.1988 -2.3260
 9717TIP3    H253347   2.361   4.957   8.785  0.1224 -0.0419 -0.9015
 9718TIP3   OH253348   6.394   3.042  10.471 -0.0132  0.0697 -0.0919
 9718TIP3    H153349   6.337   3.031  10.547 -0.4801  2.4239 -0.0408
 9718TIP3    H253350   6.480   3.063  10.508 -0.5156  2.4718 -0.1315
 9719TIP3   OH253351   4.105   2.958  10.815 -0.0530  0.2193  0.3013
 9719TIP3    H153352   4.066   2.900  10.749  0.2285 -0.1834  0.4851
 9719TIP3    H253353   4.075   2.922  10.899  0.0324  0.4062  0.4124
 9720TIP3   OH253354   0.688   4.975  10.640 -0.3566  0.1048  0.2853
 9720TIP3    H153355   0.704   4.887  10.608 -0.7679  0.2561 -0.3566
 9720TIP3    H253356   0.763   4.994  10.697  1.6219  0.6545 -2.3098
 9721TIP3   OH253357   4.037   1.032  11.116  0.1789  0.2885 -0.1639
 9721TIP3    H153358   4.124   1.006  11.146 -0.1892 -1.5375 -0.5270
 9721TIP3    H253359   3.987   0.950  11.116 -1.4260  1.2295 -0.3472
 9722TIP3   OH253360   1.110   0.955   9.238  0.1839 -0.5323  0.2070
 9722TIP3    H153361   1.122   1.030   9.180  2.1633 -0.6563  0.3816
 9722TIP3    H253362   1.084   0.993   9.322 -0.3049 -0.1696 -0.1042
 9723TIP3   OH253363   6.660   2.335  10.837 -0.3212  0.1011  0.7637
 9723TIP3    H153364   6.743   2.293  10.814 -0.4273  0.9460 -1.4917
 9723TIP3    H253365   6.678   2.384  10.917  1.0886 -0.4751  0.8178
 9724TIP3   OH253366   1.582   4.153   9.555  0.1188 -0.0481  0.0123
 9724TIP3    H153367   1.596   4.060   9.570 -0.0914  0.0942  1.2282
 9724TIP3    H253368   1.500   4.157   9.505  1.7762 -0.6322 -2.9580
 9725TIP3   OH253369   5.151   0.464  10.133  0.1491 -0.2044  0.1889
 9725TIP3    H153370   5.139   0.471  10.038  3.0318 -1.3591 -0.3505
 9725TIP3    H253371   5.095   0.533  10.169 -2.2850 -0.7588 -2.1946
 9726TIP3   OH253372   6.232   3.379  11.720 -0.2243  0.2320  0.1205
 9726TIP3    H153373   6.255   3.287  11.710 -0.8898  0.2343 -1.7563
 9726TIP3    H253374   6.151   3.389  11.669 -0.4038  1.7662  0.6589
 9727TIP3   OH253375   1.527   1.723  10.439  0.1901  0.2420  0.2730
 9727TIP3    H153376   1.526   1.691  10.349 -1.7210 -2.0721  1.0134
 9727TIP3    H253377   1.480   1.807  10.435 -0.3342 -0.0797 -0.8116
 9728TIP3   OH253378   5.341   3.216  11.318  0.2879 -0.2006 -0.0957
 9728TIP3    H153379   5.418   3.269  11.340 -0.5982  1.2990 -0.4789
 9728TIP3    H253380   5.273   3.248  11.378 -0.2095 -1.0662 -0.1974
 9729TIP3   OH253381   6.603   1.695  10.548 -0.3774  0.1813  0.1147
 9729TIP3    H153382   6.662   1.729  10.481 -1.5726 -2.4923 -2.5504
 9729TIP3    H253383   6.660   1.645  10.607  0.4475  0.7770 -0.1604
 9730TIP3   OH253384   6.079   2.393   9.192  0.1530  0.5938  0.1895
 9730TIP3    H153385   6.160   2.411   9.145 -0.5298  1.8908 -0.5604
 9730TIP3    H253386   6.098   2.316   9.246  1.5631  0.2873 -0.7085
 9731TIP3   OH253387   4.696   5.262  10.994 -0.0450 -0.1495  0.1043
 9731TIP3    H153388   4.724   5.187  10.941  1.6528  0.3724  0.2043
 9731TIP3    H253389   4.606   5.240  11.020 -0.0469 -1.5473 -0.9252
 9732TIP3   OH253390   2.187   5.028  11.066  0.2114 -0.3880  0.0170
 9732TIP3    H153391   2.193   4.973  10.988 -0.8471 -0.9413  0.2944
 9732TIP3    H253392   2.204   5.117  11.035 -2.0793 -0.3182 -1.2356
 9733TIP3   OH253393   6.398   6.017  10.415 -0.4848  0.0471 -0.0482
 9733TIP3    H153394   6.321   5.968  10.443 -0.7940  0.7225  0.2967
 9733TIP3    H253395   6.364   6.101  10.386  0.1922  0.6265  0.7960
 9734TIP3   OH253396   3.501   2.024  11.261 -0.0662 -0.3342  0.4845
 9734TIP3    H153397   3.530   2.113  11.244  2.4178 -0.8714  1.3674
 9734TIP3    H253398   3.557   1.969  11.206 -0.6474 -1.4129  0.9236
 9735TIP3   OH253399   3.001   4.454  11.825 -0.4853  0.2445 -0.5646
 9735TIP3    H153400   2.992   4.535  11.875 -0.9215 -0.9546  1.4250
 9735TIP3    H253401   3.027   4.388  11.890  1.0154 -1.0011 -2.3067
 9736TIP3   OH253402   3.060   5.142  11.584  0.6512  0.9063 -0.3077
 9736TIP3    H153403   2.970   5.136  11.617  0.4917  1.2924 -0.6661
 9736TIP3    H253404   3.092   5.226  11.617  0.8834  0.7722 -0.1853
 9737TIP3   OH253405   2.937   4.124   9.021  0.4536 -0.2801 -0.1751
 9737TIP3    H153406   3.010   4.185   9.015 -0.0731  0.3013 -0.8874
 9737TIP3    H253407   2.953   4.075   9.101  0.5010  1.3050  0.8161
 9738TIP3   OH253408   2.737   0.153   9.718  0.1242  0.4895 -0.0045
 9738TIP3    H153409   2.796   0.077   9.725  0.1533  0.3875 -1.1680
 9738TIP3    H253410   2.741   0.194   9.804 -1.6574 -2.0959  1.4426
 9739TIP3   OH253411   5.340   6.689  11.283  0.5910  0.0537 -0.3201
 9739TIP3    H153412   5.278   6.619  11.263  1.1246 -0.5965  0.2664
 9739TIP3    H253413   5.297   6.769  11.252 -1.0239 -0.2420  1.0045
 9740TIP3   OH253414   5.468   1.181  11.653 -0.2585 -0.0737 -0.7577
 9740TIP3    H153415   5.445   1.144  11.738 -0.0671  1.1726 -0.1504
 9740TIP3    H253416   5.554   1.142  11.633 -0.3306 -0.4184 -0.4096
 9741TIP3   OH253417   1.777   3.725  11.531  0.6816  0.2971 -0.2449
 9741TIP3    H153418   1.715   3.689  11.594 -0.1838  1.5580 -0.3429
 9741TIP3    H253419   1.812   3.803  11.574  3.0226 -0.9118  0.2380
 9742TIP3   OH253420   2.485   1.346  11.130  0.2987  0.1314 -0.0173
 9742TIP3    H153421   2.572   1.384  11.119  1.0938 -0.7829  2.4672
 9742TIP3    H253422   2.501   1.259  11.166 -1.6405 -0.4085 -0.3350
 9743TIP3   OH253423   6.307   0.794  11.797 -0.2951 -0.1136 -0.2028
 9743TIP3    H153424   6.340   0.718  11.748 -0.2149 -0.1114 -0.1532
 9743TIP3    H253425   6.317   0.769  11.889 -1.2893 -0.4758 -0.1870
 9744TIP3   OH253426   6.284   1.950   9.481  0.0846  0.0071  0.0470
 9744TIP3    H153427   6.359   1.893   9.500  0.9113  1.4944  1.5603
 9744TIP3    H253428   6.244   1.966   9.567  0.1300  1.9651 -0.2364
 9745TIP3   OH253429   4.048   2.137  10.507  0.1528  0.2905  0.7018
 9745TIP3    H153430   4.061   2.103  10.595  0.9369  1.2610  0.9898
 9745TIP3    H253431   4.027   2.230  10.520 -0.7309  0.2196 -0.0977
 9746TIP3   OH253432   0.638   1.896   9.267  0.5558  0.1583  0.3564
 9746TIP3    H153433   0.652   1.804   9.247 -0.1604 -0.3429  1.9896
 9746TIP3    H253434   0.635   1.900   9.362 -0.7255  1.6580  0.2964
 9747TIP3   OH253435   1.855   3.493   9.927  0.3501  0.1536 -0.0639
 9747TIP3    H153436   1.853   3.408   9.882  1.7248 -0.2227  0.5361
 9747TIP3    H253437   1.945   3.501   9.959  0.6342  2.4300 -1.2048
 9748TIP3   OH253438   2.833   2.894   9.216 -0.3612  0.5721  0.2503
 9748TIP3    H153439   2.840   2.958   9.286 -1.5180 -1.2063  2.0939
 9748TIP3    H253440   2.843   2.945   9.136 -1.5133  3.0902  1.6051
 9749TIP3   OH253441   5.150   1.920  11.921 -0.1602 -0.0849 -0.0698
 9749TIP3    H153442   5.077   1.980  11.933  0.2095  0.5331 -0.8346
 9749TIP3    H253443   5.162   1.879  12.007 -1.6468 -0.5011 -0.0301
 9750TIP3   OH253444   1.437   1.120  10.976 -0.4632 -0.3033 -0.1504
 9750TIP3    H153445   1.467   1.076  10.896 -0.8043  0.9466 -1.0004
 9750TIP3    H253446   1.509   1.179  11.000  0.5197 -2.1234  1.6939
 9751TIP3   OH253447   2.464   3.266   9.948 -0.3422  0.1830  0.0598
 9751TIP3    H153448   2.448   3.360   9.952  0.6360  0.4727 -1.8807
 9751TIP3    H253449   2.408   3.234   9.878 -0.5514 -0.6605  0.5985
 9752TIP3   OH253450   1.103   0.096   9.647 -0.3789 -0.2766 -0.0624
 9752TIP3    H153451   1.013   0.070   9.666 -0.3738 -0.5896 -0.4484
 9752TIP3    H253452   1.118   0.173   9.701 -0.8508 -0.2747  0.0684
 9753TIP3   OH253453   4.837   5.974   8.933 -0.7491  0.3300  0.0680
 9753TIP3    H153454   4.923   5.993   8.971  0.5469 -2.0542 -1.4422
 9753TIP3    H253455   4.789   5.930   9.003  0.6153 -1.5514 -0.1137
 9754TIP3   OH253456   4.006   2.784  10.623  0.2162  0.0463  0.2034
 9754TIP3    H153457   4.049   2.699  10.631  1.3081  0.5826  0.2524
 9754TIP3    H253458   4.058   2.831  10.557 -0.9114  0.3616 -0.4892
 9755TIP3   OH253459   2.950   0.371   9.715 -0.4622 -0.1616  0.1572
 9755TIP3    H153460   2.859   0.399   9.723 -0.4448 -0.0907  0.1064
 9755TIP3    H253461   2.961   0.349   9.622 -0.6845 -1.0654  0.3334
 9756TIP3   OH253462   1.102   4.973  12.109  0.4776 -0.6919 -0.1007
 9756TIP3    H153463   1.134   4.887  12.134  1.5932 -0.1077  0.5405
 9756TIP3    H253464   1.151   4.996  12.031  0.6498 -0.3575  0.1062
 9757TIP3   OH253465   4.163   4.686  10.911 -0.4877 -0.0450  0.0994
 9757TIP3    H153466   4.187   4.608  10.962 -1.2325 -0.2407  0.1580
 9757TIP3    H253467   4.115   4.651  10.836 -0.6056  0.3443 -0.0056
 9758TIP3   OH253468   1.823   5.247   9.943 -0.1066 -0.1396 -0.3612
 9758TIP3    H153469   1.895   5.297   9.904 -0.3949  0.8764  0.3461
 9758TIP3    H253470   1.748   5.306   9.937 -0.5809 -0.6962  0.0308
 9759TIP3   OH253471   1.527   5.288  10.404 -0.1477 -0.4938  0.1861
 9759TIP3    H153472   1.441   5.277  10.364  0.5760 -1.5602 -1.1491
 9759TIP3    H253473   1.575   5.342  10.342  0.5103 -0.9096  0.3254
 9760TIP3   OH253474   1.374   6.341  10.485 -0.6517  0.3067 -0.5126
 9760TIP3    H153475   1.444   6.276  10.496  0.0933  1.2267  0.3426
 9760TIP3    H253476   1.311   6.298  10.426 -0.8336 -1.7259  1.0279
 9761TIP3   OH253477   4.129   5.837  10.051 -0.1781  1.0731  0.4826
 9761TIP3    H153478   4.112   5.787  10.131 -0.2272  1.6196  0.8155
 9761TIP3    H253479   4.223   5.827  10.037  0.2166  2.6113  1.7374
 9762TIP3   OH253480   2.851   6.291  10.824  0.0821 -0.2977 -0.2118
 9762TIP3    H153481   2.776   6.322  10.874  0.2044  1.0765 -0.8417
 9762TIP3    H253482   2.891   6.224  10.879 -1.2181 -0.5762  0.4154
 9763TIP3   OH253483   5.443   3.854   8.720 -0.0508  0.5369  0.0005
 9763TIP3    H153484   5.525   3.879   8.763  1.2719  1.9569 -3.0553
 9763TIP3    H253485   5.405   3.937   8.690  0.3691 -0.4050 -3.5490
 9764TIP3   OH253486   4.613   3.630   9.119 -0.3026 -0.1181 -0.6644
 9764TIP3    H153487   4.521   3.625   9.145 -0.6239  1.9693 -1.2024
 9764TIP3    H253488   4.610   3.634   9.023  0.3681 -0.0996 -0.6883
 9765TIP3   OH253489   4.375   3.141   9.768 -0.6101  0.1489  0.1795
 9765TIP3    H153490   4.383   3.082   9.693 -0.7693  0.0925  0.2073
 9765TIP3    H253491   4.423   3.219   9.742 -1.1992  0.3778 -0.2377
 9766TIP3   OH253492   6.027   2.426  10.009 -0.0705  0.4902 -0.5343
 9766TIP3    H153493   6.119   2.427  10.035 -0.8716  0.8177  2.8247
 9766TIP3    H253494   6.012   2.336   9.980  0.8888 -0.2048  0.9666
 9767TIP3   OH253495   3.277   2.450  10.269 -0.1450  0.1245  0.1081
 9767TIP3    H153496   3.255   2.369  10.314 -2.0449  0.6784  0.2573
 9767TIP3    H253497   3.372   2.445  10.255 -0.3990 -2.8258 -1.3262
 9768TIP3   OH253498   6.001   5.664  11.303  0.2350 -0.4768 -0.3083
 9768TIP3    H153499   6.040   5.578  11.285 -1.3342 -0.6671 -3.4338
 9768TIP3    H253500   6.040   5.722  11.238 -0.0115  0.8000  0.6538
 9769TIP3   OH253501   2.191   3.116  10.345  0.3821 -0.7710 -0.7402
 9769TIP3    H153502   2.184   3.203  10.305 -0.9892 -0.8426 -0.6758
 9769TIP3    H253503   2.103   3.081  10.343  0.8687 -2.0573 -0.4894
 9770TIP3   OH253504   3.070   0.254  11.974  0.1780  0.0902  0.0688
 9770TIP3    H153505   3.047   0.190  11.906  0.4099  0.1461 -0.0631
 9770TIP3    H253506   3.098   0.200  12.049 -1.4817 -0.0111  0.6498
 9771TIP3   OH253507   0.010   3.528   9.963 -0.4881 -0.3915  0.2865
 9771TIP3    H153508  -0.035   3.522   9.879  1.6376  1.3070 -1.0859
 9771TIP3    H253509   0.033   3.620   9.971  1.7986 -0.9936  1.3859
 9772TIP3   OH253510   3.310   6.422  10.522  0.2788 -0.6613 -0.3154
 9772TIP3    H153511   3.390   6.380  10.556  0.4976 -0.5716 -0.7115
 9772TIP3    H253512   3.292   6.375  10.441 -0.8189 -1.5543  0.4176
 9773TIP3   OH253513   2.450   0.036  10.006  0.1988 -0.1932 -0.3591
 9773TIP3    H153514   2.376  -0.014   9.970  1.6209 -1.9827 -0.9383
 9773TIP3    H253515   2.517  -0.030  10.025  1.9014  1.4137 -0.4555
 9774TIP3   OH253516   0.734   2.964   9.450  0.3909  0.1663  0.2787
 9774TIP3    H153517   0.644   2.983   9.474  1.3002  1.9345  2.8320
 9774TIP3    H253518   0.753   2.879   9.489 -0.2695 -0.4228 -0.6608
 9775TIP3   OH253519   1.331   5.288  11.451 -0.0766  0.4069  0.0269
 9775TIP3    H153520   1.247   5.259  11.417  1.1980 -1.7085 -1.5760
 9775TIP3    H253521   1.328   5.268  11.544 -0.1963 -2.8973 -0.5593
 9776TIP3   OH253522   0.344   2.033  10.844 -0.3874 -0.6117 -0.5191
 9776TIP3    H153523   0.344   2.086  10.924  0.7939 -0.7471 -0.4128
 9776TIP3    H253524   0.251   2.013  10.829 -0.7483  0.4742  0.1026
 9777TIP3   OH253525   3.651   6.644   9.612 -0.0511  0.0570 -0.1634
 9777TIP3    H153526   3.668   6.718   9.671  1.6827 -1.1020  0.8799
 9777TIP3    H253527   3.614   6.685   9.533  0.9276  2.0477  0.3331
 9778TIP3   OH253528   2.444   1.805  10.695  0.1177  0.2845  0.3765
 9778TIP3    H153529   2.468   1.836  10.607 -0.4927 -3.1358 -1.1626
 9778TIP3    H253530   2.430   1.885  10.745 -0.7377  2.4538 -2.9661
 9779TIP3   OH253531   3.782   3.594  10.022  0.4445  0.2534  0.1073
 9779TIP3    H153532   3.828   3.511  10.021  0.0961  0.0109  1.5457
 9779TIP3    H253533   3.691   3.572  10.042  0.6084  1.0493  1.9232
 9780TIP3   OH253534   2.053   3.190  11.623 -0.7302  0.0620 -0.0304
 9780TIP3    H153535   2.115   3.122  11.650 -1.8765 -1.1147 -0.2498
 9780TIP3    H253536   2.012   3.219  11.704 -3.1445 -2.4576 -0.1988
 9781TIP3   OH253537   4.824   4.745  11.208 -0.3347 -0.0109  0.2320
 9781TIP3    H153538   4.784   4.817  11.256 -1.2440 -1.0571  1.0978
 9781TIP3    H253539   4.771   4.668  11.230  1.6921 -1.3296  0.8241
 9782TIP3   OH253540   3.519   4.940   9.944 -0.1477  0.1746  0.1616
 9782TIP3    H153541   3.451   4.898   9.996 -1.1953  1.7157  0.1274
 9782TIP3    H253542   3.481   4.947   9.856 -0.4289  1.9944  0.3861
 9783TIP3   OH253543   1.875   4.300  12.381 -0.0946  0.2299 -0.2755
 9783TIP3    H153544   1.865   4.339  12.469  0.4923  0.1445 -0.1674
 9783TIP3    H253545   1.914   4.370  12.329  0.4434 -0.0237 -0.2219
 9784TIP3   OH253546   0.885   1.536  10.849  0.6515 -0.3339  0.6069
 9784TIP3    H153547   0.943   1.472  10.808  0.4340  0.4881 -1.0964
 9784TIP3    H253548   0.880   1.509  10.941 -0.6878 -3.7118 -0.2990
 9785TIP3   OH253549   4.581   3.023  10.337  0.0230  0.2237 -0.1610
 9785TIP3    H153550   4.526   2.980  10.403 -0.3707 -1.2604 -1.3833
 9785TIP3    H253551   4.534   3.010  10.254  1.8196 -0.4690 -1.1431
 9786TIP3   OH253552   1.795   5.890  12.542 -0.2004  0.1399  0.3882
 9786TIP3    H153553   1.829   5.840  12.468  0.8837  0.1759  0.8453
 9786TIP3    H253554   1.806   5.832  12.618  1.2628  1.0863  0.9575
 9787TIP3   OH253555   0.150   2.799   9.629  0.5680  0.4723  0.2008
 9787TIP3    H153556   0.149   2.703   9.638 -0.6967  0.5535  1.3306
 9787TIP3    H253557   0.242   2.823   9.640  1.2149 -0.7355 -2.0223
 9788TIP3   OH253558   0.789   2.048  10.996 -0.0970  0.1494 -0.2054
 9788TIP3    H153559   0.857   2.047  10.929 -0.4900 -0.5235 -0.6115
 9788TIP3    H253560   0.761   1.957  11.003 -0.0500  0.1994  0.9002
 9789TIP3   OH253561   0.789   1.029   8.935  0.3307 -0.2275 -0.1641
 9789TIP3    H153562   0.722   0.965   8.911  0.2333  0.4431 -1.8154
 9789TIP3    H253563   0.872   0.981   8.929  0.0703 -1.0555  1.8693
 9790TIP3   OH253564   3.487   2.180   8.850  0.1179  0.2187  0.2468
 9790TIP3    H153565   3.500   2.086   8.861  0.0067  0.2387  0.5541
 9790TIP3    H253566   3.396   2.188   8.819  0.1515  0.2208  0.1481
 9791TIP3   OH253567   1.423   5.963  11.030  0.4846 -0.3599  0.2637
 9791TIP3    H153568   1.352   5.915  11.073 -0.7014  0.1884 -1.0042
 9791TIP3    H253569   1.382   6.003  10.953  2.5695 -1.5572 -1.5752
 9792TIP3   OH253570   4.402   0.847   9.419 -0.1656  0.3854  0.3330
 9792TIP3    H153571   4.328   0.819   9.473  1.3653 -2.2972  1.2273
 9792TIP3    H253572   4.440   0.920   9.467 -1.3919  0.8949  0.5697
 9793TIP3   OH253573   6.199   1.432   8.772  0.4103  0.2791  0.2706
 9793TIP3    H153574   6.286   1.393   8.778  1.0740  1.8545  1.8170
 9793TIP3    H253575   6.197   1.471   8.685  2.2695  2.3423  1.0532
 9794TIP3   OH253576   4.875   3.797  12.207  0.0430 -0.6406 -0.0038
 9794TIP3    H153577   4.961   3.767  12.179  0.3869  1.4088 -1.3909
 9794TIP3    H253578   4.890   3.837  12.293  0.0006 -2.3148  0.8092
 9795TIP3   OH253579   2.344   4.059  10.742  0.0444  0.1905 -0.4836
 9795TIP3    H153580   2.392   3.994  10.689 -1.2954  0.3495 -1.9566
 9795TIP3    H253581   2.406   4.083  10.811  1.1368 -1.5199 -0.7865
 9796TIP3   OH253582   4.831   4.438  10.291 -0.1072  0.0480 -0.1500
 9796TIP3    H153583   4.742   4.466  10.313 -0.0128 -0.7661  1.3887
 9796TIP3    H253584   4.819   4.361  10.236 -0.3525  0.1265 -0.2087
 9797TIP3   OH253585   3.967   1.964   9.521 -0.1774  0.7317 -0.3483
 9797TIP3    H153586   4.008   1.893   9.569 -1.8302 -0.0832 -0.0824
 9797TIP3    H253587   3.973   2.039   9.580  0.9549  0.6731 -0.3530
 9798TIP3   OH253588   0.450   3.755  11.553 -0.4353  0.0941  0.0920
 9798TIP3    H153589   0.466   3.817  11.482  1.5709  1.2332  1.4275
 9798TIP3    H253590   0.377   3.793  11.602 -0.2385  0.6018  0.0052
 9799TIP3   OH253591   6.479   4.177  11.397  0.0953 -0.1929  0.7097
 9799TIP3    H153592   6.461   4.102  11.453 -0.2463 -0.0914  0.7389
 9799TIP3    H253593   6.548   4.226  11.442 -1.9648  1.3365  2.4185
 9800TIP3   OH253594   3.134   4.958  11.811 -0.5597 -0.3645 -0.5997
 9800TIP3    H153595   3.183   4.878  11.794  0.5990  0.4906 -1.4430
 9800TIP3    H253596   3.111   4.991  11.724  1.7647  1.8639 -0.4934
 9801TIP3   OH253597   5.885   1.668  11.505  1.0918  0.0750 -0.2163
 9801TIP3    H153598   5.801   1.712  11.492  1.3207  0.6912  0.2999
 9801TIP3    H253599   5.947   1.739  11.522  1.8787 -0.3172 -1.3488
 9802TIP3   OH253600   3.751   3.179  11.700 -0.5243  0.6430  0.3259
 9802TIP3    H153601   3.686   3.249  11.711 -0.0224  1.2570 -0.5166
 9802TIP3    H253602   3.747   3.158  11.607  3.1586  3.4062 -0.6639
 9803TIP3   OH253603   2.603   1.849   9.069 -0.3861 -0.0576  0.0073
 9803TIP3    H153604   2.536   1.856   9.137  0.6531  0.1288  1.0527
 9803TIP3    H253605   2.583   1.921   9.009 -1.3003 -0.1961  0.1336
 9804TIP3   OH253606   2.396   0.209  10.288 -0.1340 -0.1848 -0.4754
 9804TIP3    H153607   2.407   0.205  10.193  2.4913  1.5908 -0.3632
 9804TIP3    H253608   2.359   0.295  10.304  1.3588  0.3848  0.1526
 9805TIP3   OH253609   5.397   0.862  11.645  0.2855 -0.1199 -0.3758
 9805TIP3    H153610   5.381   0.954  11.661 -1.4035 -0.4460 -0.0396
 9805TIP3    H253611   5.461   0.836  11.712 -0.7674  0.3518  0.8471
 9806TIP3   OH253612   3.436   3.258  10.442 -0.2906  0.3827  0.4454
 9806TIP3    H153613   3.507   3.201  10.412  1.7634  3.3165 -0.7750
 9806TIP3    H253614   3.430   3.241  10.536 -0.0225 -1.9964  0.0954
 9807TIP3   OH253615   1.451   5.623   9.777  0.1895  0.3402 -0.4106
 9807TIP3    H153616   1.415   5.621   9.688 -1.5614 -0.7704  0.2909
 9807TIP3    H253617   1.534   5.576   9.770 -0.7201 -1.2305 -1.1656
 9808TIP3   OH253618   3.940   4.510  10.093 -0.6552 -0.0739 -0.6136
 9808TIP3    H153619   3.868   4.565  10.124 -0.8572 -0.4026 -0.4905
 9808TIP3    H253620   4.012   4.571  10.077 -1.5896  0.5771 -2.7625
 9809TIP3   OH253621   6.075   3.563  10.430 -0.3466 -0.1623  0.8118
 9809TIP3    H153622   6.014   3.556  10.357  0.0099  2.9894  0.0605
 9809TIP3    H253623   6.153   3.516  10.400  0.4390  2.4204 -1.7407
 9810TIP3   OH253624   2.803   2.788  10.255 -0.0686 -0.2943 -0.3009
 9810TIP3    H153625   2.885   2.744  10.232 -0.2631  0.0282 -1.7088
 9810TIP3    H253626   2.826   2.845  10.328  0.5221 -1.6001  0.5759
 9811TIP3   OH253627   4.119   0.067  10.220 -0.7737  0.6382 -0.0314
 9811TIP3    H153628   4.182   0.047  10.152 -0.6424 -1.2508  0.5875
 9811TIP3    H253629   4.038   0.025  10.191 -0.7921  0.0562  0.8064
 9812TIP3   OH253630   0.125   2.832  10.171  0.1353  0.4544 -0.1877
 9812TIP3    H153631   0.205   2.815  10.220 -0.2501 -1.3119 -0.0873
 9812TIP3    H253632   0.068   2.879  10.231 -0.1220 -1.1933  0.9169
 9813TIP3   OH253633   1.406   2.471  11.514 -0.3528 -0.0155  0.4841
 9813TIP3    H153634   1.467   2.434  11.450  0.0888  0.2630  0.7332
 9813TIP3    H253635   1.326   2.488  11.465 -0.4986 -1.1068  0.3196
 9814TIP3   OH253636   5.854   0.018  11.114 -0.3524  0.5899 -0.0616
 9814TIP3    H153637   5.861  -0.042  11.189 -0.3186  2.1635  1.2712
 9814TIP3    H253638   5.804  -0.030  11.049 -1.4752 -0.4247  1.4670
 9815TIP3   OH253639   6.073   4.391   9.419  0.2275  0.0801 -0.6231
 9815TIP3    H153640   6.073   4.347   9.335 -1.9570 -0.6242 -0.3067
 9815TIP3    H253641   6.051   4.482   9.399  1.3292  0.2942 -0.9380
 9816TIP3   OH253642   0.601   2.121  11.431  0.4128  0.2907 -0.0589
 9816TIP3    H153643   0.510   2.096  11.446 -0.0364  0.7947 -1.7104
 9816TIP3    H253644   0.602   2.216  11.442  0.5652  0.3797 -0.8081
 9817TIP3   OH253645   2.288   5.980   9.993 -0.4914 -0.5289 -0.7354
 9817TIP3    H153646   2.274   6.044   9.923  1.1000  0.1883 -0.4550
 9817TIP3    H253647   2.280   5.895   9.950 -1.2593 -0.1273 -1.4082
 9818TIP3   OH253648   1.440   0.173  10.188 -0.6007  0.0283 -0.0074
 9818TIP3    H153649   1.375   0.232  10.150 -1.4353  0.6228  2.1997
 9818TIP3    H253650   1.509   0.231  10.220  0.1096 -0.4651 -0.5898
 9819TIP3   OH253651   0.714   5.822  11.202 -0.1262 -0.0978 -0.2839
 9819TIP3    H153652   0.700   5.914  11.223 -0.9365  0.1142 -1.6018
 9819TIP3    H253653   0.634   5.778  11.232 -1.0993  0.1413 -2.3295
 9820TIP3   OH253654   4.162   2.943  10.219  0.2468 -0.2707 -0.5231
 9820TIP3    H153655   4.070   2.955  10.196  0.5324  0.7156 -1.1882
 9820TIP3    H253656   4.209   2.952  10.137  0.7736 -3.3502 -0.6907
 9821TIP3   OH253657   0.803   6.291  11.088  0.2592  0.0670  0.1245
 9821TIP3    H153658   0.809   6.246  11.003  0.2838  0.5094 -0.1079
 9821TIP3    H253659   0.823   6.382  11.069 -1.9315  0.6276  0.1942
 9822TIP3   OH253660   5.959   4.440   9.843 -0.2079 -0.6824 -0.1100
 9822TIP3    H153661   5.910   4.510   9.800 -0.7041 -0.7364  0.3540
 9822TIP3    H253662   6.023   4.487   9.898  1.2353 -0.6125 -1.7590
 9823TIP3   OH253663   5.989   6.364   9.667  0.2540  0.0912 -0.1659
 9823TIP3    H153664   5.988   6.449   9.623  0.9065 -0.8877 -2.2072
 9823TIP3    H253665   6.068   6.321   9.634 -0.1940 -1.4079  0.6175
 9824TIP3   OH253666   4.693   6.649  10.703  0.5844  0.0339  0.2014
 9824TIP3    H153667   4.612   6.700  10.702  0.3392 -0.3492 -0.8958
 9824TIP3    H253668   4.669   6.566  10.746  0.9246  0.7108  1.7655
 9825TIP3   OH253669   4.204   6.513   8.967  0.0979  0.3361  0.0504
 9825TIP3    H153670   4.111   6.497   8.952  0.2878  1.1236 -2.5184
 9825TIP3    H253671   4.206   6.568   9.045 -1.4114 -1.2279  1.2649
 9826TIP3   OH253672   2.629   1.889   9.393 -0.2061 -0.0259  0.1378
 9826TIP3    H153673   2.718   1.854   9.388 -0.0216  0.2132  1.4471
 9826TIP3    H253674   2.635   1.975   9.350  0.0832 -0.2129 -0.2001
 9827TIP3   OH253675   0.606   2.388  10.070  0.3249  0.1019 -0.2689
 9827TIP3    H153676   0.552   2.325  10.023 -0.0667  0.1363  0.1297
 9827TIP3    H253677   0.661   2.428  10.002 -0.4738  0.4002 -0.7522
 9828TIP3   OH253678   4.239   0.461   9.040  0.6017 -0.4173 -0.1768
 9828TIP3    H153679   4.254   0.469   8.946  1.6759 -0.1332  0.0063
 9828TIP3    H253680   4.242   0.551   9.073 -0.5450 -0.4320  0.0426
 9829TIP3   OH253681   3.219   1.339  11.490 -0.6022 -0.0177  0.4579
 9829TIP3    H153682   3.217   1.249  11.456 -0.9268  0.0640  0.2536
 9829TIP3    H253683   3.253   1.330  11.579 -1.4733 -0.4581  0.7583
 9830TIP3   OH253684   1.659   6.095  11.570  0.3183 -0.0508  0.1096
 9830TIP3    H153685   1.667   6.011  11.615  0.5776 -0.4944 -0.7372
 9830TIP3    H253686   1.620   6.073  11.485 -0.5636  0.8172  0.2666
 9831TIP3   OH253687   2.328   4.533  11.329 -0.5834 -0.4255  0.2337
 9831TIP3    H153688   2.393   4.590  11.288  0.4409 -2.2936 -0.8698
 9831TIP3    H253689   2.344   4.541  11.423 -2.5815  3.4831  0.4708
 9832TIP3   OH253690   2.087   2.713  10.111 -0.3514  0.7413 -0.2411
 9832TIP3    H153691   2.097   2.648  10.042 -0.2380  1.0484 -0.5196
 9832TIP3    H253692   2.176   2.744  10.129 -0.3367  0.3946  0.3090
 9833TIP3   OH253693   1.857   1.980   9.298 -0.3337  0.2035  0.4420
 9833TIP3    H153694   1.805   1.918   9.246 -0.9271 -0.1994  1.4794
 9833TIP3    H253695   1.946   1.946   9.294 -0.7776 -1.2319  1.6749
 9834TIP3   OH253696   2.761   2.100  10.043 -0.1008  0.3898 -0.0834
 9834TIP3    H153697   2.711   2.035  10.092 -2.1367  0.5974 -1.7538
 9834TIP3    H253698   2.771   2.061   9.956 -0.1274  1.7061 -0.6912
 9835TIP3   OH253699   6.635   3.194  12.118 -0.0722 -0.0948 -0.8059
 9835TIP3    H153700   6.689   3.142  12.177 -0.1228  0.3270 -0.3866
 9835TIP3    H253701   6.694   3.260  12.083 -0.5126  0.9287  0.3385
 9836TIP3   OH253702   4.728   5.551  11.202 -0.0963 -0.6300  0.3954
 9836TIP3    H153703   4.686   5.554  11.117 -1.8957  1.4799  1.2641
 9836TIP3    H253704   4.730   5.642  11.232 -0.0743 -1.3381  2.8301
 9837TIP3   OH253705   2.987   2.814  11.333 -0.6234  0.2344  0.1774
 9837TIP3    H153706   2.964   2.757  11.406  0.3302 -0.1473  0.1792
 9837TIP3    H253707   3.043   2.882  11.371  1.6663 -1.1524 -0.5312
 9838TIP3   OH253708   3.706   4.461  11.012 -0.8286  0.8623  0.3586
 9838TIP3    H153709   3.744   4.546  11.034  1.2147  0.0027  0.4625
 9838TIP3    H253710   3.719   4.453  10.917 -0.5247  0.4707  0.4301
 9839TIP3   OH253711   5.337   4.769   9.722  0.0222  1.0159 -0.4181
 9839TIP3    H153712   5.336   4.816   9.805 -1.3668  0.7682 -0.2692
 9839TIP3    H253713   5.385   4.688   9.740  1.2888  1.7676 -0.3395
 9840TIP3   OH253714   5.885   3.271  11.041  0.5292 -0.5834  0.0899
 9840TIP3    H153715   5.954   3.310  11.095 -0.5055  0.2529  0.8626
 9840TIP3    H253716   5.899   3.307  10.954  0.3673  0.5400  0.5106
 9841TIP3   OH253717   3.191   4.936  10.078 -0.0753  0.0119  0.2168
 9841TIP3    H153718   3.190   4.844  10.052  0.9175 -0.0401  0.3283
 9841TIP3    H253719   3.165   4.984   9.999  0.4447 -0.3057 -0.1522
 9842TIP3   OH253720   5.116   3.346  11.961  0.1840 -0.7625 -0.0518
 9842TIP3    H153721   5.119   3.425  12.015  0.0274 -0.3158 -0.6927
 9842TIP3    H253722   5.103   3.275  12.024  2.8519 -0.5763  0.8327
 9843TIP3   OH253723   5.676   5.172  11.171 -0.2459 -0.3937  0.9699
 9843TIP3    H153724   5.714   5.254  11.140  0.6715 -0.8078  0.9668
 9843TIP3    H253725   5.585   5.194  11.192 -0.3298  0.3560 -0.1027
 9844TIP3   OH253726   5.619   2.064  11.662 -0.3845  0.1720 -0.2827
 9844TIP3    H153727   5.545   2.004  11.660 -1.2365  1.2129 -0.8640
 9844TIP3    H253728   5.605   2.122  11.587  1.0880  0.3151 -0.4723
 9845TIP3   OH253729   0.263   2.734   8.890  0.0076 -0.1784  0.3888
 9845TIP3    H153730   0.354   2.715   8.865 -0.6415  0.1966 -2.6081
 9845TIP3    H253731   0.260   2.829   8.902 -0.2152 -0.0391 -0.6929
 9846TIP3   OH253732   1.120   2.356  11.714  0.0487  0.2762  0.1992
 9846TIP3    H153733   1.191   2.420  11.720 -0.1102  0.5901 -1.0368
 9846TIP3    H253734   1.163   2.277  11.678 -0.0525  0.1781  0.2950
 9847TIP3   OH253735   0.761   4.054  10.096  0.0761  0.0042  0.3098
 9847TIP3    H153736   0.691   3.988  10.101  0.5670 -0.4862  0.9649
 9847TIP3    H253737   0.767   4.089  10.184  3.3659 -2.8882  1.4749
 9848TIP3   OH253738   1.102   1.079  11.543  0.4068 -0.8105 -0.4502
 9848TIP3    H153739   1.123   0.993  11.506 -2.7997 -2.0943  0.3949
 9848TIP3    H253740   1.031   1.062  11.605  0.9219  2.2288  1.1802
 9849TIP3   OH253741   5.698   0.937  10.166 -0.5015 -0.2214 -0.3354
 9849TIP3    H153742   5.768   0.942  10.100 -1.1675 -2.2541 -1.2774
 9849TIP3    H253743   5.675   1.028  10.183 -0.0811  0.4045 -2.6990
 9850TIP3   OH253744   1.556   2.732  11.595  0.5262 -0.0474 -0.0993
 9850TIP3    H153745   1.497   2.661  11.571 -0.3466  0.9147 -0.8915
 9850TIP3    H253746   1.512   2.811  11.564  1.7773  0.7836  0.1805
 9851TIP3   OH253747   6.562   0.085  11.863  0.4419  0.0252  0.0974
 9851TIP3    H153748   6.500   0.155  11.839  0.6586  1.7441  3.8128
 9851TIP3    H253749   6.540   0.065  11.954  2.4061 -2.6683  0.0771
 9852TIP3   OH253750   2.006   5.279  11.564 -0.0479 -0.1479 -0.0581
 9852TIP3    H153751   1.982   5.259  11.474  1.0226  1.4015 -0.7332
 9852TIP3    H253752   1.934   5.331  11.598 -0.3645 -0.5720 -0.0733
 9853TIP3   OH253753   3.724   4.462  10.318  0.4174 -0.2969 -0.0302
 9853TIP3    H153754   3.666   4.478  10.392 -0.8044 -1.6611 -0.6374
 9853TIP3    H253755   3.706   4.534  10.258 -2.5858 -1.9107 -1.3014
 9854TIP3   OH253756   6.717   1.901  11.053 -0.2939 -0.0251 -0.2533
 9854TIP3    H153757   6.784   1.946  11.002  0.2498  1.2398  1.4828
 9854TIP3    H253758   6.647   1.882  10.990 -0.0394  2.2522 -1.3036
 9855TIP3   OH253759   5.387   6.159  11.216 -0.2352 -0.2882 -0.3223
 9855TIP3    H153760   5.329   6.214  11.269  1.7287 -1.1499  3.0078
 9855TIP3    H253761   5.348   6.072  11.219  0.1847 -0.4601  0.2316
 9856TIP3   OH253762   1.008   1.882   9.439  0.2078  0.2222  0.2044
 9856TIP3    H153763   1.020   1.954   9.377  1.7536 -1.1139 -1.1242
 9856TIP3    H253764   1.045   1.805   9.395 -2.7821 -1.7844  0.8932
 9857TIP3   OH253765   5.176   1.852   9.511 -0.0410  0.5753 -0.1087
 9857TIP3    H153766   5.268   1.876   9.500 -0.0743  0.3613 -0.9428
 9857TIP3    H253767   5.171   1.762   9.478 -0.2187 -0.0464  1.5376
 9858TIP3   OH253768   5.981   6.012   9.444  0.0203 -0.1737 -0.3272
 9858TIP3    H153769   6.054   5.978   9.495 -0.9441 -2.3680 -0.3002
 9858TIP3    H253770   6.011   6.097   9.411  1.4421  0.3477  2.1215
 9859TIP3   OH253771   5.142   2.449  11.090  0.1196  0.5004  0.1198
 9859TIP3    H153772   5.162   2.420  11.001 -0.4770 -1.2148  0.5009
 9859TIP3    H253773   5.146   2.544  11.086 -2.2305  0.5937 -2.3209
 9860TIP3   OH253774   4.466   1.858  10.237 -0.7320 -0.0102 -0.0162
 9860TIP3    H153775   4.443   1.842  10.328  1.0788 -1.0100  0.3112
 9860TIP3    H253776   4.424   1.942  10.216 -1.9643 -0.2290  1.4142
 9861TIP3   OH253777   0.206   1.322   9.162 -0.4983  0.8996 -0.2115
 9861TIP3    H153778   0.126   1.375   9.164 -0.7414  0.5276  1.5605
 9861TIP3    H253779   0.185   1.249   9.104 -1.4082  0.8695  0.1371
 9862TIP3   OH253780   0.616   4.466  10.061 -0.8201 -0.2830  0.1043
 9862TIP3    H153781   0.676   4.392  10.066 -0.4167 -0.0209 -0.7411
 9862TIP3    H253782   0.671   4.543  10.077 -0.9387 -0.0491 -0.5861
 9863TIP3   OH253783   4.719   5.077  10.490 -0.3159 -0.3572 -0.6820
 9863TIP3    H153784   4.758   5.129  10.420  1.8345  1.3583  1.6064
 9863TIP3    H253785   4.626   5.099  10.487 -0.3280 -0.4723 -3.0299
 9864TIP3   OH253786   1.767   6.381  10.330  0.3173 -0.1884  0.0443
 9864TIP3    H153787   1.687   6.395  10.279  0.6420 -1.0138 -0.7403
 9864TIP3    H253788   1.808   6.467  10.335 -0.8029  0.3233  0.7996
 9865TIP3   OH253789   6.218   1.474  10.908  0.7177 -0.0401 -0.1468
 9865TIP3    H153790   6.156   1.425  10.962  0.9979 -1.1885 -0.8300
 9865TIP3    H253791   6.303   1.434  10.927  1.0630  0.6596 -0.1915
 9866TIP3   OH253792   1.397   1.032  11.243 -0.0947  0.1128  0.0181
 9866TIP3    H153793   1.420   1.059  11.154  1.0560 -0.7909  0.0291
 9866TIP3    H253794   1.461   0.966  11.266  0.7785  1.6093  2.2286
 9867TIP3   OH253795   3.965   4.534  10.447  0.1927  0.8425 -0.7684
 9867TIP3    H153796   4.028   4.470  10.480  0.0242  0.7767 -0.5763
 9867TIP3    H253797   3.897   4.482  10.404  0.2026  0.9072 -0.8623
 9868TIP3   OH253798   1.360   0.419  10.063  0.1285 -0.0207  0.1697
 9868TIP3    H153799   1.407   0.480  10.119 -2.2985  1.4747  0.7494
 9868TIP3    H253800   1.267   0.438  10.079 -0.7163 -0.7466 -2.9902
 9869TIP3   OH253801   4.177   3.260   9.912 -0.3206  0.5638  0.2078
 9869TIP3    H153802   4.187   3.343   9.866  4.3350  1.1220  1.6724
 9869TIP3    H253803   4.235   3.200   9.866 -0.7662 -0.8191  1.3632
 9870TIP3   OH253804   3.614   5.860  11.025 -0.3067 -0.1421  0.0364
 9870TIP3    H153805   3.546   5.837  10.962 -0.3581 -0.1923  0.1108
 9870TIP3    H253806   3.692   5.877  10.972 -0.7591  1.3710 -0.1823
 9871TIP3   OH253807   5.144   5.626   9.453  0.1627  0.5185 -0.1308
 9871TIP3    H153808   5.055   5.633   9.420 -0.1681 -0.5486  0.4766
 9871TIP3    H253809   5.179   5.548   9.411  0.6823  0.7184 -0.0775
 9872TIP3   OH253810   5.197   4.755  10.813  0.1996  0.2184 -0.1970
 9872TIP3    H153811   5.222   4.789  10.727 -1.0849  0.1694 -0.6159
 9872TIP3    H253812   5.279   4.723  10.852  0.8468  0.5518 -1.2556
 9873TIP3   OH253813   5.355   3.525  11.318 -0.3900 -0.3004  0.4304
 9873TIP3    H153814   5.363   3.519  11.223 -0.7007  0.4462  0.3500
 9873TIP3    H253815   5.301   3.450  11.342 -3.0741  1.2258 -0.3688
 9874TIP3   OH253816   6.180   5.351  10.786  0.6448 -0.4934  0.2559
 9874TIP3    H153817   6.208   5.274  10.835  2.3310  1.0388  1.8375
 9874TIP3    H253818   6.198   5.329  10.694  0.3563 -2.2376  0.5852
 9875TIP3   OH253819   0.694   5.141   9.914 -0.7005 -0.4843  0.8699
 9875TIP3    H153820   0.702   5.226   9.956  3.6086 -0.5122  0.5867
 9875TIP3    H253821   0.653   5.159   9.829  1.2078  1.5948  0.3106
 9876TIP3   OH253822   3.345   6.288  11.474  0.4120 -0.1316 -0.2707
 9876TIP3    H153823   3.344   6.300  11.569 -0.6286  2.3340 -0.5260
 9876TIP3    H253824   3.436   6.265  11.454  0.6952 -0.5141  1.2720
 9877TIP3   OH253825   5.228   1.527  11.506  0.3990 -0.3259  0.6190
 9877TIP3    H153826   5.206   1.552  11.416  0.3785 -0.6340  0.5362
 9877TIP3    H253827   5.322   1.511  11.504  0.2515 -1.1864  0.4438
 9878TIP3   OH253828   6.210   4.527   8.874  0.4338  0.2041  0.1502
 9878TIP3    H153829   6.119   4.518   8.903 -0.2198  2.3526 -1.0023
 9878TIP3    H253830   6.203   4.548   8.781  2.1729 -0.5257 -0.1752
 9879TIP3   OH253831   5.265   2.589   9.235  0.3643 -0.3399  0.2559
 9879TIP3    H153832   5.290   2.517   9.176 -1.9944  0.4742 -1.9348
 9879TIP3    H253833   5.195   2.553   9.289 -0.3827  0.0645 -0.4095
 9880TIP3   OH253834   1.674   2.556  10.910  0.2376  0.1404 -0.4723
 9880TIP3    H153835   1.712   2.475  10.943  1.4173  1.1007  0.6352
 9880TIP3    H253836   1.714   2.567  10.823  0.4152 -0.2139 -0.4372
 9881TIP3   OH253837   3.075   3.640   9.183 -0.2902 -0.8447  0.0609
 9881TIP3    H153838   3.137   3.586   9.232  0.4555 -0.6450 -0.6447
 9881TIP3    H253839   3.059   3.716   9.239  0.3925 -0.7195  0.0944
 9882TIP3   OH253840   3.204   1.248   9.195  0.1691 -0.1130  0.7166
 9882TIP3    H153841   3.169   1.165   9.162  0.6370  0.5162 -1.5233
 9882TIP3    H253842   3.131   1.287   9.242 -1.2908 -0.1417 -1.3854
 9883TIP3   OH253843   6.467   5.432  11.050 -0.3711  0.3043  0.0968
 9883TIP3    H153844   6.504   5.366  10.991 -1.3144 -1.8496  1.7839
 9883TIP3    H253845   6.536   5.497  11.060  1.0310 -0.9808 -0.7843
 9884TIP3   OH253846   3.543   5.199   9.967 -0.1383  0.3866  0.0731
 9884TIP3    H153847   3.471   5.249  10.007  0.4268  0.7731  0.6181
 9884TIP3    H253848   3.524   5.108   9.990 -0.8931  0.3966 -0.4834
 9885TIP3   OH253849   0.091   1.228   9.711 -0.3455 -0.0495  0.5065
 9885TIP3    H153850   0.068   1.294   9.646  1.7781  0.4055  0.1526
 9885TIP3    H253851   0.117   1.151   9.660  1.4162  0.3353  0.7467
 9886TIP3   OH253852   1.665   2.446  11.921 -0.0125  0.0591  0.1340
 9886TIP3    H153853   1.701   2.446  12.009  0.1984 -1.4286  0.0790
 9886TIP3    H253854   1.576   2.412  11.930 -0.4340  1.0535 -0.0895
 9887TIP3   OH253855   6.529   5.777   9.927  0.6776 -0.3719  0.4984
 9887TIP3    H153856   6.553   5.715   9.996  0.5287 -1.4034 -0.3476
 9887TIP3    H253857   6.440   5.804   9.950  0.0572 -1.8457 -0.0490
 9888TIP3   OH253858   3.551   3.604  10.245 -0.5346 -0.0586 -0.3516
 9888TIP3    H153859   3.541   3.663  10.170 -1.1497  1.2331  0.6930
 9888TIP3    H253860   3.572   3.519  10.206  0.4242  0.8401 -1.9131
 9889TIP3   OH253861   5.617   5.802   9.250 -0.3085  0.3296  0.0416
 9889TIP3    H153862   5.646   5.714   9.272  0.7633  0.6224 -0.1573
 9889TIP3    H253863   5.698   5.851   9.233 -0.8893  0.2889 -3.9527
 9890TIP3   OH253864   2.434   2.231   9.852  0.3040  0.4835  0.1699
 9890TIP3    H153865   2.411   2.138   9.855  0.0619  0.5241 -0.2904
 9890TIP3    H253866   2.520   2.234   9.810 -0.0216  0.5188 -0.5032
 9891TIP3   OH253867   2.928   3.462  11.083  0.0287 -0.1004  0.7840
 9891TIP3    H153868   2.919   3.370  11.056  0.6117 -0.1647  0.8036
 9891TIP3    H253869   2.838   3.490  11.099 -0.1269 -0.7881  1.1674
 9892TIP3   OH253870   1.451   1.738  11.574  0.5099 -0.2471  0.4220
 9892TIP3    H153871   1.450   1.667  11.638  1.6775  1.7463  2.8050
 9892TIP3    H253872   1.544   1.751  11.554  0.2265 -0.1424 -0.9257
 9893TIP3   OH253873   1.710   1.313  12.451  0.0827 -0.4100  0.3856
 9893TIP3    H153874   1.801   1.294  12.473 -0.5381 -1.0551  2.5843
 9893TIP3    H253875   1.710   1.324  12.356  2.4594 -0.2894  0.3557
 9894TIP3   OH253876   4.323   0.121  10.404 -0.5725  0.0834  0.1070
 9894TIP3    H153877   4.241   0.105  10.358  0.3008  0.1746 -1.5686
 9894TIP3    H253878   4.386   0.061  10.363  0.2401  0.0929  1.2726
 9895TIP3   OH253879   1.802   5.415  11.688 -0.3431 -0.6868 -0.1240
 9895TIP3    H153880   1.735   5.467  11.732 -0.8795 -1.5697  0.1210
 9895TIP3    H253881   1.797   5.329  11.728  2.1545 -0.3335  1.1510
 9896TIP3   OH253882   3.294   3.678  11.877  0.0077  0.1582  0.3073
 9896TIP3    H153883   3.268   3.753  11.930 -0.3046  0.7710 -0.6871
 9896TIP3    H253884   3.218   3.620  11.877 -0.3943  0.6660 -0.3405
 9897TIP3   OH253885   0.469   4.697  11.192  0.5791  0.8313  0.0260
 9897TIP3    H153886   0.486   4.787  11.163  0.6314  0.6832 -0.3945
 9897TIP3    H253887   0.455   4.706  11.287  0.6260  1.2767 -0.0047
 9898TIP3   OH253888   6.304   0.299   9.119 -0.0441 -0.3125  0.0382
 9898TIP3    H153889   6.293   0.210   9.086 -1.6908 -0.4416  0.8046
 9898TIP3    H253890   6.281   0.355   9.045 -2.1222 -0.5924  0.3945
 9899TIP3   OH253891   3.422   3.597   9.407 -0.0102 -0.2099 -0.1584
 9899TIP3    H153892   3.443   3.679   9.363  2.0238 -0.8452 -0.4810
 9899TIP3    H253893   3.435   3.530   9.340 -0.1224 -0.9139  0.5132
 9900TIP3   OH253894   6.521   1.863   9.744  0.2815  0.6483  0.9414
 9900TIP3    H153895   6.494   1.944   9.787  2.3703  2.0189 -0.1194
 9900TIP3    H253896   6.590   1.827   9.800  1.4944  1.2836 -0.0972
 9901TIP3   OH253897   4.394   6.632   9.827 -0.2202  0.2271  1.1281
 9901TIP3    H153898   4.390   6.697   9.757 -1.4408 -1.3797 -0.3666
 9901TIP3    H253899   4.487   6.610   9.835 -0.0335  0.6236  0.1855
 9902TIP3   OH253900   6.272   5.364   9.414 -0.2496  0.2775  0.1374
 9902TIP3    H153901   6.355   5.338   9.376 -0.8506 -1.4698 -0.0724
 9902TIP3    H253902   6.283   5.457   9.436  1.5038  0.2431 -0.4801
 9903TIP3   OH253903   6.232   2.858  11.641  0.6008 -0.0339  0.2425
 9903TIP3    H153904   6.182   2.873  11.721 -0.6976  1.7166 -0.8249
 9903TIP3    H253905   6.172   2.811  11.583  0.9180  0.2518 -0.3275
 9904TIP3   OH253906   5.757   0.013  10.076  0.4985  0.0966 -0.5052
 9904TIP3    H153907   5.681  -0.035  10.041 -0.3433  0.4454  0.7752
 9904TIP3    H253908   5.808   0.037   9.998  0.2990 -1.7860 -1.2700
 9905TIP3   OH253909   6.702   5.983  11.776 -0.0992 -0.2216  0.5284
 9905TIP3    H153910   6.623   5.932  11.758 -1.1221  1.2442  0.6268
 9905TIP3    H253911   6.742   5.940  11.852 -1.1088 -0.6831  0.8095
 9906TIP3   OH253912   6.056   4.885  11.482 -0.4637 -0.0154 -0.8484
 9906TIP3    H153913   5.980   4.938  11.459  0.4240  2.3987  1.3441
 9906TIP3    H253914   6.030   4.840  11.563  0.2145  0.3252 -0.4373
 9907TIP3   OH253915   6.054   3.464  10.102  0.1390  0.2604 -0.5993
 9907TIP3    H153916   6.017   3.447  10.016 -1.8427 -0.6205  0.3778
 9907TIP3    H253917   6.093   3.552  10.095  0.6574 -0.0875 -2.5519
 9908TIP3   OH253918   0.860   2.592   9.126  0.1404 -0.7969 -0.3196
 9908TIP3    H153919   0.847   2.497   9.133  1.1332 -0.9609 -0.4755
 9908TIP3    H253920   0.947   2.601   9.088 -0.8579  0.1617 -2.5424
 9909TIP3   OH253921   4.095   0.491  11.962 -0.4874 -0.3782  0.0040
 9909TIP3    H153922   4.021   0.538  11.924  0.5487  0.3865 -1.1541
 9909TIP3    H253923   4.146   0.462  11.887  0.6345 -0.4857  0.7814
 9910TIP3   OH253924   2.960   6.635  11.114 -0.2378  0.2949 -0.1708
 9910TIP3    H153925   3.009   6.710  11.078 -0.5660  0.8636  0.5458
 9910TIP3    H253926   3.013   6.559  11.091  1.0086  0.8958  0.5717
 9911TIP3   OH253927   5.357   3.713  10.353 -0.2188 -0.3679 -0.0918
 9911TIP3    H153928   5.314   3.638  10.393  0.1005 -0.6054 -0.1955
 9911TIP3    H253929   5.435   3.728  10.407 -0.3680 -0.0077  0.0283
 9912TIP3   OH253930   3.115   4.701   9.805  0.2119  0.2852 -0.2698
 9912TIP3    H153931   3.088   4.670   9.719 -1.0228 -0.5371  0.3810
 9912TIP3    H253932   3.041   4.752   9.836  1.0923  1.5130 -0.1315
 9913TIP3   OH253933   3.679   2.693  10.930  0.2157 -0.2687  0.0086
 9913TIP3    H153934   3.624   2.619  10.905  0.2857  0.1652 -1.5165
 9913TIP3    H253935   3.732   2.660  11.003 -0.7277 -1.2698  0.2621
 9914TIP3   OH253936   6.275   4.990  11.961 -0.2657 -0.1276 -0.2980
 9914TIP3    H153937   6.330   4.998  12.039 -1.9234  1.6865  0.7940
 9914TIP3    H253938   6.299   4.906  11.923  2.9494  0.3889  0.2887
 9915TIP3   OH253939   5.087   3.457  10.303  0.2053  0.2694 -0.0644
 9915TIP3    H153940   5.050   3.378  10.341 -1.7180 -0.0149 -2.2687
 9915TIP3    H253941   5.170   3.428  10.264  0.2323 -0.3224  0.4180
 9916TIP3   OH253942   4.259   2.095  11.181  0.6433 -0.1811 -0.0903
 9916TIP3    H153943   4.180   2.144  11.202  0.5150 -0.9832  1.4833
 9916TIP3    H253944   4.251   2.014  11.233  2.3902 -0.3730 -0.0648
 9917TIP3   OH253945   0.322   1.373   9.477  0.4669 -0.0083 -0.4567
 9917TIP3    H153946   0.227   1.369   9.468  0.2752 -0.6961  1.5431
 9917TIP3    H253947   0.354   1.307   9.415 -0.6038 -2.5162  1.5044
 9918TIP3   OH253948   4.733   5.136   9.443  0.3017  0.1972  0.3057
 9918TIP3    H153949   4.817   5.105   9.410  1.2926  0.5596  2.3451
 9918TIP3    H253950   4.741   5.231   9.446 -0.9605  0.3945 -1.3809
 9919TIP3   OH253951   1.709   0.597  11.279 -0.2731 -0.1530 -0.2458
 9919TIP3    H153952   1.656   0.522  11.253  0.3170 -0.1693 -1.5248
 9919TIP3    H253953   1.767   0.612  11.203  2.1657 -0.6963  1.3945
 9920TIP3   OH253954   1.518   6.104  10.478  0.1671  0.4812  0.2046
 9920TIP3    H153955   1.476   6.018  10.478 -1.8010  1.3598 -1.3228
 9920TIP3    H253956   1.611   6.086  10.493 -0.0443 -1.9838 -0.9718
 9921TIP3   OH253957   6.143   4.804  10.970 -0.5053  0.1919 -0.2718
 9921TIP3    H153958   6.185   4.759  11.044  3.5385  0.5973 -2.1028
 9921TIP3    H253959   6.096   4.734  10.924 -0.1156 -0.7658  0.7273
 9922TIP3   OH253960   5.810   4.444  11.492 -0.3044 -0.0692  0.4750
 9922TIP3    H153961   5.823   4.388  11.569  1.6456 -0.9567 -0.4408
 9922TIP3    H253962   5.816   4.385  11.417  2.5315  1.3609 -0.5750
 9923TIP3   OH253963   2.602   5.742  10.903  0.0530 -0.5190  0.3256
 9923TIP3    H153964   2.566   5.753  10.991 -0.0891 -0.2241  0.2305
 9923TIP3    H253965   2.691   5.708  10.917  0.7613  1.3849  0.6579
 9924TIP3   OH253966   0.145   1.030   9.545 -0.2518  0.0813  0.3637
 9924TIP3    H153967   0.097   0.953   9.574  0.3198 -0.1553  0.6929
 9924TIP3    H253968   0.195   1.001   9.469 -1.7584  0.7036 -0.9186
 9925TIP3   OH253969   2.088   6.435  11.413  0.2954  0.3400 -0.2504
 9925TIP3    H153970   2.040   6.466  11.490 -1.4399  0.2746 -1.2408
 9925TIP3    H253971   2.020   6.395  11.358  1.7215 -0.9459 -1.1457
 9926TIP3   OH253972   2.732   5.289  11.833  0.2493  0.3138 -0.1381
 9926TIP3    H153973   2.759   5.337  11.912  0.2464  4.7537 -2.5333
 9926TIP3    H253974   2.649   5.331  11.807  0.4350 -0.7520 -2.6826
 9927TIP3   OH253975   4.526   3.400  10.182 -0.2414 -0.2663  0.2220
 9927TIP3    H153976   4.490   3.480  10.220 -1.4370 -0.4011 -0.5636
 9927TIP3    H253977   4.450   3.343  10.170  0.3090 -0.7830 -0.9915
 9928TIP3   OH253978   4.745   5.927  10.210  0.7136  0.0590 -0.2961
 9928TIP3    H153979   4.722   5.835  10.198 -1.7733  0.7791 -1.8161
 9928TIP3    H253980   4.798   5.929  10.289 -0.6653 -2.4721  0.7788
 9929TIP3   OH253981   6.465   6.266   9.376  0.1868 -0.0068 -0.2696
 9929TIP3    H153982   6.561   6.262   9.367  0.2172  0.4633 -0.1478
 9929TIP3    H253983   6.433   6.225   9.295  0.4854 -1.2651  0.2164
 9930TIP3   OH253984   4.837   1.854  11.689 -0.5142  0.7107 -0.3403
 9930TIP3    H153985   4.857   1.806  11.609 -1.3075  1.3236 -0.9296
 9930TIP3    H253986   4.894   1.816  11.755  0.1806  0.2128 -1.2027
 9931TIP3   OH253987   0.220   1.808  10.087 -0.1603 -0.1893  0.0430
 9931TIP3    H153988   0.213   1.801  10.182  0.7965 -0.2707  0.1092
 9931TIP3    H253989   0.168   1.734  10.054 -1.5279  0.5535  0.4612
 9932TIP3   OH253990   1.181   5.775  11.937  0.4076 -0.2500 -0.1441
 9932TIP3    H153991   1.253   5.835  11.920  0.4801 -0.2136  0.2722
 9932TIP3    H253992   1.188   5.756  12.031 -0.9154  0.7808  0.1781
 9933TIP3   OH253993   5.634   6.615  10.587 -0.2478  0.4539  0.1632
 9933TIP3    H153994   5.600   6.578  10.506 -1.2313 -0.8243  1.1045
 9933TIP3    H253995   5.599   6.705  10.589 -1.3766  0.0445 -0.1936
 9934TIP3   OH253996   4.644   3.615   9.934 -0.1267 -0.0340 -0.0022
 9934TIP3    H153997   4.737   3.598   9.949 -0.0142 -1.3692 -1.8366
 9934TIP3    H253998   4.601   3.584  10.014  0.7317 -2.9269 -0.5539
 9935TIP3   OH253999   2.492   1.300  10.845  0.4956 -0.2646  0.8919
 9935TIP3    H154000   2.466   1.304  10.937  3.0824  0.3386  1.6813
 9935TIP3    H254001   2.560   1.233  10.842  0.9241  0.1887 -0.4585
 9936TIP3   OH254002   2.346   2.753   9.647 -0.1499  0.1534  0.4473
 9936TIP3    H154003   2.352   2.710   9.732 -1.7350  0.9213  0.9917
 9936TIP3    H254004   2.426   2.806   9.642  0.5865 -0.8965  0.8718
 9937TIP3   OH254005   1.680   0.804  11.020  0.3338  0.1515  0.0755
 9937TIP3    H154006   1.625   0.726  11.021 -2.0245  1.6519 -2.3367
 9937TIP3    H254007   1.713   0.810  10.931 -1.4705  3.0919 -0.5200
 9938TIP3   OH254008   1.857   6.629  10.308 -0.1289  0.1375  0.1831
 9938TIP3    H154009   1.834   6.720  10.325  1.3422  0.5160  0.2714
 9938TIP3    H254010   1.882   6.627  10.216 -0.7907 -0.3308  0.0028
 9939TIP3   OH254011   1.685   6.537  12.295 -0.6501 -0.6066  0.1562
 9939TIP3    H154012   1.651   6.618  12.333  1.0200 -0.4568  1.4339
 9939TIP3    H254013   1.622   6.515  12.226 -1.5294  1.3752  0.2526
 9940TIP3   OH254014   5.565   0.791   8.863  0.1228 -0.3711  0.2099
 9940TIP3    H154015   5.510   0.793   8.941 -1.1282  1.5284 -0.6570
 9940TIP3    H254016   5.589   0.882   8.847  1.2976 -0.8453 -0.9858
 9941TIP3   OH254017   5.093   5.379   9.802 -0.0478 -0.1829  0.2222
 9941TIP3    H154018   5.179   5.345   9.777  0.1419  1.1034 -0.9716
 9941TIP3    H254019   5.084   5.356   9.895  1.6241 -0.2298  0.3933
 9942TIP3   OH254020   5.610   1.068  11.041 -0.1396  0.5269  0.5203
 9942TIP3    H154021   5.634   1.048  11.131  2.8039  0.1622 -0.2420
 9942TIP3    H254022   5.584   0.983  11.004  0.9403  0.2085  0.4438
 9943TIP3   OH254023   2.994   1.610   9.645 -0.4272 -0.5113  0.1020
 9943TIP3    H154024   3.081   1.583   9.613 -0.6344  0.1985 -1.1453
 9943TIP3    H254025   2.942   1.530   9.643 -0.5569 -0.4292 -1.8753
 9944TIP3   OH254026   3.243   1.067  11.370 -0.3811 -0.5228  0.3145
 9944TIP3    H154027   3.338   1.069  11.384 -0.2016  0.4147 -0.9611
 9944TIP3    H254028   3.209   1.027  11.450  1.0779 -0.8079  0.8271
 9945TIP3   OH254029   4.017   4.980  10.699  0.2308 -0.0763  0.0067
 9945TIP3    H154030   3.997   4.905  10.642  1.0491 -1.1780  1.1029
 9945TIP3    H254031   3.942   5.038  10.690  0.2538 -0.2910 -2.0468
 9946TIP3   OH254032   2.554   6.263  10.037 -0.0628  0.0266 -0.2035
 9946TIP3    H154033   2.560   6.236   9.945 -0.1526 -1.7163  0.2675
 9946TIP3    H254034   2.577   6.185  10.087  1.2435  1.2907  1.2798
 9947TIP3   OH254035   1.095   2.564   8.495  0.1629 -0.0601 -0.3929
 9947TIP3    H154036   1.028   2.513   8.541  0.0867  0.1100 -0.3148
 9947TIP3    H254037   1.092   2.532   8.405 -0.6447  0.5712 -0.6029
 9948TIP3   OH254038   6.614   2.725   9.424  0.2078  0.3559  0.5952
 9948TIP3    H154039   6.578   2.749   9.339 -3.3481  1.2931  2.1714
 9948TIP3    H254040   6.682   2.790   9.441 -0.3782  1.3509 -0.6936
 9949TIP3   OH254041   5.302   4.352   9.191 -0.8168  0.4685  0.4640
 9949TIP3    H154042   5.228   4.361   9.132 -1.0457  2.3372  0.9867
 9949TIP3    H254043   5.296   4.262   9.223 -3.5625  0.8947  1.4082
 9950TIP3   OH254044   3.578   2.169  10.415 -0.2645 -0.1273  0.1501
 9950TIP3    H154045   3.634   2.246  10.427  0.5539 -0.2720 -2.1999
 9950TIP3    H254046   3.624   2.099  10.461 -0.7432  0.6362  1.8464
 9951TIP3   OH254047   6.127   2.875   9.873  0.1216  0.2783  0.0542
 9951TIP3    H154048   6.118   2.951   9.930 -1.5926  0.4284 -0.3712
 9951TIP3    H254049   6.052   2.820   9.894  0.5255 -0.5873 -0.6858
 9952TIP3   OH254050   3.186   1.732  11.341 -0.0790  0.0731  0.5107
 9952TIP3    H154051   3.108   1.676  11.338 -0.1922  0.2528 -0.0327
 9952TIP3    H254052   3.259   1.671  11.349 -0.3603 -0.0469  2.9343
 9953TIP3   OH254053   2.921   5.912   9.102  0.5391  0.0602 -0.2294
 9953TIP3    H154054   2.857   5.869   9.159  0.5127  1.8213  1.1752
 9953TIP3    H254055   2.869   5.956   9.035  0.1755  1.8392  1.1558
 9954TIP3   OH254056   1.054   4.408  10.126 -0.1239 -0.0960  0.5612
 9954TIP3    H154057   1.117   4.479  10.134  0.2460 -0.0302 -2.1822
 9954TIP3    H254058   0.996   4.419  10.201  1.8119  1.1300  1.9760
 9955TIP3   OH254059   2.900   1.846   9.561  0.1692 -0.3816 -0.2071
 9955TIP3    H154060   2.948   1.767   9.584 -2.3456 -1.8177  0.5017
 9955TIP3    H254061   2.919   1.859   9.468  0.2579 -2.1170 -0.4571
 9956TIP3   OH254062   1.858   6.328  10.691  0.1850 -0.1887 -0.7895
 9956TIP3    H154063   1.863   6.252  10.749  1.2256  0.8499  0.5454
 9956TIP3    H254064   1.895   6.297  10.608  2.2737 -0.7235  0.2566
 9957TIP3   OH254065   2.764   4.232  10.029 -0.5761 -0.1189  0.3451
 9957TIP3    H154066   2.759   4.323   9.998  1.6532  0.5472  1.6384
 9957TIP3    H254067   2.840   4.195   9.983  0.3155 -0.3579  1.9324
 9958TIP3   OH254068   5.154   1.167   9.792 -0.3277 -0.5318 -0.2777
 9958TIP3    H154069   5.131   1.089   9.742  1.4607 -1.5212  0.3876
 9958TIP3    H254070   5.244   1.187   9.767 -0.4790  0.8437  0.1739
 9959TIP3   OH254071   4.510   0.996  10.357 -0.2192 -0.0391  0.4214
 9959TIP3    H154072   4.448   0.940  10.310  1.0846 -0.7209 -0.5996
 9959TIP3    H254073   4.564   0.934  10.407  1.5064  0.1583 -1.0385
 9960TIP3   OH254074   1.893   1.139  11.989  0.7775 -0.1611 -0.3378
 9960TIP3    H154075   1.906   1.162  12.081 -0.8150  1.2903 -0.4184
 9960TIP3    H254076   1.816   1.081  11.989  0.2764  0.4833 -0.7999
 9961TIP3   OH254077   4.117   5.237  10.185  0.1975 -0.0566 -0.7312
 9961TIP3    H154078   4.203   5.272  10.206  0.0276  1.3894 -2.2202
 9961TIP3    H254079   4.075   5.222  10.270  0.9737  1.6818  0.0023
 9962TIP3   OH254080   5.703   6.427  10.766  0.2813 -0.5300  0.0760
 9962TIP3    H154081   5.656   6.346  10.744  1.2583 -1.0324 -0.2413
 9962TIP3    H254082   5.690   6.483  10.689 -0.2799 -0.4333  0.2354
 9963TIP3   OH254083   1.174   0.448  10.986 -0.4857 -0.3354  0.3968
 9963TIP3    H154084   1.212   0.373  10.940 -1.1480  1.2509 -3.0728
 9963TIP3    H254085   1.189   0.522  10.928 -2.2372  1.7456  2.3989
 9964TIP3   OH254086   1.751   6.081   9.282 -0.1474  0.6092 -0.1299
 9964TIP3    H154087   1.744   5.996   9.326  1.5337  0.8968  0.8078
 9964TIP3    H254088   1.712   6.143   9.344 -0.4177  0.6572 -0.3469
 9965TIP3   OH254089   3.186   2.353  11.364  0.3231  0.0122  0.0116
 9965TIP3    H154090   3.191   2.311  11.278 -2.9873  0.7195 -0.6438
 9965TIP3    H254091   3.273   2.390  11.377  2.2260 -3.5618 -1.0992
 9966TIP3   OH254092   4.762   3.946   8.851  0.1119  0.6174 -0.4433
 9966TIP3    H154093   4.812   3.912   8.925 -0.1890 -0.1622 -0.5826
 9966TIP3    H254094   4.698   4.005   8.890 -0.8678 -0.7287  0.0919
 9967TIP3   OH254095   1.567   1.848  12.460 -0.4826 -0.5331  0.4668
 9967TIP3    H154096   1.616   1.875  12.537 -0.1849 -0.1062  0.1333
 9967TIP3    H254097   1.519   1.770  12.488 -1.0795  0.1217  1.3462
 9968TIP3   OH254098   6.035   2.096  11.922  0.0202  0.0325  0.6657
 9968TIP3    H154099   5.973   2.162  11.951  0.1845  0.4741  0.0274
 9968TIP3    H254100   5.983   2.016  11.913 -0.5752  0.5339 -0.4157
 9969TIP3   OH254101   3.453   0.528  10.679 -0.2899  0.1892  0.1375
 9969TIP3    H154102   3.498   0.444  10.673  1.3008  0.9217  1.2252
 9969TIP3    H254103   3.431   0.537  10.772 -0.4860  0.9483  0.0283
 9970TIP3   OH254104   4.902   3.469   8.695 -0.4736 -0.5014  0.1234
 9970TIP3    H154105   4.877   3.412   8.623 -1.5157 -0.6952  0.6161
 9970TIP3    H254106   4.847   3.546   8.684  1.2474  0.6488 -0.8004
 9971TIP3   OH254107   0.293   3.621  11.856  0.0215  0.1514  0.0089
 9971TIP3    H154108   0.283   3.538  11.810 -1.2943 -0.1336  0.7394
 9971TIP3    H254109   0.329   3.596  11.942 -0.7535  0.2753  0.3779
 9972TIP3   OH254110   6.204   4.046  10.042 -0.3497 -0.3184  0.2178
 9972TIP3    H154111   6.109   4.052  10.039 -0.3221  0.8979  1.1814
 9972TIP3    H254112   6.232   4.061   9.952 -0.9789  1.6572  0.3146
 9973TIP3   OH254113   5.357   0.366  11.366  0.4848  0.2324  1.0606
 9973TIP3    H154114   5.273   0.339  11.404  0.1087 -1.1600 -0.5862
 9973TIP3    H254115   5.392   0.285  11.327  2.3823  0.8859  1.3191
 9974TIP3   OH254116   5.929   2.146  12.286  0.0937  0.1924  0.4214
 9974TIP3    H154117   5.917   2.076  12.222  2.2036  0.1381 -0.0002
 9974TIP3    H254118   5.980   2.213  12.239  1.9751  0.0103  2.0727
 9975TIP3   OH254119   0.539   2.970  10.052 -0.0594  0.0872  0.7539
 9975TIP3    H154120   0.539   2.880  10.021  0.5396  0.7110 -1.1855
 9975TIP3    H254121   0.466   2.974  10.115 -1.1200 -1.3424 -0.3209
 9976TIP3   OH254122   1.810   3.242  10.550  0.2956 -0.4883  0.1345
 9976TIP3    H154123   1.763   3.322  10.526  0.8628 -0.3165 -0.4186
 9976TIP3    H254124   1.741   3.178  10.568 -0.1490 -0.4059 -1.2051
 9977TIP3   OH254125   3.318   1.072   8.864 -0.1100 -0.0508  0.0134
 9977TIP3    H154126   3.226   1.090   8.885  0.2073  0.5579  0.9472
 9977TIP3    H254127   3.359   1.158   8.858  0.5056 -0.3316  0.0937
 9978TIP3   OH254128   5.012   2.396  10.472  0.1204 -0.4405  0.0467
 9978TIP3    H154129   5.026   2.405  10.378  0.2536 -0.4123  0.0692
 9978TIP3    H254130   5.069   2.463  10.512 -0.0333 -0.3633  0.1412
 9979TIP3   OH254131   0.118   5.605  10.455  0.1097  0.2776 -0.1724
 9979TIP3    H154132   0.168   5.676  10.495  0.4288 -1.2963  2.4781
 9979TIP3    H254133   0.055   5.579  10.523  0.3596 -2.3013 -0.8186
 9980TIP3   OH254134   1.645   3.444  11.511  0.2042  0.3635 -0.5761
 9980TIP3    H154135   1.732   3.446  11.471 -0.6400  1.1778 -2.5267
 9980TIP3    H254136   1.587   3.477  11.442 -1.3058  2.5072  1.5466
 9981TIP3   OH254137   3.726   3.148   9.336  0.2927  0.0123 -0.2268
 9981TIP3    H154138   3.780   3.170   9.259 -0.4116  1.7811 -0.2707
 9981TIP3    H254139   3.709   3.232   9.378 -1.7814 -0.5693  0.2220
 9982TIP3   OH254140   2.990   0.981   9.951 -0.3734  0.7821  0.3223
 9982TIP3    H154141   2.987   1.039   9.875 -2.4269  0.8919  0.4438
 9982TIP3    H254142   2.902   0.985   9.989 -0.1124 -1.1629  1.2799
 9983TIP3   OH254143   5.014   4.943  10.679 -0.7411 -0.0720 -0.5118
 9983TIP3    H154144   5.065   4.995  10.741 -1.2395  0.5807 -0.6318
 9983TIP3    H254145   5.038   4.853  10.697  0.3877  0.2107 -0.4986
 9984TIP3   OH254146   5.710   5.866  10.368 -0.2948  0.2590  0.4429
 9984TIP3    H154147   5.617   5.842  10.361 -0.9652  2.3457  1.2834
 9984TIP3    H254148   5.725   5.923  10.293  0.6124 -0.8689 -0.2491
 9985TIP3   OH254149   2.975   5.933  10.859 -0.3439  0.0163 -0.4305
 9985TIP3    H154150   2.935   5.949  10.774 -0.3273 -1.8867 -0.8347
 9985TIP3    H254151   2.925   5.860  10.896 -0.2647  0.7106  1.1541
 9986TIP3   OH254152   2.854   1.499  10.334  0.3617  0.0119 -0.1695
 9986TIP3    H154153   2.944   1.528  10.350 -0.1024  0.8425  1.0758
 9986TIP3    H254154   2.800   1.556  10.389 -1.1069  0.7587 -2.2640
 9987TIP3   OH254155   5.203   4.974  10.351 -0.6301 -0.4197 -0.1121
 9987TIP3    H154156   5.125   4.983  10.297  0.2297  1.0282 -1.2049
 9987TIP3    H254157   5.274   5.008  10.296  0.5372 -0.3856  1.3484
 9988TIP3   OH254158   4.498   2.782  11.302 -0.2473 -0.2244  0.5404
 9988TIP3    H154159   4.547   2.835  11.365 -1.8237  0.3755  1.3002
 9988TIP3    H254160   4.495   2.695  11.342  0.6072 -0.4030  0.2442
 9989TIP3   OH254161   5.008   5.715  11.458  0.2103 -0.1980 -0.1468
 9989TIP3    H154162   5.073   5.646  11.446  0.5652  0.1790 -0.3856
 9989TIP3    H254163   5.058   5.796  11.456 -0.3062  0.1108 -0.6048
 9990TIP3   OH254164   4.735   5.810  11.255  0.5265 -0.6921 -0.2517
 9990TIP3    H154165   4.699   5.852  11.177  0.7738 -0.6794 -0.3597
 9990TIP3    H254166   4.822   5.851  11.266  0.4076 -0.5396  0.1475
 9991TIP3   OH254167   6.121   6.197  11.225  0.4763 -0.0893  0.1020
 9991TIP3    H154168   6.096   6.140  11.298 -1.3889 -0.2308 -0.5797
 9991TIP3    H254169   6.132   6.283  11.265  2.0703 -0.6414  0.9368
 9992TIP3   OH254170   4.022   3.975  10.836  0.4765  0.2800 -0.2400
 9992TIP3    H154171   4.056   3.898  10.882  1.1204 -0.1432 -1.3817
 9992TIP3    H254172   4.048   3.961  10.745 -1.5312  0.6465 -0.9194
 9993TIP3   OH254173   3.226   3.333  11.246 -0.1986  0.2720  0.1565
 9993TIP3    H154174   3.244   3.414  11.293 -2.5012  0.9747 -0.0433
 9993TIP3    H254175   3.281   3.338  11.167  0.6656  0.9918  0.7881
 9994TIP3   OH254176   6.359   2.772  10.896 -0.5026 -0.5790 -0.5332
 9994TIP3    H154177   6.450   2.777  10.865 -0.5516  0.6232 -0.5404
 9994TIP3    H254178   6.310   2.824  10.833 -1.1279 -0.8389 -0.2663
 9995TIP3   OH254179   3.098   3.974  10.577  0.4026  0.0717  0.1750
 9995TIP3    H154180   3.029   3.909  10.563 -0.5863  1.0334  0.4830
 9995TIP3    H254181   3.068   4.051  10.530  2.6345 -0.3427 -2.1170
 9996TIP3   OH254182   6.681   5.618  11.046  0.3225 -0.5293 -0.4594
 9996TIP3    H154183   6.676   5.686  10.979 -1.8631 -1.4683 -1.3510
 9996TIP3    H254184   6.640   5.658  11.123  2.1362  0.2800  0.1435
 9997TIP3   OH254185   4.615   3.568  11.232  0.2197  0.4390 -0.2276
 9997TIP3    H154186   4.660   3.583  11.316  1.3756 -0.6549 -0.6130
 9997TIP3    H254187   4.673   3.508  11.185 -1.3692 -0.5077 -1.0312
 9998TIP3   OH254188   6.459   4.859   9.346  0.3893 -0.4625  0.1294
 9998TIP3    H154189   6.414   4.775   9.332  2.6226 -1.3173 -2.8609
 9998TIP3    H254190   6.538   4.836   9.395 -0.0243  0.3008  1.2021
 9999TIP3   OH254191   3.573   1.975  10.757 -0.0961 -0.1316  0.2309
 9999TIP3    H154192   3.621   1.966  10.674 -0.6694 -1.4286  0.0139
 9999TIP3    H254193   3.508   1.905  10.754 -0.9726  0.6248  1.2142
10000TIP3   OH254194   4.862   2.664  11.757  0.3051 -0.2378  0.6272
10000TIP3    H154195   4.926   2.622  11.815 -0.9122  0.1316  2.2793
10000TIP3    H254196   4.901   2.748  11.734 -0.2392  0.7091  2.9612
10001TIP3   OH254197   0.319   3.631  11.060  0.5373 -0.5058  0.1143
10001TIP3    H154198   0.358   3.706  11.016  0.4563 -0.6565 -0.2152
10001TIP3    H254199   0.225   3.647  11.057  0.3672 -1.6171 -1.8084
10002TIP3   OH254200   2.266   3.940  12.976 -0.0540 -0.1185  0.0275
10002TIP3    H154201   2.178   3.965  13.003 -0.1237 -0.1471 -0.1779
10002TIP3    H254202   2.268   3.845  12.983 -0.5691 -0.2629 -1.5885
10003TIP3   OH254203   1.370   3.624   8.894 -0.2343 -0.2571  0.0941
10003TIP3    H154204   1.436   3.569   8.853 -1.4880  0.1652 -2.7219
10003TIP3    H254205   1.294   3.566   8.905 -0.3267 -0.0361  0.6374
10004TIP3   OH254206   4.993   3.520  11.580 -0.4433  0.0217  0.6110
10004TIP3    H154207   5.079   3.545  11.544 -1.5902  1.5896 -1.2248
10004TIP3    H254208   4.995   3.554  11.670  0.3887  1.2815  0.1527
10005TIP3   OH254209   2.861   1.250   9.085  0.3617  0.0887  0.6012
10005TIP3    H154210   2.772   1.275   9.061  0.5668 -0.8648 -1.3275
10005TIP3    H254211   2.852   1.210   9.172 -1.2190 -0.7923  0.0674
10006TIP3   OH254212   5.279   5.776  11.676 -0.2916 -0.0428  0.3177
10006TIP3    H154213   5.247   5.735  11.756 -0.6686  0.4810  0.4439
10006TIP3    H254214   5.206   5.831  11.646  0.5595  1.3927  0.7675
10007TIP3   OH254215   5.078   0.152   9.725 -0.8920  0.2510 -0.3271
10007TIP3    H154216   5.055   0.241   9.698 -2.1983 -0.0909 -0.4121
10007TIP3    H254217   5.044   0.096   9.655 -0.7483 -0.3644  0.0916
10008TIP3   OH254218   2.494   5.688  12.167 -0.2092  0.0329  0.1544
10008TIP3    H154219   2.574   5.658  12.123 -1.6164 -3.0940 -0.5634
10008TIP3    H254220   2.468   5.765  12.117  1.1359 -0.2453 -1.0746
10009TIP3   OH254221   5.755   4.726  10.604  0.0022 -0.4542  0.4970
10009TIP3    H154222   5.727   4.655  10.547  1.3393 -0.2699 -0.4545
10009TIP3    H254223   5.675   4.770  10.630 -0.6651 -0.5086 -1.3138
10010TIP3   OH254224   5.287   1.524  12.156  0.2506 -0.3950  0.1631
10010TIP3    H154225   5.264   1.477  12.076 -1.1694  0.2670  0.1449
10010TIP3    H254226   5.275   1.460  12.226  0.2930 -0.6274 -0.0400
10011TIP3   OH254227   1.885   2.826  10.957  0.0407  0.1225  0.1281
10011TIP3    H154228   1.907   2.736  10.933  0.0019  0.3999 -1.0326
10011TIP3    H254229   1.856   2.866  10.875  0.4322  1.3010  0.5372
10012TIP3   OH254230   0.943   3.821   9.096 -0.0848 -1.0059 -0.1873
10012TIP3    H154231   0.994   3.854   9.170  0.0076  0.3192 -0.8139
10012TIP3    H254232   0.853   3.849   9.115 -0.1449 -1.0898 -0.3443
10013TIP3   OH254233   4.099   2.495  10.905 -0.1817 -0.0477 -0.5749
10013TIP3    H154234   4.106   2.543  10.987 -0.5647  1.2241 -1.2534
10013TIP3    H254235   4.161   2.423  10.913 -0.8089 -0.4355  1.1420
10014TIP3   OH254236   0.319   0.394   9.466  0.0332  0.7278  0.2729
10014TIP3    H154237   0.296   0.317   9.415  0.9921  0.5448  0.0825
10014TIP3    H254238   0.270   0.465   9.427  0.4884  0.5231 -0.6939
10015TIP3   OH254239   0.051   5.237   9.933  0.1167 -0.4828  0.2651
10015TIP3    H154240  -0.021   5.211   9.991  0.4026  1.0173  1.3250
10015TIP3    H254241   0.118   5.273   9.991 -0.3794  2.9568 -1.0643
10016TIP3   OH254242   5.268   2.971   9.329 -0.5161  0.7949 -0.0498
10016TIP3    H154243   5.257   2.944   9.238 -1.0284 -0.7052  0.4285
10016TIP3    H254244   5.221   2.905   9.380 -1.6752  2.5104  1.2349
10017TIP3   OH254245   2.651   2.727  11.070  0.1831 -0.0120  0.0187
10017TIP3    H154246   2.628   2.644  11.111 -1.5258 -0.8341 -2.4129
10017TIP3    H254247   2.653   2.789  11.143 -2.6467 -1.3735  1.4224
10018TIP3   OH254248   0.787   4.634  10.689  0.0484  0.1523 -0.0323
10018TIP3    H154249   0.809   4.546  10.658 -1.7884  0.2551 -1.7977
10018TIP3    H254250   0.715   4.621  10.750  2.1327  0.1846  2.6601
10019TIP3   OH254251   2.798   2.437  10.284 -1.0642  0.1146  0.3232
10019TIP3    H154252   2.873   2.489  10.257 -1.6014 -0.0356 -1.6260
10019TIP3    H254253   2.835   2.364  10.333 -0.0517  0.6579  0.3885
10020TIP3   OH254254   2.109   2.758  12.738 -0.0597  0.0496  0.4982
10020TIP3    H154255   2.116   2.679  12.791  1.5560 -0.2998 -0.1654
10020TIP3    H254256   2.030   2.801  12.768  0.6795 -0.2253  3.0409
10021TIP3   OH254257   1.638   4.850  11.114 -0.2231  0.0604 -0.3066
10021TIP3    H154258   1.716   4.799  11.136 -1.1698 -1.5136 -0.3879
10021TIP3    H254259   1.607   4.811  11.032 -0.9678  0.8109 -0.3901
10022TIP3   OH254260   2.552   0.426   9.382 -0.1920 -0.8385  0.0211
10022TIP3    H154261   2.641   0.459   9.393  0.4641 -2.5444  0.2012
10022TIP3    H254262   2.533   0.382   9.465 -2.1546  1.5180  0.9177
10023TIP3   OH254263   3.155   6.037   9.140 -0.4149 -0.4487  0.1082
10023TIP3    H154264   3.077   5.982   9.136 -0.1299 -0.7881 -1.3335
10023TIP3    H254265   3.218   5.993   9.082  0.3488  0.5868  0.1297
10024TIP3   OH254266   2.402   2.910  10.727  0.3081  0.1762  0.3929
10024TIP3    H154267   2.314   2.879  10.749  0.4395 -0.3674  0.1809
10024TIP3    H254268   2.450   2.830  10.704  0.8289  0.4802  0.4114
10025TIP3   OH254269   3.094   5.748   9.293  0.1797  0.6597  0.3015
10025TIP3    H154270   3.011   5.704   9.313  1.0856 -0.5217  1.6633
10025TIP3    H254271   3.108   5.732   9.200  0.8782 -2.8159  0.8732
10026TIP3   OH254272   3.682   2.573   9.499 -0.3970 -0.6485  0.3011
10026TIP3    H154273   3.679   2.514   9.423 -0.4335  0.7068 -0.7805
10026TIP3    H254274   3.749   2.637   9.476 -0.8118  0.1049  1.1726
10027TIP3   OH254275   5.619   2.350  11.796  0.0504  0.3662 -0.1604
10027TIP3    H154276   5.635   2.263  11.761  0.6844  0.5578 -0.3612
10027TIP3    H254277   5.656   2.410  11.731  1.6776  0.7162  0.9935
10028TIP3   OH254278   3.652   5.234   9.355  0.1403 -0.1002 -0.1329
10028TIP3    H154279   3.739   5.202   9.379 -0.3460  0.4561  2.6854
10028TIP3    H254280   3.625   5.178   9.282  2.2380 -1.2453 -0.1049
10029TIP3   OH254281   2.304   0.456  10.954  0.2547  0.2145  0.1027
10029TIP3    H154282   2.223   0.430  10.911  1.1481 -2.5264 -0.0522
10029TIP3    H254283   2.275   0.513  11.026 -1.8153 -0.8438  0.1734
10030TIP3   OH254284   5.667   0.896   9.725 -0.1412  0.1118 -0.5269
10030TIP3    H154285   5.659   0.950   9.803  2.1318  2.3080 -1.6483
10030TIP3    H254286   5.577   0.885   9.693 -0.8107  1.9380  0.6244
10031TIP3   OH254287   2.983   4.111  12.453 -0.3095 -0.1111  0.2111
10031TIP3    H154288   3.039   4.161  12.513 -0.8042  0.2088  0.4127
10031TIP3    H254289   3.018   4.131  12.366 -0.7188  0.8765  0.2556
10032TIP3   OH254290   3.430   6.104  10.755 -0.3925  0.1401 -0.1628
10032TIP3    H154291   3.450   6.012  10.777 -1.9502  0.1266  1.4114
10032TIP3    H254292   3.365   6.098  10.685  1.7254  0.1441 -2.2581
10033TIP3   OH254293   4.336   4.153  11.699  0.1249  0.0114  0.1823
10033TIP3    H154294   4.376   4.205  11.769  0.4080 -1.2171  0.9539
10033TIP3    H254295   4.243   4.176  11.704  0.5682  2.4066 -1.2187
10034TIP3   OH254296   5.340   4.318   9.536  0.3167  0.3973 -0.1270
10034TIP3    H154297   5.248   4.323   9.509  0.2940 -2.9617 -1.2324
10034TIP3    H254298   5.341   4.250   9.604  2.0049 -0.0261 -0.5181
10035TIP3   OH254299   1.162   5.035  11.826  0.1273 -0.0519 -0.1412
10035TIP3    H154300   1.121   5.020  11.741 -0.2943 -2.4255  0.4101
10035TIP3    H254301   1.248   5.072  11.806  0.4302 -1.4923 -1.6533
10036TIP3   OH254302   0.614   3.838  10.617 -0.1814  0.3870 -0.3504
10036TIP3    H154303   0.669   3.799  10.550 -1.5330 -2.9769  0.2683
10036TIP3    H254304   0.543   3.881  10.569  0.0473 -0.0461 -1.0825
10037TIP3   OH254305   0.937   6.503   9.039  0.6275 -0.0735 -0.0530
10037TIP3    H154306   0.988   6.574   9.002  0.5942  0.0660  0.1650
10037TIP3    H254307   0.987   6.424   9.017  0.3333 -0.0446 -0.8495
10038TIP3   OH254308   6.230   1.129   8.910  0.1894  0.7053  0.3073
10038TIP3    H154309   6.158   1.181   8.874  0.5672  0.6671 -0.5228
10038TIP3    H254310   6.306   1.151   8.856  0.2437 -1.1166 -0.4444
10039TIP3   OH254311   0.099   5.621  11.328  0.1043 -0.4905  0.2774
10039TIP3    H154312   0.113   5.530  11.302  1.2065  0.3809 -2.5257
10039TIP3    H254313   0.005   5.636  11.312  0.0400 -0.9815  0.1840
10040TIP3   OH254314   4.897   5.599  10.035 -0.3034  0.3530 -0.4750
10040TIP3    H154315   4.975   5.646  10.066 -1.1244  2.0562 -0.8955
10040TIP3    H254316   4.890   5.622   9.943 -3.1781  3.1237  0.2527
10041TIP3   OH254317   2.585   2.928   9.578  0.2645  0.0745 -0.0663
10041TIP3    H154318   2.586   2.983   9.500 -1.0322 -1.1961 -1.0311
10041TIP3    H254319   2.666   2.877   9.573 -0.4034 -0.9180 -1.3128
10042TIP3   OH254320   2.649   4.296   9.369  0.0381  0.0151  0.2328
10042TIP3    H154321   2.702   4.370   9.339 -0.5434  0.4753  0.3055
10042TIP3    H254322   2.664   4.293   9.464 -0.6585  0.6447  0.3747
10043TIP3   OH254323   6.652   5.355  10.354  0.0657 -0.1060 -0.2367
10043TIP3    H154324   6.609   5.300  10.419 -0.3507 -1.2038 -1.3839
10043TIP3    H254325   6.745   5.351  10.376 -0.2611  1.6133  1.7709
10044TIP3   OH254326   3.938   0.543  12.227 -0.6055  0.0812  0.4577
10044TIP3    H154327   3.917   0.606  12.158 -1.8819  0.5378  1.2235
10044TIP3    H254328   3.943   0.459  12.183 -1.1522  0.4063 -0.2366
10045TIP3   OH254329   1.890   5.825  11.208 -0.4545  0.0969  0.1805
10045TIP3    H154330   1.903   5.731  11.214  0.9615  0.3111  0.8293
10045TIP3    H254331   1.827   5.836  11.136  0.7667 -1.2325 -1.1640
10046TIP3   OH254332   5.094   1.947  10.714  0.1452 -0.0054 -0.5660
10046TIP3    H154333   5.124   1.984  10.631 -0.3861  1.4202 -0.1436
10046TIP3    H254334   5.129   2.005  10.781 -1.0902  0.0134  0.0886
10047TIP3   OH254335   2.377   1.924   9.286 -0.5217  0.1819 -0.1754
10047TIP3    H154336   2.357   2.014   9.312 -1.5635 -0.4848  1.4876
10047TIP3    H254337   2.456   1.901   9.334 -0.8031 -0.1059  0.1539
10048TIP3   OH254338   5.120   4.737  11.607 -0.2540  0.0048  0.0573
10048TIP3    H154339   5.126   4.749  11.701 -0.9117 -2.2687  0.4309
10048TIP3    H254340   5.053   4.799  11.579  0.0144  0.7626  1.0310
10049TIP3   OH254341   5.495   3.002  10.847  0.1650  0.1052 -0.4765
10049TIP3    H154342   5.540   3.084  10.860 -0.3153  0.1694  1.0095
10049TIP3    H254343   5.519   2.974  10.759 -0.8414  2.5578 -1.6088
10050TIP3   OH254344   1.680   3.855   9.981 -0.1477  0.2488  0.0167
10050TIP3    H154345   1.740   3.914  10.025 -1.0969  0.9529  0.3904
10050TIP3    H254346   1.609   3.911   9.949  0.7086 -0.1239 -2.8877
10051TIP3   OH254347   0.524   1.087  10.910 -0.2592 -0.5020 -0.2630
10051TIP3    H154348   0.502   1.082  10.817  1.1354 -0.1152 -0.6531
10051TIP3    H254349   0.580   1.165  10.917 -0.0255 -0.7428  0.8238
10052TIP3   OH254350   0.313   2.163  12.513 -0.2316 -0.3488 -0.4155
10052TIP3    H154351   0.276   2.249  12.490  2.1766  0.1863 -2.8914
10052TIP3    H254352   0.250   2.100  12.481  0.3630  0.5307 -3.6831
10053TIP3   OH254353   4.072   4.552  12.212 -0.5203  0.2357 -0.0441
10053TIP3    H154354   4.165   4.559  12.189 -0.7338 -2.4221 -2.2161
10053TIP3    H254355   4.044   4.642  12.227  1.9557  1.2951 -1.2411
10054TIP3   OH254356   5.648   6.024   9.744  0.2178 -0.5010 -0.0245
10054TIP3    H154357   5.677   5.983   9.826 -0.2618 -2.3884 -0.7554
10054TIP3    H254358   5.583   5.963   9.709  1.6129 -0.6077 -2.6465
10055TIP3   OH254359   4.711   2.560  11.185  0.4038 -0.5134  0.3371
10055TIP3    H154360   4.668   2.543  11.269  0.5965  0.1634  0.5862
10055TIP3    H254361   4.768   2.635  11.202  0.6973 -0.5757 -0.3181
10056TIP3   OH254362   1.602   2.060  11.951  0.0729  0.1137 -0.4530
10056TIP3    H154363   1.590   1.970  11.984  0.4378  0.3180  0.2692
10056TIP3    H254364   1.645   2.049  11.866  1.7986 -0.3713  0.4194
10057TIP3   OH254365   4.693   6.106   9.784 -0.6466 -0.3604 -0.4273
10057TIP3    H154366   4.648   6.187   9.760 -0.2378  0.0831  0.2642
10057TIP3    H254367   4.771   6.135   9.832 -0.6347 -1.1734  0.0684
10058TIP3   OH254368   3.425   5.795   9.877 -0.7104 -0.1577 -0.1424
10058TIP3    H154369   3.360   5.750   9.822  0.6072 -0.7508 -1.2565
10058TIP3    H254370   3.480   5.842   9.815 -0.6185  1.0898  0.8568
10059TIP3   OH254371   0.650   5.498   9.181 -0.3400  0.2300  0.2468
10059TIP3    H154372   0.625   5.576   9.131 -1.4690  0.7271  1.5318
10059TIP3    H254373   0.576   5.438   9.170 -0.4443  0.2081  1.0135
10060TIP3   OH254374   2.459   2.491  11.402  0.0133 -0.3003  0.4600
10060TIP3    H154375   2.423   2.407  11.430 -1.9043  0.2518 -0.1540
10060TIP3    H254376   2.408   2.556  11.450  0.1161  0.5317 -0.5241
10061TIP3   OH254377   2.166   4.734   9.307 -0.2441 -0.0613  0.1423
10061TIP3    H154378   2.176   4.759   9.215 -1.5993 -0.7888 -0.2308
10061TIP3    H254379   2.220   4.797   9.355 -0.9906  1.5104 -0.9955
10062TIP3   OH254380   0.052   3.919  10.673 -0.0532 -0.3010  0.0036
10062TIP3    H154381   0.022   3.848  10.616 -1.1343 -0.3519  0.6065
10062TIP3    H254382  -0.015   3.925  10.741 -0.5841  2.0379 -0.6240
10063TIP3   OH254383   1.339   1.296  12.792 -0.1698  0.0253 -0.6639
10063TIP3    H154384   1.387   1.264  12.715 -1.4857 -1.9796 -0.7179
10063TIP3    H254385   1.317   1.387  12.769  0.1869 -0.2569 -2.2975
10064TIP3   OH254386   3.846   4.367   8.838  0.1742 -0.2963 -0.2460
10064TIP3    H154387   3.808   4.454   8.850  0.1136 -0.5209  1.4686
10064TIP3    H254388   3.781   4.308   8.876  1.2553 -0.8661  0.7543
10065TIP3   OH254389   0.608   1.380  10.943 -0.3352  0.0959  0.1583
10065TIP3    H154390   0.658   1.443  10.995 -0.2955  0.9178 -0.8407
10065TIP3    H254391   0.519   1.414  10.943 -0.1503  0.6237 -1.0739
10066TIP3   OH254392   6.079   3.882   9.794  0.0925 -0.0381 -0.1478
10066TIP3    H154393   6.104   3.899   9.703  0.2435  1.0064  0.0821
10066TIP3    H254394   6.160   3.855   9.836  0.3294  0.9380  0.0235
10067TIP3   OH254395   4.366   3.200   9.170  0.8282 -0.0135  0.4137
10067TIP3    H154396   4.456   3.232   9.172  0.8363  0.3188 -2.1248
10067TIP3    H254397   4.351   3.176   9.078 -1.0728 -1.8336  1.1212
10068TIP3   OH254398   5.804   6.370  10.273 -0.1890  0.2176 -0.2549
10068TIP3    H154399   5.760   6.414  10.199  0.4194 -0.3252 -0.9512
10068TIP3    H254400   5.897   6.373  10.251 -0.2140 -3.1364 -1.3450
10069TIP3   OH254401   2.084   3.861   8.762 -0.1877  0.0781  0.5995
10069TIP3    H154402   2.069   3.791   8.825 -1.4946  0.6248  0.9193
10069TIP3    H254403   1.998   3.880   8.725  0.5386 -0.1978 -1.3483
10070TIP3   OH254404   3.969   5.624   8.891 -0.1477 -0.1099  0.1328
10070TIP3    H154405   4.035   5.559   8.864 -0.3741 -1.9434  3.4438
10070TIP3    H254406   4.020   5.692   8.933 -0.1886 -0.1216  0.1999
10071TIP3   OH254407   6.149   3.109   8.903  0.0459 -0.5362  0.2254
10071TIP3    H154408   6.109   3.175   8.846 -0.5231 -0.7376  0.3777
10071TIP3    H254409   6.243   3.120   8.891 -0.0490  0.0839 -0.0019
10072TIP3   OH254410   2.419   1.636  11.672  0.1641  0.1277 -0.0130
10072TIP3    H154411   2.407   1.561  11.613  0.3661 -0.3259  0.5176
10072TIP3    H254412   2.333   1.677  11.677 -0.0099 -0.2257 -0.0921
10073TIP3   OH254413   1.278   4.990  10.899  0.3360 -0.4832 -0.1271
10073TIP3    H154414   1.250   5.070  10.943 -1.0300 -1.1455  0.2978
10073TIP3    H254415   1.230   4.989  10.817  1.1316 -0.3763 -0.6021
10074TIP3   OH254416   3.560   5.303  11.275  0.1868  0.4485  0.5646
10074TIP3    H154417   3.545   5.313  11.369  2.0972 -0.7701  1.0349
10074TIP3    H254418   3.611   5.223  11.267  3.2706  2.4174 -1.1563
10075TIP3   OH254419   5.356   5.750  12.331  0.3054  0.1152  0.0367
10075TIP3    H154420   5.296   5.676  12.328 -0.6404  0.8654  0.0164
10075TIP3    H254421   5.356   5.777  12.423  0.8502 -0.0666  0.0930
10076TIP3   OH254422   2.005   3.462  12.104  0.4575  0.2377 -0.5948
10076TIP3    H154423   2.060   3.446  12.180  0.0935  0.8301 -0.1979
10076TIP3    H254424   2.060   3.516  12.046 -0.0445  1.6987  0.2519
10077TIP3   OH254425   0.956   3.011  11.797 -0.0694  0.1812 -1.0535
10077TIP3    H154426   0.906   3.030  11.876  0.8373 -1.7541  0.0628
10077TIP3    H254427   0.890   3.000  11.729 -1.0013 -0.0993 -0.1314
10078TIP3   OH254428   1.921   4.058   9.121 -0.2331  0.1107  0.3398
10078TIP3    H154429   1.845   4.092   9.168 -0.0437 -0.1472  0.8441
10078TIP3    H254430   1.975   4.135   9.103 -0.0229  0.1365  1.0715
10079TIP3   OH254431   1.439   4.006   8.777 -0.6934  0.2604 -0.1428
10079TIP3    H154432   1.436   4.100   8.763 -0.3638  0.3222  0.1950
10079TIP3    H254433   1.531   3.987   8.794 -0.6919 -0.1840 -0.6108
10080TIP3   OH254434   3.335   5.337  11.093  0.1982  0.4972 -0.0317
10080TIP3    H154435   3.424   5.330  11.126  0.3815 -1.1434 -0.7571
10080TIP3    H254436   3.305   5.246  11.085 -1.9241  1.0165  1.1579
10081TIP3   OH254437   1.768   0.919  10.259 -0.1644 -0.0756  0.1403
10081TIP3    H154438   1.809   0.971  10.328 -0.6734  0.0986  0.3108
10081TIP3    H254439   1.747   0.982  10.190 -0.5358 -0.0952  0.2342
10082TIP3   OH254440   2.973   2.250  10.100  0.5013  0.7815  0.1116
10082TIP3    H154441   2.893   2.213  10.063  0.5204  1.0691 -0.2285
10082TIP3    H254442   2.952   2.264  10.193  1.7577 -3.6840  1.2856
10083TIP3   OH254443   1.136   3.898  10.813  0.4731 -0.3418  0.4090
10083TIP3    H154444   1.068   3.932  10.872 -0.7206 -1.3069 -0.3677
10083TIP3    H254445   1.180   3.976  10.780  0.6724  0.2566  1.9668
10084TIP3   OH254446   1.642   1.059  11.477  0.2207  0.1459  0.4424
10084TIP3    H154447   1.577   1.129  11.487 -0.8034 -0.9229  1.5962
10084TIP3    H254448   1.714   1.086  11.534 -0.1178  0.3332  0.7897
10085TIP3   OH254449   3.901   5.243  10.988  0.0925  0.0287  0.2830
10085TIP3    H154450   3.855   5.178  10.935 -0.1570 -0.1710  0.7360
10085TIP3    H254451   3.886   5.215  11.078 -0.0543  0.7373  0.4840
10086TIP3   OH254452   0.314   1.676  11.674  0.1639  0.6075 -0.1391
10086TIP3    H154453   0.287   1.767  11.663  1.3833  0.7866 -2.3240
10086TIP3    H254454   0.278   1.631  11.597  1.5574 -0.2170 -0.3424
10087TIP3   OH254455   1.919   1.462  10.058  0.1668  0.0504  0.2276
10087TIP3    H154456   1.990   1.443   9.996  0.5097  0.7949  0.3755
10087TIP3    H254457   1.946   1.543  10.101 -1.6059  1.3685 -0.9969
10088TIP3   OH254458   2.586   0.810   9.833  0.0621  0.2711 -0.4668
10088TIP3    H154459   2.495   0.840   9.827 -0.2431 -0.7971 -1.5111
10088TIP3    H254460   2.638   0.888   9.813 -0.5851  0.9696  0.4245
10089TIP3   OH254461   4.489   6.041  10.026 -0.3007  0.2107  0.2540
10089TIP3    H154462   4.485   6.135  10.011 -0.7232  0.2724  0.7349
10089TIP3    H254463   4.557   6.030  10.092  0.0968  0.1304 -0.1650
10090TIP3   OH254464   1.492   4.333  11.302 -0.1179  0.1564 -0.0048
10090TIP3    H154465   1.440   4.304  11.227  0.0560  1.1853 -0.5385
10090TIP3    H254466   1.541   4.255  11.329 -1.8925 -0.8627  0.5122
10091TIP3   OH254467   1.558   1.792  12.066  0.4604 -0.1736 -0.4801
10091TIP3    H154468   1.621   1.758  12.130 -0.8306  1.0092  1.5311
10091TIP3    H254469   1.477   1.746  12.085 -0.0467  0.4620 -1.0361
10092TIP3   OH254470   0.437   1.863  11.117 -0.1811 -0.0592  0.1223
10092TIP3    H154471   0.507   1.907  11.165  1.6069 -1.6011 -0.9191
10092TIP3    H254472   0.402   1.931  11.059  1.4576  0.4228 -0.3607
10093TIP3   OH254473   5.977   4.322   8.538 -0.4978 -0.1258  0.3426
10093TIP3    H154474   6.016   4.345   8.453  1.0151 -1.3636  0.6506
10093TIP3    H254475   6.035   4.254   8.572 -1.1229  0.3024  2.3494
10094TIP3   OH254476   2.705   0.213   9.999 -0.0255  0.3104 -0.1967
10094TIP3    H154477   2.743   0.287  10.046  0.1053  1.5968 -2.1802
10094TIP3    H254478   2.653   0.167  10.064  1.2563  1.1594  1.5057
10095TIP3   OH254479   1.274   6.672  10.170  0.2897  0.2452 -0.3716
10095TIP3    H154480   1.308   6.720  10.245 -1.3642  1.1504 -0.1560
10095TIP3    H254481   1.333   6.695  10.098 -0.4548  2.7035 -0.2964
10096TIP3   OH254482   2.197   3.853  11.406 -0.3159  0.4621 -0.1888
10096TIP3    H154483   2.286   3.820  11.403 -1.1600 -1.9524 -0.9754
10096TIP3    H254484   2.206   3.948  11.397  2.1006  0.1718 -1.6578
10097TIP3   OH254485   1.274   3.021   8.998  0.1982  0.3968  0.3772
10097TIP3    H154486   1.311   2.993   9.082  0.9782 -0.5014 -0.2373
10097TIP3    H254487   1.236   2.941   8.961  1.1065  0.4529 -0.7321
10098TIP3   OH254488   0.515   2.217  10.720  0.1656 -0.6215 -0.1265
10098TIP3    H154489   0.452   2.145  10.725  1.2186 -1.5821 -0.1661
10098TIP3    H254490   0.579   2.187  10.655  0.5544  0.4097 -0.2284
10099TIP3   OH254491   5.641   2.054  10.718  0.2957 -1.1872 -0.1481
10099TIP3    H154492   5.550   2.036  10.692 -0.2454 -1.0816  1.5316
10099TIP3    H254493   5.694   2.021  10.646 -1.0878 -1.0422 -1.2706
10100TIP3   OH254494   2.303   5.665   8.653  0.1665  0.6506 -0.2420
10100TIP3    H154495   2.289   5.757   8.630  0.2241  0.5144 -0.8532
10100TIP3    H254496   2.388   5.663   8.698 -0.1363  0.9834  0.3488
10101TIP3   OH254497   2.815   2.144   9.442 -0.2062 -0.2653 -0.2209
10101TIP3    H154498   2.782   2.182   9.524  1.1438  0.1374  0.1600
10101TIP3    H254499   2.848   2.058   9.466 -1.6842 -1.0061 -0.7572
10102TIP3   OH254500   5.401   6.501   9.280  0.0223 -0.6058 -0.2148
10102TIP3    H154501   5.397   6.550   9.198  0.7430  0.3776  0.3043
10102TIP3    H254502   5.492   6.510   9.308 -0.5535  0.3947  1.4576
10103TIP3   OH254503   5.211   2.101  11.176  0.4651 -0.0603 -0.5145
10103TIP3    H154504   5.183   2.026  11.123 -1.4474  0.3572 -0.1537
10103TIP3    H254505   5.154   2.100  11.252  0.6815  1.5319 -0.2949
10104TIP3   OH254506   6.330   0.594  12.012  0.1579  0.0731 -0.3908
10104TIP3    H154507   6.386   0.539  11.958 -1.6503 -0.4396 -1.8734
10104TIP3    H254508   6.331   0.552  12.099  2.3117  0.3227 -0.2555
10105TIP3   OH254509   3.836   2.644  10.114 -0.3111 -0.1302  0.1006
10105TIP3    H154510   3.750   2.627  10.073 -0.4019  2.4187 -0.9629
10105TIP3    H254511   3.899   2.625  10.045  0.0540 -2.1105  0.9178
10106TIP3   OH254512   0.338   4.404  10.630  0.4921  0.2239 -0.0290
10106TIP3    H154513   0.336   4.309  10.636  1.8517  0.1123 -0.8861
10106TIP3    H254514   0.261   4.427  10.577 -1.2506 -0.1432  2.1582
10107TIP3   OH254515   3.601   5.337  11.555  0.0144  0.3390  0.1155
10107TIP3    H154516   3.668   5.271  11.574  1.5575  1.6947 -0.4942
10107TIP3    H254517   3.585   5.379  11.640 -1.1834 -0.9277  0.5726
10108TIP3   OH254518   1.495   5.600  10.140  0.0083 -0.6692  0.1948
10108TIP3    H154519   1.496   5.506  10.119 -1.6161 -1.0217  1.5100
10108TIP3    H254520   1.402   5.622  10.147  0.3231  1.2866 -1.0092
10109TIP3   OH254521   0.788   3.712   9.831 -0.2347  0.4623 -0.5214
10109TIP3    H154522   0.871   3.669   9.811  1.3045  1.8527  2.1838
10109TIP3    H254523   0.810   3.805   9.837 -1.8378  0.8138  0.8135
10110TIP3   OH254524   2.773   0.156  10.520  0.5834 -0.3480 -0.0063
10110TIP3    H154525   2.864   0.131  10.505  0.0341 -1.2605 -2.2078
10110TIP3    H254526   2.756   0.133  10.612  2.3274 -0.8857  0.2039
10111TIP3   OH254527   2.426   3.103  11.624  0.6394  0.0943 -0.8533
10111TIP3    H154528   2.361   3.062  11.682  0.8038 -0.8870 -1.3421
10111TIP3    H254529   2.500   3.123  11.682 -0.2891  1.7678 -0.1666
10112TIP3   OH254530   4.577   1.733   9.523 -0.4207 -0.0731  0.0673
10112TIP3    H154531   4.552   1.663   9.582 -1.7007  1.4969  1.4810
10112TIP3    H254532   4.582   1.811   9.578  0.3964  1.0755 -1.5354
10113TIP3   OH254533   1.758   2.864  10.196  0.4448 -0.5474 -0.2253
10113TIP3    H154534   1.734   2.781  10.156 -1.1853  0.2485 -0.9901
10113TIP3    H254535   1.732   2.854  10.288  1.2023 -1.2241 -0.0710
10114TIP3   OH254536   4.938   1.548  10.257 -0.1903  0.4711  0.1030
10114TIP3    H154537   4.919   1.624  10.203 -1.2472  0.9703  1.1356
10114TIP3    H254538   4.852   1.515  10.282  0.2748 -0.4588  0.5036
10115TIP3   OH254539   2.863   2.718  12.197 -0.2856 -0.7563  0.5403
10115TIP3    H154540   2.878   2.676  12.113  0.2205 -0.1000  0.2970
10115TIP3    H254541   2.940   2.773  12.211 -1.1494  0.4625  0.6226
10116TIP3   OH254542   5.428   2.828   9.852  0.1460  0.5839 -0.0113
10116TIP3    H154543   5.408   2.798   9.763  1.0216  0.4683 -0.1825
10116TIP3    H254544   5.471   2.753   9.893 -2.0487 -0.0752  1.2023
10117TIP3   OH254545   0.598   0.278   9.491 -0.2893  0.4396 -0.8814
10117TIP3    H154546   0.567   0.210   9.551 -0.4176  0.9298 -0.3807
10117TIP3    H254547   0.521   0.332   9.473  0.2452  1.7141  0.4444
10118TIP3   OH254548   3.534   0.111   9.882  0.0651  0.6932 -0.2502
10118TIP3    H154549   3.589   0.152   9.816  0.4201  0.0221 -0.3770
10118TIP3    H254550   3.589   0.106   9.960 -0.5912  2.1619  0.3491
10119TIP3   OH254551   2.712   6.081  11.787 -0.5344  0.1251  0.0687
10119TIP3    H154552   2.724   6.030  11.707 -0.0717 -0.1728  0.3288
10119TIP3    H254553   2.628   6.125  11.774 -0.6973 -0.3073 -0.3673
10120TIP3   OH254554   2.186   3.804  11.681  0.1072 -0.2897  0.5819
10120TIP3    H154555   2.263   3.852  11.711 -0.2059 -0.0429  1.0044
10120TIP3    H254556   2.185   3.815  11.586  0.2785  0.1825  0.6341
10121TIP3   OH254557   5.141   1.753  12.127 -0.0048  0.1999  0.1451
10121TIP3    H154558   5.088   1.770  12.205  1.2583  0.5818  0.9427
10121TIP3    H254559   5.164   1.660  12.133  0.9704  0.4676  0.8144
10122TIP3   OH254560   5.948   4.492   8.894 -0.2344 -0.2207  0.0531
10122TIP3    H154561   5.887   4.457   8.958  0.5081 -1.5272  0.0838
10122TIP3    H254562   5.898   4.559   8.847 -1.1379 -0.0579  1.2084
10123TIP3   OH254563   6.253   2.887  10.644 -0.3183  0.4284  0.8640
10123TIP3    H154564   6.163   2.890  10.611 -0.5101 -1.5172  1.1013
10123TIP3    H254565   6.289   2.805  10.610  1.9894  1.9562 -0.6512
10124TIP3   OH254566   3.665   2.877  10.030 -0.5317  0.4775  0.5335
10124TIP3    H154567   3.571   2.884  10.015 -0.3129 -0.7523 -1.8560
10124TIP3    H254568   3.679   2.785  10.055  0.0216  0.7395  1.2541
10125TIP3   OH254569   3.309   2.246  11.099  0.0071 -0.1697 -0.3453
10125TIP3    H154570   3.397   2.269  11.068  1.2465 -2.7687  0.8576
10125TIP3    H254571   3.279   2.179  11.038 -0.6577 -0.0796 -0.1189
10126TIP3   OH254572   3.094   3.492  11.908 -0.2652 -0.7624  0.1039
10126TIP3    H154573   3.024   3.536  11.860 -1.3692 -0.2726  2.0959
10126TIP3    H254574   3.057   3.408  11.934 -0.1933 -0.4265  1.3249
10127TIP3   OH254575   0.281   3.210  10.213 -0.7854  0.4899  0.1471
10127TIP3    H154576   0.229   3.285  10.183 -2.0726 -0.4502 -0.0873
10127TIP3    H254577   0.217   3.153  10.257  0.6129  0.6875  2.5618
10128TIP3   OH254578   2.005   2.194  11.126 -0.2226  0.1185 -0.5416
10128TIP3    H154579   2.092   2.180  11.091 -0.9273 -1.9343 -1.6816
10128TIP3    H254580   2.002   2.287  11.149  2.4896  0.0858  0.3165
10129TIP3   OH254581   6.647   6.663  10.998  0.3804  0.3540  0.0843
10129TIP3    H154582   6.560   6.659  10.958  0.0021  1.3831  0.7834
10129TIP3    H254583   6.645   6.741  11.052  0.5856 -1.4229  2.8187
10130TIP3   OH254584   0.927   5.905   9.463 -0.0661  0.3560  0.6804
10130TIP3    H154585   0.834   5.886   9.451  0.0070 -0.0987  0.8251
10130TIP3    H254586   0.970   5.820   9.458  0.1045  0.2619  2.9012
10131TIP3   OH254587   3.892   1.304   9.090  0.3810  0.1856 -0.2132
10131TIP3    H154588   3.869   1.259   9.171 -2.7982 -0.7299 -1.4559
10131TIP3    H254589   3.866   1.395   9.104  0.5103  0.1836  0.0357
10132TIP3   OH254590   4.907   5.346   9.581 -0.2719 -0.2483  0.5214
10132TIP3    H154591   4.912   5.274   9.644 -1.2652 -0.0404  0.8598
10132TIP3    H254592   4.969   5.411   9.614  0.4919 -0.8619  0.3186
10133TIP3   OH254593   5.419   6.121  10.444 -0.4335 -0.2189  0.3465
10133TIP3    H154594   5.451   6.177  10.373 -0.6519 -1.0381 -0.4095
10133TIP3    H254595   5.334   6.159  10.468 -0.3631  0.0564  0.1645
10134TIP3   OH254596   0.353   1.374   8.739 -0.3824  0.1590 -0.2110
10134TIP3    H154597   0.289   1.306   8.718 -0.6489 -0.5550  2.5590
10134TIP3    H254598   0.437   1.328   8.746 -0.5739  0.0180  1.7400
10135TIP3   OH254599   4.344   3.912   9.381 -0.6571 -0.1141  0.2145
10135TIP3    H154600   4.286   3.961   9.439  1.5431 -0.0067  2.4722
10135TIP3    H254601   4.405   3.978   9.346 -0.5650 -0.5377 -0.4560
10136TIP3   OH254602   0.416   2.050   8.915 -0.6836  0.9600  0.1837
10136TIP3    H154603   0.509   2.037   8.900 -0.4502  1.3023  1.2642
10136TIP3    H254604   0.376   1.965   8.896 -0.1142  0.7247  0.0390
10137TIP3   OH254605   1.664   4.547  11.504 -0.4376 -1.1214  0.0552
10137TIP3    H154606   1.638   4.555  11.596 -0.4859  0.2202 -0.0448
10137TIP3    H254607   1.749   4.502  11.507  0.0784 -0.1634  0.8635
10138TIP3   OH254608   2.700   1.735  12.360  0.1723  0.1325  0.7036
10138TIP3    H154609   2.677   1.724  12.452  2.1586 -1.9582  1.0558
10138TIP3    H254610   2.706   1.645  12.326  0.0326  0.8389 -1.3179
10139TIP3   OH254611   6.008   2.124  10.453  0.4359  0.0846 -0.1708
10139TIP3    H154612   5.929   2.178  10.441 -0.1461 -0.8726 -0.7349
10139TIP3    H254613   6.047   2.120  10.366 -0.4469 -1.7743 -0.5237
10140TIP3   OH254614   3.231   5.393  10.795  0.0734  0.7589 -0.2492
10140TIP3    H154615   3.295   5.325  10.816 -0.3101  0.9423  1.7275
10140TIP3    H254616   3.232   5.399  10.700  0.4211 -1.7334 -0.4632
10141TIP3   OH254617   3.988   2.047  11.752 -0.8594 -0.6401  0.6352
10141TIP3    H154618   3.926   2.120  11.763 -0.9346 -0.8902  2.0478
10141TIP3    H254619   4.006   2.018  11.841  0.9676 -0.8681  0.2168
10142TIP3   OH254620   4.597   0.300  10.260 -0.0092  0.3054 -0.1838
10142TIP3    H154621   4.574   0.210  10.284  2.3535  0.0647  1.5202
10142TIP3    H254622   4.597   0.300  10.164 -1.9764 -0.9156 -0.2519
10143TIP3   OH254623   1.734   4.615   9.046  0.3372 -0.1393 -0.0737
10143TIP3    H154624   1.655   4.601   9.097 -0.1037 -0.1809 -0.7549
10143TIP3    H254625   1.743   4.710   9.039  0.1169 -0.1394 -0.3495
10144TIP3   OH254626   5.092   6.425   8.897  0.8876 -0.4386  0.5398
10144TIP3    H154627   5.078   6.491   8.965 -1.0779  0.3139 -0.4984
10144TIP3    H254628   5.059   6.466   8.817  1.3666 -2.0080 -0.5037
10145TIP3   OH254629   1.613   5.072   9.273 -0.6367 -0.2246 -0.4138
10145TIP3    H154630   1.640   5.161   9.249 -0.5080 -0.1640 -0.0371
10145TIP3    H254631   1.653   5.017   9.206  2.9526 -0.4784  1.6860
10146TIP3   OH254632   5.094   3.973   9.611  0.1411 -0.1113 -0.4579
10146TIP3    H154633   5.004   3.943   9.597  0.4776 -1.1215 -0.5275
10146TIP3    H254634   5.107   4.041   9.545 -0.4101 -0.3134 -0.7817
10147TIP3   OH254635   0.910   2.258  10.191 -0.5987  0.0281 -0.0750
10147TIP3    H154636   0.926   2.352  10.205 -0.5255 -0.0746  0.5548
10147TIP3    H254637   0.995   2.222  10.166 -0.4100 -0.0334  0.6206
10148TIP3   OH254638   1.763   0.092   9.720 -0.3506  0.4803 -0.2662
10148TIP3    H154639   1.721   0.069   9.804 -1.4713 -2.0801 -1.3999
10148TIP3    H254640   1.691   0.121   9.665 -0.2048 -1.0617 -1.3228
10149TIP3   OH254641   5.152   4.316   8.966 -0.4665 -0.6609 -0.2105
10149TIP3    H154642   5.156   4.221   8.958  0.3474 -0.6747  0.2251
10149TIP3    H254643   5.153   4.348   8.876  0.4137 -1.0379 -0.3510
10150TIP3   OH254644   2.122   0.071  10.204  0.7389 -0.2276  0.0706
10150TIP3    H154645   2.202   0.055  10.254  0.4195  0.3234  0.7796
10150TIP3    H254646   2.061   0.107  10.268  0.3053  0.4698 -0.7198
10151TIP3   OH254647   4.809   0.162   9.042  0.1020 -0.2759  0.3587
10151TIP3    H154648   4.739   0.112   9.084 -0.8035  0.2415 -0.4860
10151TIP3    H254649   4.839   0.105   8.970  0.2563 -0.3204  0.4579
10152TIP3   OH254650   5.891   2.676   8.981 -0.2078 -0.7156  0.1416
10152TIP3    H154651   5.819   2.735   8.961 -0.8907 -0.6672  2.5356
10152TIP3    H254652   5.854   2.609   9.038  1.3323 -1.4910  0.3078
10153TIP3   OH254653   5.652   0.746   8.455  0.2305  0.2971  0.0774
10153TIP3    H154654   5.558   0.755   8.472  0.2149 -0.2227  0.2707
10153TIP3    H254655   5.659   0.666   8.404  0.6566 -0.1122  0.7683
10154TIP3   OH254656   4.365   0.051   9.584 -0.0278 -0.0599 -0.1009
10154TIP3    H154657   4.379   0.089   9.497  0.5229 -0.4964 -0.2060
10154TIP3    H254658   4.276   0.079   9.607 -0.1363  0.1658 -0.7499
10155TIP3   OH254659   4.150   1.747   9.084 -0.1523  0.4504  0.3632
10155TIP3    H154660   4.098   1.718   9.010  0.5322 -1.3523  0.5284
10155TIP3    H254661   4.087   1.776   9.149 -1.1043 -2.3628  0.8527
10156TIP3   OH254662   0.560   3.605   9.711  0.1142  0.0442  0.4692
10156TIP3    H154663   0.637   3.630   9.762  0.2055  0.2214  0.2427
10156TIP3    H254664   0.488   3.603   9.775  0.4939 -1.1364  0.8997
10157TIP3   OH254665   3.468   4.121  12.384  0.2754  0.1531  0.1144
10157TIP3    H154666   3.557   4.131  12.350  0.0407 -1.1400 -0.9832
10157TIP3    H254667   3.464   4.179  12.460  1.7874  0.8575 -0.3101
10158TIP3   OH254668   2.905   5.053   9.410 -0.6158 -0.4447 -0.0129
10158TIP3    H154669   2.852   5.128   9.384 -1.5531 -1.6557 -1.7188
10158TIP3    H254670   2.988   5.065   9.364 -0.6044 -0.2718  0.0488
10159TIP3   OH254671   0.929   2.415   8.663  0.4644 -0.2019 -0.1994
10159TIP3    H154672   0.904   2.324   8.676 -1.4870 -0.0496 -2.2251
10159TIP3    H254673   0.856   2.466   8.697  0.8856  0.5515 -0.3774
10160TIP3   OH254674   0.436   2.991  10.626  0.3009 -0.3529 -0.1834
10160TIP3    H154675   0.526   2.960  10.615  0.2561  0.1082 -2.2807
10160TIP3    H254676   0.427   3.060  10.560 -1.6124 -0.4482 -0.0609
10161TIP3   OH254677   1.885   5.536  11.287 -0.3337 -0.4378 -0.1768
10161TIP3    H154678   1.810   5.539  11.227  0.1619 -2.0769 -0.9404
10161TIP3    H254679   1.900   5.442  11.301  3.8589 -0.4845 -3.0356
10162TIP3   OH254680   5.296   2.244  12.694  1.0009 -0.0342  0.3648
10162TIP3    H154681   5.337   2.159  12.680  0.1120 -0.5004  0.5202
10162TIP3    H254682   5.290   2.283  12.607 -0.7180 -1.1393 -0.0343
10163TIP3   OH254683   5.933   2.424  10.529 -0.2392 -0.0829  0.3547
10163TIP3    H154684   5.867   2.357  10.509 -1.3822  1.3457 -0.9412
10163TIP3    H254685   6.017   2.379  10.516 -0.9643 -1.2140 -0.6806
10164TIP3   OH254686   2.123   2.958   9.085  0.8292 -0.3260  0.2745
10164TIP3    H154687   2.210   2.920   9.097  0.6404 -0.8985 -0.1257
10164TIP3    H254688   2.136   3.052   9.097  0.9050 -0.6519  3.6085
10165TIP3   OH254689   0.267   2.316   8.967  0.4533  0.8658  0.2317
10165TIP3    H154690   0.334   2.338   9.032  0.5592  0.2214  0.3453
10165TIP3    H254691   0.314   2.261   8.903 -0.2995 -0.8121  1.0755
10166TIP3   OH254692   6.219   0.589   9.173  0.1456 -0.2753  0.2086
10166TIP3    H154693   6.265   0.543   9.243  0.8166  0.8083  0.5058
10166TIP3    H254694   6.200   0.676   9.209 -1.0781 -0.2860 -0.3406
10167TIP3   OH254695   5.812   1.901   8.808 -0.5786 -0.0512  0.4733
10167TIP3    H154696   5.883   1.874   8.866 -1.0674  0.4238  1.2956
10167TIP3    H254697   5.829   1.993   8.789 -1.0226  0.0910  0.7475
10168TIP3   OH254698   1.496   4.598   9.237  0.0679  0.3024 -0.2399
10168TIP3    H154699   1.503   4.504   9.255 -0.3008  0.5088  1.0805
10168TIP3    H254700   1.498   4.640   9.323 -1.1911  1.4111 -0.7057
10169TIP3   OH254701   4.915   3.935  12.495  0.4700  0.2580  0.4994
10169TIP3    H154702   4.999   3.977  12.514  0.4870  0.0860  0.8101
10169TIP3    H254703   4.868   3.999  12.443  1.4227 -0.2657 -1.1035
10170TIP3   OH254704   2.387   2.637   8.874  0.1887  0.1496  0.2412
10170TIP3    H154705   2.479   2.614   8.890  0.1899 -0.8466 -1.0361
10170TIP3    H254706   2.341   2.609   8.954  1.0219  1.0172  1.0599
10171TIP3   OH254707   5.047   3.191  12.161 -0.2464  0.5206 -0.9619
10171TIP3    H154708   4.985   3.120  12.178  0.5272 -0.0571 -0.5070
10171TIP3    H254709   5.041   3.247  12.239  0.6808 -0.1972 -0.3551
10172TIP3   OH254710   2.783   0.973  11.176 -0.6020 -0.7440  0.0106
10172TIP3    H154711   2.810   0.882  11.189 -0.7355 -0.8135 -0.1872
10172TIP3    H254712   2.806   1.017  11.258 -0.6949 -0.9939  0.1733
10173TIP3   OH254713   1.813   4.400  10.130 -0.4054 -0.2755 -0.7326
10173TIP3    H154714   1.859   4.331  10.083  1.0680 -0.3430  0.7159
10173TIP3    H254715   1.883   4.458  10.162 -1.3625  0.0317  0.9138
10174TIP3   OH254716   1.561   6.263  10.772  0.1743 -0.5377  0.0493
10174TIP3    H154717   1.637   6.213  10.742  0.3303 -0.7613  0.8200
10174TIP3    H254718   1.487   6.204  10.757  0.1218 -0.2557 -0.8616
10175TIP3   OH254719   1.338   4.137  11.820  0.3200  0.0585 -0.1227
10175TIP3    H154720   1.250   4.165  11.843 -1.2421 -3.0277 -1.8121
10175TIP3    H254721   1.374   4.211  11.771 -1.4287  1.2673  0.3238
10176TIP3   OH254722   5.465   5.526  10.417  0.3138  0.3513  0.7198
10176TIP3    H154723   5.538   5.484  10.373 -0.2345 -1.0204  1.0528
10176TIP3    H254724   5.505   5.588  10.477  1.1641  0.2850  0.2321
10177TIP3   OH254725   4.654   1.195  10.634 -0.5367  0.9634  0.5299
10177TIP3    H154726   4.678   1.258  10.701  0.8444  0.2904  0.7147
10177TIP3    H254727   4.651   1.110  10.679 -0.1568  0.5858 -0.1212
10178TIP3   OH254728   1.146   1.683  11.662 -0.1675 -0.5605  0.1288
10178TIP3    H154729   1.065   1.712  11.621 -0.3529 -1.2372  0.0160
10178TIP3    H254730   1.175   1.609  11.609  1.0276  0.2545 -0.4049
10179TIP3   OH254731   3.235   3.508  11.476 -0.0742  0.4697 -0.8820
10179TIP3    H154732   3.159   3.562  11.456 -0.2497  0.0958 -1.2344
10179TIP3    H254733   3.292   3.565  11.527 -0.6077  0.7389 -0.5793
10180TIP3   OH254734   0.544   4.304  10.825 -0.0925  0.4108  0.1705
10180TIP3    H154735   0.621   4.356  10.844  0.5640 -0.4664 -0.0046
10180TIP3    H254736   0.488   4.314  10.901  0.3316  0.8144  0.4332
10181TIP3   OH254737   1.114   5.545  10.668  0.4685 -0.3600 -0.6788
10181TIP3    H154738   1.109   5.563  10.762  1.6486 -2.2023 -0.2112
10181TIP3    H254739   1.193   5.590  10.639 -0.7413  1.5536 -1.1810
10182TIP3   OH254740   5.419   2.433  10.289 -0.8658  0.1365  0.2573
10182TIP3    H154741   5.431   2.361  10.226 -1.5480  1.4160 -1.4260
10182TIP3    H254742   5.411   2.390  10.374  1.2241 -1.6137 -0.3336
10183TIP3   OH254743   4.321   3.702   9.122 -0.4566 -0.4390 -0.1196
10183TIP3    H154744   4.314   3.786   9.168 -0.1549 -0.0847 -0.7181
10183TIP3    H254745   4.330   3.725   9.030  0.4769 -1.0894 -0.2137
10184TIP3   OH254746   4.051   5.587  10.791 -0.4763 -0.3039 -0.0482
10184TIP3    H154747   3.967   5.555  10.825 -0.0689 -0.4762  0.8261
10184TIP3    H254748   4.071   5.663  10.845 -1.0494  1.0099 -1.5927
10185TIP3   OH254749   6.655   6.026   8.920 -0.4852 -0.4695 -0.4773
10185TIP3    H154750   6.601   5.953   8.949 -1.1607 -0.0766 -0.7383
10185TIP3    H254751   6.593   6.092   8.890  0.0938  0.5255  0.4513
10186TIP3   OH254752   0.866   1.504  11.109 -0.3578  0.1686  0.2968
10186TIP3    H154753   0.820   1.449  11.173  1.0959 -0.6409  0.6734
10186TIP3    H254754   0.953   1.518  11.146 -0.1791  1.4708 -0.5258
10187TIP3   OH254755   3.994   2.002   9.042  0.2735  0.6678 -0.1509
10187TIP3    H154756   4.052   1.989   8.968  1.2572 -0.4383  0.7854
10187TIP3    H254757   4.052   2.032   9.113 -0.1739 -0.9887  0.9578
10188TIP3   OH254758   2.198   1.783   9.615 -0.1765 -0.2195 -0.1090
10188TIP3    H154759   2.291   1.804   9.619 -0.1558 -0.4386  0.7913
10188TIP3    H254760   2.155   1.866   9.593  0.2525 -0.1842 -0.8154
10189TIP3   OH254761   4.200   1.746  10.514  0.1997  0.1251 -0.2189
10189TIP3    H154762   4.226   1.804  10.585 -1.5918  0.6012  0.1047
10189TIP3    H254763   4.276   1.689  10.500  1.4660  1.5708  0.4439
10190TIP3   OH254764   1.013   1.485  11.783  0.5105 -0.0943 -0.3716
10190TIP3    H154765   1.000   1.523  11.870 -0.9556 -0.3916 -0.4337
10190TIP3    H254766   1.056   1.554  11.733  1.7638 -0.0657  0.6818
10191TIP3   OH254767   2.862   0.134  11.722 -0.0583 -0.2854  0.6789
10191TIP3    H154768   2.840   0.130  11.815 -0.1596  1.3647  0.7399
10191TIP3    H254769   2.782   0.162  11.679  0.2325 -0.1762  0.1976
10192TIP3   OH254770   1.839   1.457  12.057 -0.3614 -0.2320  0.2316
10192TIP3    H154771   1.813   1.496  12.141 -0.0027 -1.3644  0.8928
10192TIP3    H254772   1.935   1.457  12.059 -0.3442  0.1310 -0.3766
10193TIP3   OH254773   5.718   0.840   9.252  0.8252  0.1293 -0.1376
10193TIP3    H154774   5.779   0.880   9.315 -0.2089 -0.5010  1.3369
10193TIP3    H254775   5.773   0.816   9.178  2.1100  0.9255  0.5065
10194TIP3   OH254776   5.788   5.538  10.638  0.0799  0.0015 -0.2198
10194TIP3    H154777   5.719   5.603  10.651  0.4672  0.6105 -1.0656
10194TIP3    H254778   5.767   5.496  10.555  0.2541 -0.4131 -0.0556
10195TIP3   OH254779   2.902   5.241   8.858  0.2099  0.2968 -0.3937
10195TIP3    H154780   2.841   5.209   8.792 -1.0583  0.3468  0.7197
10195TIP3    H254781   2.909   5.169   8.920 -0.0251  0.9171  0.3606
10196TIP3   OH254782   0.786   1.231  11.555 -0.2757  0.1293  0.1469
10196TIP3    H154783   0.805   1.283  11.477  0.8637 -1.8493 -0.9679
10196TIP3    H254784   0.794   1.293  11.627  0.4303  1.6388 -1.1621
10197TIP3   OH254785   2.529   6.265  12.038  0.1834  0.3708 -0.1913
10197TIP3    H154786   2.555   6.336  12.097 -1.3996 -1.1742  2.5329
10197TIP3    H254787   2.597   6.199  12.050 -0.3948 -0.1422  0.3003
10198TIP3   OH254788   2.169   4.453   9.378 -0.4469 -0.0948  0.1268
10198TIP3    H154789   2.172   4.546   9.354 -0.5451 -0.6583 -2.2532
10198TIP3    H254790   2.256   4.420   9.354  0.2560 -0.3074  2.6455
10199TIP3   OH254791   3.409   1.341   8.885  0.2396  0.3544 -0.4941
10199TIP3    H154792   3.386   1.355   8.977 -0.7145 -1.4477 -0.4046
10199TIP3    H254793   3.471   1.411   8.864 -0.0664  1.2148  1.3085
10200TIP3   OH254794   6.073   2.049  10.184  0.1457  0.2523 -0.2098
10200TIP3    H154795   6.001   2.099  10.147 -0.0512 -0.0070 -0.1758
10200TIP3    H254796   6.151   2.100  10.163  0.1613 -0.4243 -1.9313
10201TIP3   OH254797   0.030   2.990   9.432 -0.3673 -0.0303  0.3643
10201TIP3    H154798   0.078   3.046   9.371 -0.2532 -1.5548 -1.0346
10201TIP3    H254799   0.096   2.957   9.492  0.2302 -1.3559 -0.9572
10202TIP3   OH254800   5.254   2.613   9.766 -0.0514  1.1017 -0.3375
10202TIP3    H154801   5.212   2.687   9.810  0.5141  1.7691 -0.8818
10202TIP3    H254802   5.198   2.594   9.691 -0.4331  0.6811  0.0497
10203TIP3   OH254803   0.210   2.959  10.845  0.5369  0.1667  0.1306
10203TIP3    H154804   0.156   2.972  10.923  0.1172  0.6906 -0.2376
10203TIP3    H254805   0.249   2.872  10.857 -0.8926 -0.5080  0.1173
10204TIP3   OH254806   3.021   3.333  11.500  0.3009  0.1941 -0.0761
10204TIP3    H154807   3.048   3.373  11.417 -3.7361  1.6946 -0.8613
10204TIP3    H254808   2.976   3.402  11.547 -0.9575 -1.6807  1.6509
10205TIP3   OH254809   6.056   0.726  10.143 -0.0838  0.0305 -0.4208
10205TIP3    H154810   6.136   0.767  10.177 -0.1562  0.2239 -0.4868
10205TIP3    H254811   6.061   0.636  10.175  0.1258  0.0613 -0.3637
10206TIP3   OH254812   4.823   6.544   8.623  0.1173 -0.3060  0.3228
10206TIP3    H154813   4.771   6.573   8.548  1.1280 -1.0020 -0.6847
10206TIP3    H254814   4.760   6.533   8.693 -0.8209  0.6404 -0.3416
10207TIP3   OH254815   1.882   1.046   9.375 -0.1771  0.1947 -1.1128
10207TIP3    H154816   1.908   0.954   9.380  0.9268  0.5121 -0.4942
10207TIP3    H254817   1.809   1.053   9.436  1.2191  0.1639  0.6553
10208TIP3   OH254818   3.357   3.026  11.604  0.2074 -0.2126  0.4344
10208TIP3    H154819   3.401   3.031  11.689  2.3605 -0.0986 -0.6217
10208TIP3    H254820   3.370   3.113  11.566 -0.6423 -0.2969 -0.0616
10209TIP3   OH254821   5.323   4.175   9.774 -0.1424  0.0924  0.1389
10209TIP3    H154822   5.290   4.090   9.803 -1.2115  0.5323  0.2436
10209TIP3    H254823   5.378   4.206   9.847  2.3557 -1.5895 -0.8795
10210TIP3   OH254824   3.664   3.999  12.089  0.4130 -0.0922  0.8359
10210TIP3    H154825   3.678   4.011  12.183  0.0249  2.2818  0.6425
10210TIP3    H254826   3.694   4.080  12.049 -0.4395 -0.6199 -1.0118
10211TIP3   OH254827   1.050   1.721  13.537 -0.3538  0.5508  0.5282
10211TIP3    H154828   1.096   1.696  13.457 -0.0766  0.0412  0.8396
10211TIP3    H254829   0.990   1.791  13.510 -0.8481 -0.1709 -0.2781
10212TIP3   OH254830   1.833   1.424   9.675  0.0785  0.3102  0.2364
10212TIP3    H154831   1.809   1.488   9.608  2.3923  1.7267  0.6365
10212TIP3    H254832   1.783   1.449   9.752  1.6670  2.3605  0.6793
10213TIP3   OH254833   6.241   5.740   9.144 -0.1678  0.1390  0.0876
10213TIP3    H154834   6.296   5.716   9.218 -0.1500 -3.0106 -0.8203
10213TIP3    H254835   6.153   5.746   9.180 -0.1717 -1.4415  0.3868
10214TIP3   OH254836   1.526   5.443   8.710 -0.9540  0.1513 -0.3627
10214TIP3    H154837   1.499   5.386   8.782  0.0872  0.4004  0.2397
10214TIP3    H254838   1.445   5.488   8.683 -1.7379 -1.3950 -0.6838
10215TIP3   OH254839   2.883   4.029   9.781 -0.0192 -0.6928  0.7013
10215TIP3    H154840   2.813   4.002   9.840 -0.5507 -1.4135 -0.2205
10215TIP3    H254841   2.937   3.951   9.770  0.9657 -0.1347  1.4260
10216TIP3   OH254842   2.082   2.427  11.404  0.5091  0.0448 -0.4100
10216TIP3    H154843   2.069   2.492  11.473 -0.1144  0.4490 -0.8884
10216TIP3    H254844   2.132   2.357  11.445 -1.4080 -0.5836  0.9819
10217TIP3   OH254845   4.632   3.867  11.393 -0.3124 -0.7753 -0.4818
10217TIP3    H154846   4.672   3.898  11.312  0.5897 -1.2863 -0.2428
10217TIP3    H254847   4.662   3.777  11.401  1.5078 -0.0586  1.5897
10218TIP3   OH254848   2.232   1.666  10.576 -0.0023  0.3299  0.3332
10218TIP3    H154849   2.305   1.721  10.603  0.5131 -0.2175  0.0804
10218TIP3    H254850   2.192   1.637  10.658  0.5034  0.0580  0.4876
10219TIP3   OH254851   3.321   0.361  10.462  0.1427 -0.5885 -0.2292
10219TIP3    H154852   3.349   0.407  10.541  0.6197  0.6684 -1.1046
10219TIP3    H254853   3.395   0.369  10.402 -1.3885  1.4004 -2.0002
10220TIP3   OH254854   4.627   5.901  11.943  0.0277  0.3448  0.1900
10220TIP3    H154855   4.596   5.983  11.982 -1.2898  1.3191 -2.6552
10220TIP3    H254856   4.592   5.833  11.999 -0.0698  1.6697  1.8157
10221TIP3   OH254857   3.459   0.829   9.486 -0.2125  0.1272  0.2452
10221TIP3    H154858   3.446   0.781   9.568 -1.6614  0.3976  0.2024
10221TIP3    H254859   3.510   0.769   9.431 -0.7718 -0.7831  0.7000
10222TIP3   OH254860   5.780   1.958  11.259 -0.3675 -0.1068  0.5193
10222TIP3    H154861   5.688   1.976  11.238  0.4615  3.2372 -0.7931
10222TIP3    H254862   5.802   1.880  11.208 -1.9628  0.1623 -0.6483
10223TIP3   OH254863   1.276   0.001  10.768  0.0612 -0.3844 -0.4655
10223TIP3    H154864   1.254   0.055  10.844  0.6817  1.6355 -1.6301
10223TIP3    H254865   1.354  -0.048  10.795 -1.1546 -1.6084  0.9964
10224TIP3   OH254866   4.482   5.475  11.449 -0.1609  0.2518  0.0229
10224TIP3    H154867   4.475   5.549  11.389  0.9379  0.1368 -0.2788
10224TIP3    H254868   4.475   5.398  11.394  0.3317  0.1454  0.0978
10225TIP3   OH254869   3.204   5.904  11.200  0.5887 -0.2258 -0.3112
10225TIP3    H154870   3.170   5.852  11.128  0.1165 -0.1857 -0.1215
10225TIP3    H254871   3.245   5.841  11.259  1.1913 -0.2322 -0.7319
10226TIP3   OH254872   0.276   0.818   9.035  0.2181  0.0751  0.2116
10226TIP3    H154873   0.233   0.751   9.089 -0.4627  0.4435  0.1437
10226TIP3    H254874   0.271   0.784   8.946 -2.2196  1.2269 -0.1559
10227TIP3   OH254875   2.194   6.145  11.297 -0.2111 -0.3360  0.0929
10227TIP3    H154876   2.221   6.060  11.264 -0.1493 -1.1995  2.2042
10227TIP3    H254877   2.099   6.139  11.304 -0.1359 -0.5352  1.0027
10228TIP3   OH254878   1.567   2.196  11.165  0.4113 -0.1995 -0.0270
10228TIP3    H154879   1.580   2.109  11.204  1.8936 -0.2517 -0.5818
10228TIP3    H254880   1.529   2.179  11.079 -0.8059 -0.1951  0.4912
10229TIP3   OH254881   3.817   1.744  10.702  0.2680  0.3144  0.1358
10229TIP3    H154882   3.895   1.695  10.678  0.1170 -0.6431  1.4549
10229TIP3    H254883   3.850   1.824  10.743  0.6157 -0.4818  1.4900
10230TIP3   OH254884   0.826   4.258   9.247  0.5527 -0.6268  0.2685
10230TIP3    H154885   0.744   4.219   9.215 -0.0115 -0.0418  0.9742
10230TIP3    H254886   0.865   4.191   9.303  0.6189 -0.9508 -0.1622
10231TIP3   OH254887   0.857   5.068  10.831 -0.4780  0.1176  0.7348
10231TIP3    H154888   0.858   5.149  10.881 -0.9174 -0.1697  1.2132
10231TIP3    H254889   0.779   5.021  10.861  0.3515 -0.9784  1.2618
10232TIP3   OH254890   5.344   3.978   9.026 -0.8044 -0.2503 -0.2130
10232TIP3    H154891   5.297   4.022   8.956 -0.5675 -1.3981 -1.1211
10232TIP3    H254892   5.366   3.892   8.990  1.3230 -0.0397  0.4407
10233TIP3   OH254893   1.860   3.456  10.911  0.5601  0.1959 -0.2697
10233TIP3    H154894   1.829   3.537  10.951  1.5120  0.1167  0.6434
10233TIP3    H254895   1.782   3.420  10.867 -0.6749  0.0231  1.9231
10234TIP3   OH254896   0.713   2.130  10.534  0.2801 -0.8318  0.0752
10234TIP3    H154897   0.730   2.046  10.576  0.3353 -0.7370  0.2422
10234TIP3    H254898   0.724   2.112  10.440  1.8149 -0.6626  0.1956
10235TIP3   OH254899   0.029   3.780  10.309 -0.7553  0.2527  0.2505
10235TIP3    H154900   0.039   3.873  10.327 -0.3117  0.1817  0.3822
10235TIP3    H254901  -0.012   3.744  10.388  0.6560  0.0426  0.9145
10236TIP3   OH254902   2.499   2.834  10.037 -0.8028 -0.4151  0.0088
10236TIP3    H154903   2.421   2.887  10.051 -0.6914 -0.2402 -0.0376
10236TIP3    H254904   2.522   2.801  10.124  0.5996  1.6623  0.4904
10237TIP3   OH254905   1.573   3.835  12.275  0.2370 -0.5159  0.0151
10237TIP3    H154906   1.617   3.905  12.322  1.9758 -1.5293 -0.0326
10237TIP3    H254907   1.588   3.855  12.182 -0.7548 -0.0410 -0.0526
10238TIP3   OH254908   2.053   0.907  12.075  0.1894 -0.2854 -0.4750
10238TIP3    H154909   2.010   0.972  12.131  1.4853  1.1248 -1.0567
10238TIP3    H254910   2.002   0.827  12.089 -2.2732  1.1238 -0.6772
10239TIP3   OH254911   6.574   0.599  11.418  0.3916 -1.0402  0.3546
10239TIP3    H154912   6.522   0.638  11.347  0.5739 -0.4924  0.5143
10239TIP3    H254913   6.665   0.607  11.389  0.8005  2.4334  2.1117
10240TIP3   OH254914   3.431   1.084   9.693  0.0061  0.1030 -0.3137
10240TIP3    H154915   3.426   1.027   9.770 -2.8115 -0.3222 -0.6898
10240TIP3    H254916   3.361   1.148   9.706 -0.4141  0.1405 -2.3952
10241TIP3   OH254917   1.755   6.033  10.634 -0.0050  0.1100 -0.5063
10241TIP3    H154918   1.815   5.961  10.621 -1.3060 -1.1867  0.3106
10241TIP3    H254919   1.786   6.077  10.713 -2.0710 -2.7811  2.1246
10242TIP3   OH254920   2.845   1.610   9.253 -0.3780 -0.2004 -0.4311
10242TIP3    H154921   2.764   1.580   9.213 -0.6316  0.0990 -0.1464
10242TIP3    H254922   2.913   1.589   9.188 -0.9389  1.5412 -1.6577
10243TIP3   OH254923   4.292   5.542  11.130  0.0017 -0.0719  0.1012
10243TIP3    H154924   4.251   5.468  11.175  0.4865 -1.6605 -1.9276
10243TIP3    H254925   4.354   5.502  11.068  1.0692  2.0776 -0.3260
10244TIP3   OH254926   5.055   1.386   9.609  1.1822  0.0251 -0.1961
10244TIP3    H154927   5.098   1.301   9.607  1.3122  0.0837  0.0826
10244TIP3    H254928   4.968   1.368   9.647  0.8657 -0.1312 -0.9689
10245TIP3   OH254929   1.140   1.717   9.752 -0.0924  0.0774  0.5207
10245TIP3    H154930   1.146   1.644   9.813  0.5337  0.7840  1.3270
10245TIP3    H254931   1.047   1.740   9.750 -0.4169 -1.1686 -0.2911
10246TIP3   OH254932   6.061   0.745  10.868 -0.1888 -0.2912 -0.0367
10246TIP3    H154933   6.005   0.671  10.848  0.0167 -0.6231  0.6039
10246TIP3    H254934   6.005   0.822  10.856 -0.2060 -0.4872 -1.4288
10247TIP3   OH254935   5.152   4.572  11.874 -0.1167 -0.4140  0.3930
10247TIP3    H154936   5.247   4.571  11.881 -0.1597  0.8322  1.4879
10247TIP3    H254937   5.135   4.561  11.780  1.1936  1.4553 -0.1290
10248TIP3   OH254938   1.600   1.340  12.153  0.1237  0.1961  0.2632
10248TIP3    H154939   1.675   1.362  12.097 -0.3078 -0.6098 -0.6761
10248TIP3    H254940   1.534   1.307  12.092  0.3318 -2.5778  1.3982
10249TIP3   OH254941   4.354   1.149  11.615  0.4516 -0.3285  0.5753
10249TIP3    H154942   4.421   1.103  11.564  0.2730 -1.3293  1.1893
10249TIP3    H254943   4.404   1.199  11.680  0.6317 -0.5967  0.6477
10250TIP3   OH254944   1.419   4.224  10.476 -0.0969 -0.1810 -0.7128
10250TIP3    H154945   1.342   4.215  10.421 -0.1008 -1.3702 -0.5383
10250TIP3    H254946   1.483   4.270  10.421 -0.3362 -0.7343 -1.4683
10251TIP3   OH254947   1.164   4.641  10.257 -0.1137  0.6022 -0.5954
10251TIP3    H154948   1.209   4.615  10.337  0.2507  0.0676 -0.9665
10251TIP3    H254949   1.134   4.730  10.274 -1.6489 -0.1554  0.8074
10252TIP3   OH254950   0.269   6.635  10.206 -0.2708  0.2663  0.1535
10252TIP3    H154951   0.227   6.564  10.254 -1.0315  1.7485  1.8054
10252TIP3    H254952   0.239   6.625  10.116 -1.0425 -0.9874  0.5245
10253TIP3   OH254953   5.580   0.430  10.677  0.0854 -0.7972 -0.4452
10253TIP3    H154954   5.565   0.436  10.582  0.8487  0.3945 -0.5136
10253TIP3    H254955   5.669   0.463  10.689  0.6657 -2.5799  0.5242
10254TIP3   OH254956   0.926   2.569  11.999 -0.4257 -0.2233  0.3681
10254TIP3    H154957   0.994   2.501  12.003  0.2013  0.4124  0.6366
10254TIP3    H254958   0.929   2.610  12.085 -2.1379 -1.1178  0.9100
10255TIP3   OH254959   4.734   1.037  11.185  0.4202  0.1113  0.1248
10255TIP3    H154960   4.805   1.102  11.188  0.3114  0.2185  0.4191
10255TIP3    H254961   4.660   1.085  11.147 -0.0152  0.5094  1.4357
10256TIP3   OH254962   1.142   5.892  10.941 -0.1559  0.0783 -0.4190
10256TIP3    H154963   1.160   5.802  10.911  0.3398  0.7835 -2.4446
10256TIP3    H254964   1.074   5.923  10.881 -0.1968  1.1224  0.1534
10257TIP3   OH254965   5.569   1.989   9.619  0.1837  0.1398 -0.0946
10257TIP3    H154966   5.578   2.084   9.618 -0.2989  0.1922  0.1641
10257TIP3    H254967   5.659   1.956   9.621  0.3657  0.6352  2.1086
10258TIP3   OH254968   2.688   2.533  11.273 -0.0657  0.5110 -0.2339
10258TIP3    H154969   2.621   2.520  11.340  0.7467 -1.0423  0.3259
10258TIP3    H254970   2.768   2.554  11.322 -0.1356  2.5864 -0.9028
10259TIP3   OH254971   3.118   4.334   9.130 -0.0982 -0.7504 -0.1428
10259TIP3    H154972   3.178   4.314   9.202 -0.0212  0.5255  0.1768
10259TIP3    H254973   3.110   4.430   9.132 -1.6903 -0.8504 -0.5392
10260TIP3   OH254974   1.800   2.712  10.437  0.2005 -0.0372  0.7393
10260TIP3    H154975   1.890   2.741  10.419  0.0600  0.6496  1.1204
10260TIP3    H254976   1.797   2.701  10.532  0.0404 -0.6056  0.6686
10261TIP3   OH254977   3.943   4.079  11.295  0.1358 -0.7648 -0.1213
10261TIP3    H154978   4.000   4.015  11.252  1.8325  0.2891  0.4505
10261TIP3    H254979   3.894   4.028  11.359  1.2094 -1.5647  0.0881
10262TIP3   OH254980   4.636   2.274  10.197 -0.1140  0.4450 -0.0251
10262TIP3    H154981   4.637   2.368  10.217 -1.1044  0.4636 -0.0072
10262TIP3    H254982   4.594   2.268  10.111 -1.0712 -0.0569  0.4652
10263TIP3   OH254983   1.193   1.518   9.041 -0.3012  0.3222 -0.2317
10263TIP3    H154984   1.226   1.598   9.000  0.2586  0.1532 -0.1152
10263TIP3    H254985   1.230   1.519   9.129  0.6832 -0.6648 -0.6218
10264TIP3   OH254986   1.187   2.903  10.878  0.1540 -0.1022  0.4792
10264TIP3    H154987   1.251   2.935  10.942  0.6096 -1.4321  0.7060
10264TIP3    H254988   1.111   2.879  10.930  0.8206 -1.9532  0.6512
10265TIP3   OH254989   5.817   0.733  11.599  0.0958 -0.0516 -0.0177
10265TIP3    H154990   5.780   0.727  11.688  2.2995  0.8419  1.0259
10265TIP3    H254991   5.742   0.759  11.545 -1.0552  0.7133  1.8187
10266TIP3   OH254992   2.538   4.081  11.366 -0.5430  0.2797 -0.5278
10266TIP3    H154993   2.493   4.166  11.373 -2.0168 -0.4342 -0.9326
10266TIP3    H254994   2.619   4.101  11.319 -1.1075  1.3902 -1.0788
10267TIP3   OH254995   6.510   0.540  11.094  0.8372 -0.0526 -0.2775
10267TIP3    H154996   6.585   0.510  11.043  0.2778  2.0806 -2.5542
10267TIP3    H254997   6.461   0.596  11.034 -0.8761  1.1922  2.1073
10268TIP3   OH254998   4.441   1.844   8.996 -0.1947  0.1817 -0.2444
10268TIP3    H154999   4.440   1.884   9.082 -0.9080  0.8290 -0.5474
10268TIP3    H255000   4.384   1.767   9.004 -1.7665  1.2622 -0.5980
10269TIP3   OH255001   6.070   6.507  11.123 -0.0160 -0.1810 -0.5774
10269TIP3    H155002   6.116   6.487  11.205 -0.8695 -1.3424 -0.3602
10269TIP3    H255003   6.046   6.599  11.131  2.4469  0.5588 -0.8098
10270TIP3   OH255004   0.938   1.240   9.915  0.9907 -0.0652  0.1455
10270TIP3    H155005   0.933   1.318   9.971  3.1186  1.2203 -1.2689
10270TIP3    H255006   0.865   1.185   9.942  1.6927  0.6251  3.8721
10271TIP3   OH255007   2.525   2.421   9.180 -0.2627  0.2071 -0.4351
10271TIP3    H155008   2.589   2.392   9.115  1.3006 -2.4619  2.0690
10271TIP3    H255009   2.576   2.471   9.243 -0.5449 -1.7745  1.4867
10272TIP3   OH255010   2.168   5.664   9.608  0.5179  0.2393 -0.1266
10272TIP3    H155011   2.098   5.604   9.633  0.4937 -0.7998 -2.4970
10272TIP3    H255012   2.220   5.674   9.688 -1.2687 -0.3979  1.1783
10273TIP3   OH255013   4.273   3.103   9.425 -0.3586 -0.3692  0.0700
10273TIP3    H155014   4.318   3.150   9.355  0.2212 -2.5530 -1.1330
10273TIP3    H255015   4.213   3.166   9.463  1.2605  1.6630 -0.5827
10274TIP3   OH255016   5.152   2.777   9.501  0.3188  0.1201 -0.2133
10274TIP3    H155017   5.138   2.683   9.511  0.0777  0.2794  1.1886
10274TIP3    H255018   5.070   2.816   9.531  0.7361  0.7974  0.0626
10275TIP3   OH255019   3.405   2.517   9.253 -0.1851  0.1490 -0.6866
10275TIP3    H155020   3.424   2.534   9.345 -0.9996  2.2859 -0.8386
10275TIP3    H255021   3.489   2.491   9.216  0.3435  0.1245  0.4830
10276TIP3   OH255022   3.450   3.172   9.099  0.1402  0.0991 -0.0657
10276TIP3    H155023   3.533   3.160   9.052 -0.8906  1.7524 -2.5002
10276TIP3    H255024   3.384   3.134   9.042 -1.0574  1.1446  0.5703
10277TIP3   OH255025   3.481   1.894   8.931  0.2036 -0.1140  0.1660
10277TIP3    H155026   3.414   1.835   8.896  1.4981 -0.9016 -1.0483
10277TIP3    H255027   3.472   1.885   9.026 -0.8965 -0.7998  0.0214
10278TIP3   OH255028   1.237   6.418   9.739 -0.2076 -0.1035  0.3705
10278TIP3    H155029   1.221   6.335   9.693 -0.1780  0.4176 -0.6061
10278TIP3    H255030   1.281   6.392   9.820 -0.2600 -1.0490  0.1090
10279TIP3   OH255031   0.561   2.744   8.920 -0.0629  1.1811  0.5214
10279TIP3    H155032   0.527   2.707   9.001 -1.8510  1.8510  0.1299
10279TIP3    H255033   0.549   2.839   8.930 -1.0185  1.2236 -0.8132
10280TIP3   OH255034   1.144   3.229  10.226 -0.7192 -0.4882  0.0556
10280TIP3    H155035   1.078   3.224  10.158  0.6685 -0.7293 -1.3361
10280TIP3    H255036   1.145   3.321  10.252  0.0774  0.0499 -1.7101
10281TIP3   OH255037   4.585   0.394   9.195 -0.0246  0.6122  0.3614
10281TIP3    H155038   4.607   0.464   9.133 -1.0743  0.1227 -0.6091
10281TIP3    H255039   4.668   0.349   9.211  0.2143  0.5230 -0.9985
10282TIP3   OH255040   1.365   2.886   9.218 -0.1495 -0.4426 -0.4029
10282TIP3    H155041   1.298   2.837   9.264 -2.6021  1.9780 -1.1079
10282TIP3    H255042   1.401   2.946   9.284 -0.4956 -0.0015 -0.6144
10283TIP3   OH255043   2.435   3.337  10.476  0.4585  0.2067  0.2867
10283TIP3    H155044   2.506   3.295  10.524 -1.2203 -3.3485 -0.0701
10283TIP3    H255045   2.476   3.371  10.397  1.7675 -2.0403 -0.0776
10284TIP3   OH255046   2.760   6.063  11.027 -0.1875 -0.0082 -0.6885
10284TIP3    H155047   2.677   6.030  10.992  1.2298 -1.0877 -3.2494
10284TIP3    H255048   2.804   5.985  11.062 -0.3757  0.6292  1.0931
10285TIP3   OH255049   4.208   3.443  10.388  0.0047  0.2899  0.2599
10285TIP3    H155050   4.238   3.436  10.478  1.9916  3.0293 -0.0412
10285TIP3    H255051   4.214   3.537  10.368 -0.3073 -0.2120 -2.7132
10286TIP3   OH255052   2.024   3.272  10.010  1.0861  0.1131  0.2366
10286TIP3    H155053   2.066   3.352  10.042  1.8411 -0.6995  1.3254
10286TIP3    H255054   1.944   3.264  10.063 -0.1552  1.2603 -1.3357
10287TIP3   OH255055   5.788   4.645   8.727 -0.0641 -0.1607  0.0014
10287TIP3    H155056   5.743   4.567   8.694  0.8579  0.1893 -2.3154
10287TIP3    H255057   5.718   4.700   8.762 -0.8627 -1.5303  0.6113
10288TIP3   OH255058   1.077   0.153  10.103  0.4095 -0.7698 -0.2932
10288TIP3    H155059   1.134   0.076  10.106  0.7564 -0.5334 -0.6376
10288TIP3    H255060   1.079   0.187  10.192  0.9766 -0.6458 -0.3489
10289TIP3   OH255061   1.817   5.426   8.733  0.0270 -0.0987 -0.2280
10289TIP3    H155062   1.885   5.459   8.674 -1.2667 -0.3013 -1.8791
10289TIP3    H255063   1.736   5.429   8.682 -0.6827 -3.0198  0.5086
10290TIP3   OH255064   1.041   2.507  11.130 -0.6816  0.5499 -0.0171
10290TIP3    H155065   1.116   2.494  11.073  0.1484 -2.4754  1.5869
10290TIP3    H255066   0.966   2.477  11.079 -0.0335 -1.5183  0.1761
10291TIP3   OH255067   5.650   1.421  10.072 -0.0477  0.5642  0.0560
10291TIP3    H155068   5.636   1.420   9.977 -0.9366 -0.9973  0.1596
10291TIP3    H255069   5.745   1.414  10.082  0.2043  2.3914 -0.6876
10292TIP3   OH255070   4.159   1.457  11.297  0.4425 -0.7185 -0.1880
10292TIP3    H155071   4.148   1.401  11.220  1.9862  0.1390 -1.0781
10292TIP3    H255072   4.071   1.491  11.315 -0.0866 -1.5850 -1.0510
10293TIP3   OH255073   0.029   2.930   9.932  0.4653  0.0614  0.0263
10293TIP3    H155074   0.052   2.862   9.868 -1.1434 -0.2960 -0.2105
10293TIP3    H255075   0.063   2.898  10.015  2.2112  0.3272 -0.5491
10294TIP3   OH255076   5.089   0.592  11.342 -0.0464  1.0487 -0.3002
10294TIP3    H155077   5.107   0.513  11.393 -0.2541  0.4889 -1.0743
10294TIP3    H255078   5.142   0.583  11.263 -0.9289  1.1377 -0.9144
10295TIP3   OH255079   3.384   1.506  11.368  0.1812  0.1940 -0.5294
10295TIP3    H155080   3.442   1.457  11.310  1.7443  1.7396 -0.3459
10295TIP3    H255081   3.329   1.440  11.409 -0.9913 -1.0118 -3.6998
10296TIP3   OH255082   2.526   3.085   9.283  0.0984  0.2417 -0.2051
10296TIP3    H155083   2.584   3.116   9.214  0.7090 -0.5522 -0.0665
10296TIP3    H255084   2.492   3.002   9.250 -0.4513  0.3830 -0.0061
10297TIP3   OH255085   4.441   2.807   9.048 -0.2890  0.5165 -0.1245
10297TIP3    H155086   4.535   2.819   9.032  0.0766 -0.5254  1.0697
10297TIP3    H255087   4.429   2.834   9.139 -1.0026 -0.0667 -0.0383
10298TIP3   OH255088   5.595   4.151   8.787 -0.2254 -0.5831 -0.2612
10298TIP3    H155089   5.647   4.076   8.816  1.2694  0.5110  0.0442
10298TIP3    H255090   5.588   4.206   8.865  1.1139  0.9013 -1.1335
10299TIP3   OH255091   2.978   1.026  10.352  0.2963  0.0603  0.7738
10299TIP3    H155092   2.950   1.095  10.291  0.4169 -1.2241 -0.7968
10299TIP3    H255093   3.066   1.051  10.378  1.2495 -0.5895 -1.5696
10300TIP3   OH255094   1.055   4.768   9.448 -0.1452 -0.2184 -0.0463
10300TIP3    H155095   0.965   4.763   9.478 -0.4793  0.3123 -0.9226
10300TIP3    H255096   1.091   4.845   9.491 -1.3948  2.1177 -2.8471
10301TIP3   OH255097   6.196   2.130   8.919 -0.5314  0.1168 -0.0501
10301TIP3    H155098   6.260   2.194   8.887 -0.0422  0.1330  0.9189
10301TIP3    H255099   6.187   2.067   8.847 -2.7089  2.4047 -1.9579
10302TIP3   OH255100   2.451   2.914   8.629 -0.4913  0.1601  0.2263
10302TIP3    H155101   2.375   2.889   8.681 -1.1147  0.0967 -0.6794
10302TIP3    H255102   2.438   2.870   8.545  2.4650 -3.0550  1.2044
10303TIP3   OH255103   2.976   3.066   9.741 -0.2644 -0.1747 -0.5293
10303TIP3    H155104   3.050   3.104   9.789  0.6072 -2.3394 -0.0561
10303TIP3    H255105   2.920   3.029   9.809  0.0209 -1.5958 -1.0349
10304TIP3   OH255106   4.022   2.178   9.687 -0.6152 -0.3984  0.2562
10304TIP3    H155107   3.930   2.200   9.701 -0.7613  0.1225 -1.2759
10304TIP3    H255108   4.067   2.263   9.690 -0.1793 -0.6406  0.9041
10305TIP3   OH255109   4.025   0.757  11.680 -0.5410  0.0542  0.4122
10305TIP3    H155110   3.985   0.675  11.711  0.1766 -0.1537  0.8322
10305TIP3    H255111   4.111   0.730  11.648  0.0146  0.7445  1.2781
10306TIP3   OH255112   0.777   1.566  12.276  0.1088  0.3068 -0.2189
10306TIP3    H155113   0.778   1.661  12.287 -2.6615  0.6545 -1.8050
10306TIP3    H255114   0.770   1.531  12.365 -0.4067  1.6891  0.3101
10307TIP3   OH255115   2.621   6.071   9.516 -0.6213 -0.2898  0.3237
10307TIP3    H155116   2.702   6.096   9.472 -0.9462 -2.0082 -1.4091
10307TIP3    H255117   2.567   6.150   9.514  0.0346  0.1487 -0.9343
10308TIP3   OH255118   3.224   6.665  10.407 -0.1948  0.2891  0.1512
10308TIP3    H155119   3.268   6.652  10.323 -1.3492 -0.8461 -0.3091
10308TIP3    H255120   3.265   6.601  10.465 -0.9923 -0.5354 -0.1857
10309TIP3   OH255121   5.231   2.127   9.432  0.1684  0.0655  0.2542
10309TIP3    H155122   5.246   2.179   9.511  2.0933  1.1930 -0.7749
10309TIP3    H255123   5.135   2.120   9.426 -0.0564  1.0223  1.9786
10310TIP3   OH255124   1.130   3.670   9.693  0.4454 -0.0020 -0.4297
10310TIP3    H155125   1.146   3.672   9.787 -0.3596 -0.4865 -0.2845
10310TIP3    H255126   1.085   3.753   9.674  0.2569 -0.0852 -0.3351
10311TIP3   OH255127   5.178   3.954   9.861  0.1679 -0.2056 -0.0148
10311TIP3    H155128   5.108   3.895   9.889 -0.6302  1.0248  0.6837
10311TIP3    H255129   5.160   3.971   9.769  0.9972 -1.8009 -0.5242
10312TIP3   OH255130   1.480   0.988  10.742  0.0271  0.3088  0.0059
10312TIP3    H155131   1.516   0.900  10.752  0.3479  0.1759 -1.9716
10312TIP3    H255132   1.406   0.978  10.683 -0.2828  1.3031  0.1963
10313TIP3   OH255133   2.622   5.723   9.755 -0.1384 -0.1316  0.1820
10313TIP3    H155134   2.654   5.772   9.679  0.4471 -0.3827  0.2593
10313TIP3    H255135   2.675   5.754   9.828 -0.2729 -0.3407  0.3716
10314TIP3   OH255136   5.894   0.748  11.308  0.0597  0.2375 -0.2886
10314TIP3    H155137   5.902   0.734  11.402 -0.6288  1.9744  0.0628
10314TIP3    H255138   5.880   0.661  11.272  1.7657 -0.6427  1.0406
10315TIP3   OH255139   2.597   6.519  12.366  0.0085 -0.0220 -0.0961
10315TIP3    H155140   2.619   6.506  12.274  0.4037 -1.6308  0.1894
10315TIP3    H255141   2.621   6.610  12.384  1.9997 -0.2979 -1.0372
10316TIP3   OH255142   1.368   1.376  10.656 -0.0508 -0.1868 -0.3299
10316TIP3    H155143   1.355   1.332  10.572 -0.7286 -1.8330  0.5790
10316TIP3    H255144   1.435   1.442  10.639  1.1026 -1.6509 -1.7698
10317TIP3   OH255145   0.719   2.243  11.202 -0.2563 -0.2609  0.2312
10317TIP3    H155146   0.717   2.164  11.149  1.3989 -1.4484  1.8088
10317TIP3    H255147   0.720   2.212  11.293  0.3428  1.5685  0.9110
10318TIP3   OH255148   4.461   2.613  10.559  0.4694 -0.0687  0.0687
10318TIP3    H155149   4.516   2.635  10.483  0.8525 -0.8273  0.1226
10318TIP3    H255150   4.523   2.585  10.626 -0.0822 -3.2774 -0.6351
10319TIP3   OH255151   3.748   6.288   9.796 -0.3039 -0.4150 -0.0832
10319TIP3    H155152   3.829   6.295   9.848 -1.4859  0.8392  1.6924
10319TIP3    H255153   3.687   6.241   9.853 -1.7465  1.2767 -0.1585
10320TIP3   OH255154   1.263   5.501   9.920  0.5044  0.1930  0.2999
10320TIP3    H155155   1.333   5.539   9.867  1.9382  0.9798  2.6011
10320TIP3    H255156   1.237   5.571   9.980 -1.7149 -0.3556  0.0549
10321TIP3   OH255157   0.064   1.993  11.700  0.0254 -0.1345 -0.4903
10321TIP3    H155158   0.028   1.951  11.778  0.1664 -0.3828 -0.5580
10321TIP3    H255159   0.072   2.086  11.724  2.2378 -0.5293  0.6254
10322TIP3   OH255160   3.371   0.111   8.790  0.1678 -0.0736  0.0868
10322TIP3    H155161   3.452   0.160   8.805  0.4576 -0.8697  1.2848
10322TIP3    H255162   3.382   0.072   8.703  1.3659 -0.7005  0.5046
10323TIP3   OH255163   5.459   6.207   9.871  0.0302  0.2545  0.0156
10323TIP3    H155164   5.521   6.188   9.801  1.7679  0.7722  1.3463
10323TIP3    H255165   5.423   6.293   9.849  2.2362  1.4669  0.8166
10324TIP3   OH255166   0.364   2.331  10.282  0.1587 -0.6762 -0.0897
10324TIP3    H155167   0.452   2.308  10.252  0.8968 -0.2880  1.6563
10324TIP3    H255168   0.312   2.253  10.264  0.6177 -0.5947 -1.9663
10325TIP3   OH255169   2.616   1.145  11.977  0.7834  0.1050 -0.2608
10325TIP3    H155170   2.654   1.232  11.967  2.1812 -0.1873  1.7608
10325TIP3    H255171   2.663   1.107  12.052 -0.7697 -1.8480 -0.1891
10326TIP3   OH255172   2.059   5.341  10.322  0.1111 -1.3012  0.6235
10326TIP3    H155173   2.091   5.371  10.237  1.1683 -0.1761  1.3852
10326TIP3    H255174   2.000   5.269  10.301 -0.7338 -0.1602 -1.1422
10327TIP3   OH255175   4.458   5.180  10.491  0.0031 -0.2340  0.7453
10327TIP3    H155176   4.393   5.188  10.560  1.4048 -0.4086  2.1428
10327TIP3    H255177   4.459   5.266  10.448  0.2995  0.4308  2.0511
10328TIP3   OH255178   4.543   3.466  10.944 -0.4529 -0.1830  0.5191
10328TIP3    H155179   4.619   3.480  11.001  0.2410 -1.9556  0.0913
10328TIP3    H255180   4.519   3.375  10.958 -0.7947 -0.4251 -1.3848
10329TIP3   OH255181   5.053   2.483  12.128 -0.1223 -0.2268  0.1282
10329TIP3    H155182   5.054   2.529  12.045 -1.0900  0.2857  0.3859
10329TIP3    H255183   4.987   2.415  12.118  0.9602 -1.2783 -0.0867
10330TIP3   OH255184   3.801   1.407   9.717 -0.2143 -0.5696 -0.1419
10330TIP3    H155185   3.871   1.425   9.654 -0.4416 -2.7478 -1.1056
10330TIP3    H255186   3.842   1.417   9.803  1.8518 -3.4926 -0.6509
10331TIP3   OH255187   6.622   2.054   9.312  0.3779 -0.2762  0.3079
10331TIP3    H155188   6.612   1.999   9.235  0.4380  0.1785 -0.0299
10331TIP3    H255189   6.633   1.993   9.384  2.0784 -0.7052 -0.2746
10332TIP3   OH255190   5.517   2.433  10.649 -0.1350  0.0654  0.4524
10332TIP3    H155191   5.589   2.422  10.711  0.7687  1.0928 -0.3678
10332TIP3    H255192   5.510   2.348  10.605  1.9583  0.4827 -0.8583
10333TIP3   OH255193   3.208   1.111  12.064  0.1445  0.8399 -0.3087
10333TIP3    H155194   3.116   1.134  12.070  0.0920  0.6672 -0.4441
10333TIP3    H255195   3.254   1.195  12.060  0.0578  0.9520  0.6528
10334TIP3   OH255196   5.494   2.405  12.040  0.1855  0.0384  0.2404
10334TIP3    H155197   5.533   2.376  11.957 -0.2987  0.9650 -0.3373
10334TIP3    H255198   5.563   2.456  12.082 -0.4577  2.0832 -1.0040
10335TIP3   OH255199   1.546   1.163   8.799 -0.2186  0.5939  0.2431
10335TIP3    H155200   1.485   1.103   8.842 -0.3347  0.6792  0.1947
10335TIP3    H255201   1.492   1.235   8.768 -0.3081  0.0095 -1.0121
10336TIP3   OH255202   3.683   4.352   9.726 -0.3072  0.0893  0.1010
10336TIP3    H155203   3.710   4.348   9.817 -2.7221 -1.6662  0.8451
10336TIP3    H255204   3.740   4.418   9.687  1.7483 -0.1165  2.5012
10337TIP3   OH255205   2.637   3.219  11.757  0.3137  0.6481  0.2687
10337TIP3    H155206   2.669   3.244  11.844  0.1097  0.3798  0.4230
10337TIP3    H255207   2.652   3.296  11.702  1.8293  0.3336  0.1810
10338TIP3   OH255208   3.105   5.168   9.258  0.0522 -0.1579 -0.0153
10338TIP3    H155209   3.115   5.216   9.176 -2.5268  0.0720 -0.2791
10338TIP3    H255210   3.187   5.120   9.268  0.2416 -0.6512 -3.0261
10339TIP3   OH255211   6.291   4.567  11.070 -0.3863 -0.2168 -0.0406
10339TIP3    H155212   6.352   4.613  11.012  1.4280 -1.0529  1.1156
10339TIP3    H255213   6.316   4.475  11.062 -1.6689 -0.6054  0.2988
10340TIP3   OH255214   3.943   3.132  12.114  0.5533 -0.6369  0.2903
10340TIP3    H155215   3.982   3.195  12.174 -0.1490  0.6518 -0.5639
10340TIP3    H255216   3.981   3.048  12.140  1.6174  0.1402  1.3686
10341TIP3   OH255217   3.122   6.417  11.044  0.0424 -0.3072  0.1070
10341TIP3    H155218   3.176   6.383  11.115 -0.3914 -0.8586  0.1843
10341TIP3    H255219   3.114   6.344  10.983 -0.2809 -0.1041 -0.0973
10342TIP3   OH255220   1.224   5.467  12.115 -0.9021  0.1007  0.4512
10342TIP3    H155221   1.239   5.554  12.152  0.3968 -0.1420  0.5447
10342TIP3    H255222   1.309   5.441  12.079 -1.0938 -1.3887  0.9827
10343TIP3   OH255223   0.745   0.774  10.474  0.0240  0.2853  0.6971
10343TIP3    H155224   0.782   0.816  10.551 -0.6072  2.4734 -0.1264
10343TIP3    H255225   0.818   0.767  10.412 -0.1018  1.1984  0.4375
10344TIP3   OH255226   6.469   1.444  10.679  0.3847  0.0642  0.2186
10344TIP3    H155227   6.442   1.352  10.686 -0.7615  0.3063 -0.8025
10344TIP3    H255228   6.394   1.489  10.640  1.1841  1.3224  0.0619
10345TIP3   OH255229   0.789   4.036   9.812 -0.1621 -0.2251  0.7603
10345TIP3    H155230   0.816   4.048   9.903  0.2501  1.4861  0.4373
10345TIP3    H255231   0.752   4.120   9.786 -0.7243 -0.8306 -0.5268
10346TIP3   OH255232   3.315   5.890  11.500 -0.3359 -0.3108 -0.1517
10346TIP3    H155233   3.342   5.925  11.415 -0.5793 -0.0025 -0.1044
10346TIP3    H255234   3.379   5.927  11.561  0.0107 -0.7635 -0.2400
10347TIP3   OH255235   3.117   1.643  12.029 -0.4477  0.1489  0.1454
10347TIP3    H155236   3.129   1.591  12.108 -0.1802 -0.1118 -0.0636
10347TIP3    H255237   3.137   1.582  11.958  1.7557  1.0404 -0.0475
10348TIP3   OH255238   6.475   3.072   9.246 -0.0122 -0.4425 -0.0482
10348TIP3    H155239   6.533   3.096   9.174  1.3732 -3.3112 -0.0305
10348TIP3    H255240   6.533   3.049   9.318 -1.3106  0.0562  1.2056
10349TIP3   OH255241   6.701   5.422  12.277  0.1586 -0.6014 -0.0316
10349TIP3    H155242   6.774   5.467  12.320  0.5820 -1.1314 -0.1911
10349TIP3    H255243   6.627   5.482  12.287  0.5286 -0.2160  0.4420
10350TIP3   OH255244   0.504   4.805  12.106 -0.0051  0.3449 -0.0983
10350TIP3    H155245   0.464   4.892  12.101  0.3055  0.4423 -0.9080
10350TIP3    H255246   0.452   4.751  12.047  1.1902  0.5300 -1.3630
10351TIP3   OH255247   6.632   1.563  10.863 -0.0280 -0.2595 -0.0323
10351TIP3    H155248   6.670   1.484  10.901 -0.9825 -0.8776 -0.3047
10351TIP3    H255249   6.569   1.530  10.799  1.0122  0.7496 -1.6275
10352TIP3   OH255250   2.887   2.456  10.810 -0.7865  0.3036 -0.1946
10352TIP3    H155251   2.844   2.432  10.892 -1.7711 -0.3438 -0.8755
10352TIP3    H255252   2.858   2.545  10.792  0.1768  0.7961  0.6215
10353TIP3   OH255253   6.415   5.818  11.529  0.6904 -0.1234  0.1085
10353TIP3    H155254   6.456   5.814  11.615  1.2342  1.1642 -0.0732
10353TIP3    H255255   6.481   5.858  11.473 -0.3653  0.8854 -0.4574
10354TIP3   OH255256   2.001   5.910  10.570 -0.1272  0.2407 -0.0878
10354TIP3    H155257   2.025   5.845  10.636 -0.6628  1.0281  0.9036
10354TIP3    H255258   2.078   5.966  10.563  0.8169 -1.1989 -1.8612
10355TIP3   OH255259   2.346   2.563  10.723  0.4200  0.2699 -0.1715
10355TIP3    H155260   2.303   2.634  10.771  0.7935  0.3402  0.0596
10355TIP3    H255261   2.273   2.513  10.685  0.1091  0.1510  0.5522
10356TIP3   OH255262   3.970   6.254  11.921  0.5482  0.4084  0.5594
10356TIP3    H155263   4.065   6.247  11.917  0.4215 -1.3467  0.0866
10356TIP3    H255264   3.939   6.220  11.838 -0.5014  1.5334  0.4515
10357TIP3   OH255265   5.005   2.742  10.749  0.5185  0.1182 -1.0030
10357TIP3    H155266   4.998   2.831  10.784 -0.9585 -0.0846 -0.7547
10357TIP3    H255267   5.004   2.685  10.826 -1.2214 -0.2421 -1.2562
10358TIP3   OH255268   5.162   6.091  11.028 -0.1508  0.0059 -0.3217
10358TIP3    H155269   5.198   6.015  10.981 -0.8105 -0.9106  0.6251
10358TIP3    H255270   5.106   6.053  11.095  0.5436  1.3024  1.0380
10359TIP3   OH255271   2.576   1.272   9.609 -0.1579 -0.2985  0.2578
10359TIP3    H155272   2.555   1.226   9.528 -0.1732  0.8217 -0.4015
10359TIP3    H255273   2.491   1.304   9.641 -0.0268  0.1600  0.1510
10360TIP3   OH255274   0.560   6.669  11.261 -0.5700  0.8157 -0.5273
10360TIP3    H155275   0.564   6.607  11.189 -1.3217 -1.2302  1.0963
10360TIP3    H255276   0.467   6.687  11.273 -0.6182 -0.2878  1.0223
10361TIP3   OH255277   1.018   3.444  11.590  0.2523 -0.0854 -0.0883
10361TIP3    H155278   0.929   3.440  11.555 -0.2768  2.3833  0.7742
10361TIP3    H255279   1.006   3.448  11.685  1.1110  2.1974 -0.0260
10362TIP3   OH255280   5.677   4.538  10.428  0.2559  0.3162  0.4892
10362TIP3    H155281   5.656   4.444  10.432  1.1930 -0.0719 -1.8474
10362TIP3    H255282   5.635   4.568  10.347  3.4159  0.8870 -1.0910
10363TIP3   OH255283   4.672   3.906  10.493  0.4035  0.4938 -0.6135
10363TIP3    H155284   4.578   3.917  10.510  0.7414  1.1087  0.9709
10363TIP3    H255285   4.676   3.882  10.400 -1.2661  1.1802 -0.9053
10364TIP3   OH255286   0.092   3.491   9.219  0.1448 -0.3679  0.5867
10364TIP3    H155287   0.014   3.546   9.217  0.3833 -0.0304  0.4438
10364TIP3    H255288   0.164   3.552   9.205  0.4807 -0.5981  1.2863
10365TIP3   OH255289   6.049   4.215   8.901 -0.5736 -0.7390 -0.1582
10365TIP3    H155290   6.039   4.278   8.829 -0.3135  0.5058  0.8514
10365TIP3    H255291   5.967   4.221   8.949  0.9795  2.1806  2.4686
10366TIP3   OH255292   3.728   6.512  10.032 -0.5295  0.1872 -0.5388
10366TIP3    H155293   3.780   6.459  10.094 -2.2189 -0.5538  0.3057
10366TIP3    H255294   3.713   6.453   9.958 -3.3391 -1.0473  0.8651
10367TIP3   OH255295   1.325   1.504  10.958 -0.2813  0.0781  0.2169
10367TIP3    H155296   1.261   1.505  10.888  0.2885 -0.1459 -0.3230
10367TIP3    H255297   1.294   1.435  11.018 -1.4285  1.1049  0.8447
10368TIP3   OH255298   2.194   5.484  11.124 -0.6216  0.3638 -0.4060
10368TIP3    H155299   2.174   5.532  11.204  0.4767 -0.2822  0.2818
10368TIP3    H255300   2.110   5.446  11.097 -1.4401  2.3541 -0.7816
10369TIP3   OH255301   0.590   3.824  11.189  0.4320  0.2803  0.3056
10369TIP3    H155302   0.578   3.806  11.096 -0.0106  0.9156  0.2309
10369TIP3    H255303   0.620   3.741  11.226  1.6091  0.2940 -0.5789
10370TIP3   OH255304   0.768   5.699   9.967 -0.0497 -0.2108  0.2383
10370TIP3    H155305   0.674   5.708   9.955  0.1649  1.9596 -0.2922
10370TIP3    H255306   0.788   5.755  10.042  0.9380  0.2169 -0.3199
10371TIP3   OH255307   3.465   3.631   9.677 -0.1766 -0.1412 -0.1062
10371TIP3    H155308   3.468   3.637   9.581  0.4579 -0.3582 -0.1077
10371TIP3    H255309   3.441   3.540   9.695 -0.2205 -0.1207 -0.0624
10372TIP3   OH255310   3.363   0.295  11.786  0.3408 -0.1269 -0.6788
10372TIP3    H155311   3.351   0.354  11.860 -1.6949 -2.0183  0.6053
10372TIP3    H255312   3.357   0.207  11.823  1.5021 -1.1795 -2.7805
10373TIP3   OH255313   6.619   2.277  10.005 -0.3590 -0.2229  0.6751
10373TIP3    H155314   6.635   2.360  10.051  1.2265  0.9520 -1.7583
10373TIP3    H255315   6.526   2.260  10.018 -0.5343  1.4511  1.9908
10374TIP3   OH255316   0.280   5.848  10.165 -0.1616 -0.0824  0.7718
10374TIP3    H155317   0.195   5.893  10.161 -0.5438 -0.7695  0.9188
10374TIP3    H255318   0.326   5.891  10.237 -1.0028 -0.7090  1.7244
10375TIP3   OH255319   2.314   0.971  12.498  0.2072 -0.2429 -0.2129
10375TIP3    H155320   2.393   0.976  12.445 -1.6649 -1.1568 -3.3694
10375TIP3    H255321   2.266   1.051  12.477 -0.1809 -0.1691  0.8861
10376TIP3   OH255322   3.327   6.595   9.940 -1.0502  0.3228 -0.0292
10376TIP3    H155323   3.378   6.675   9.934  0.1750 -0.5176 -1.4602
10376TIP3    H255324   3.285   6.599  10.026  0.7778  1.4131  0.8514
10377TIP3   OH255325   2.761   5.834  10.638  0.6584  0.4066 -0.4597
10377TIP3    H155326   2.711   5.852  10.718 -0.5349  0.5351 -1.1948
10377TIP3    H255327   2.695   5.806  10.575  1.6994 -0.5550 -1.1498
10378TIP3   OH255328   3.759   2.860  11.191  0.3238  0.2193 -0.8236
10378TIP3    H155329   3.673   2.856  11.233 -0.1068 -2.7518 -1.7325
10378TIP3    H255330   3.749   2.923  11.120 -1.2400 -0.3310 -1.1321
10379TIP3   OH255331   5.756   2.908   8.960  0.5142 -0.1139 -0.2867
10379TIP3    H155332   5.840   2.925   9.002  0.2730 -1.1272  0.6440
10379TIP3    H255333   5.730   2.994   8.925  0.9715  0.6803  1.1996
10380TIP3   OH255334   3.971   1.760   9.891 -0.2531 -0.0858 -0.3748
10380TIP3    H155335   3.881   1.786   9.870 -0.4655 -1.0219 -0.6668
10380TIP3    H255336   4.019   1.769   9.808 -0.3304 -0.6327 -0.4794
10381TIP3   OH255337   1.696   0.381  12.026 -0.0129 -0.0945 -0.0837
10381TIP3    H155338   1.782   0.343  12.009  0.0512 -0.6425  1.3283
10381TIP3    H255339   1.707   0.432  12.106 -1.4802 -2.0579  1.4966
10382TIP3   OH255340   2.306   2.046  10.803 -0.4401 -0.4948  0.4479
10382TIP3    H155341   2.324   2.098  10.881  1.5655 -1.0649  0.4259
10382TIP3    H255342   2.339   2.099  10.730  1.3158 -1.5694  0.3983
10383TIP3   OH255343   4.098   1.473   9.878 -0.0360 -0.3083  0.0955
10383TIP3    H155344   4.101   1.475   9.782 -3.9009  0.3975 -0.1731
10383TIP3    H255345   4.062   1.559   9.902 -0.9507 -1.1794  2.0238
10384TIP3   OH255346   4.154   2.920   9.806 -0.2036  0.0443 -0.6222
10384TIP3    H155347   4.067   2.946   9.838  0.0692 -0.7356  0.8202
10384TIP3    H255348   4.215   2.969   9.861  0.2796 -1.2676  0.0490
10385TIP3   OH255349   1.582   1.336   9.422  0.4874 -0.6009 -0.2768
10385TIP3    H155350   1.631   1.266   9.466  0.5511  0.1847  0.9519
10385TIP3    H255351   1.492   1.326   9.453 -0.8925 -3.5767 -4.3794
10386TIP3   OH255352   0.490   2.421  12.318 -0.0537 -0.1506  0.1995
10386TIP3    H155353   0.452   2.506  12.294  1.4576  0.3915 -0.4173
10386TIP3    H255354   0.429   2.357  12.283  0.5646  0.6560 -2.6490
10387TIP3   OH255355   3.399   3.346   9.658 -0.4192  0.2133  0.4441
10387TIP3    H155356   3.314   3.367   9.620 -0.2576  1.8094  0.9095
10387TIP3    H255357   3.455   3.326   9.583 -0.6955  1.0514  0.0078
10388TIP3   OH255358   3.778   4.159  11.647 -0.0913 -0.1609  0.0747
10388TIP3    H155359   3.761   4.240  11.599 -1.0170 -0.4878 -0.1764
10388TIP3    H255360   3.758   4.089  11.584  0.0674 -0.5890  0.4917
10389TIP3   OH255361   4.768   3.358  11.698 -0.3166  0.6712 -0.1978
10389TIP3    H155362   4.841   3.419  11.712  0.6410 -0.1393 -1.4749
10389TIP3    H255363   4.691   3.408  11.724  0.2659  2.9482 -2.3753
10390TIP3   OH255364   0.192   1.642  12.096 -0.0737 -0.7044  0.2496
10390TIP3    H155365   0.212   1.599  12.179 -0.2056 -0.4328  0.4229
10390TIP3    H255366   0.178   1.733  12.118  0.2662 -0.5549 -0.1292
10391TIP3   OH255367   6.393   5.027  10.673 -0.0073 -0.0226  0.3313
10391TIP3    H155368   6.306   5.039  10.711 -0.4035  0.3303 -0.6627
10391TIP3    H255369   6.399   4.934  10.654 -0.0875 -0.0815  0.5918
10392TIP3   OH255370   6.690   6.616  10.344 -0.0657 -0.1002 -0.0076
10392TIP3    H155371   6.603   6.578  10.336  0.1323 -0.9478  1.5901
10392TIP3    H255372   6.748   6.541  10.352  0.6487  0.4893  0.4265
10393TIP3   OH255373   2.008   4.556   9.056 -0.2234 -0.7518 -0.2146
10393TIP3    H155374   2.047   4.638   9.026  0.3347  1.3624  5.0330
10393TIP3    H255375   1.915   4.564   9.033  0.0934  0.6732 -1.1203
10394TIP3   OH255376   4.666   6.235  11.151 -0.0678  0.0537  0.1820
10394TIP3    H155377   4.604   6.222  11.223 -0.3981 -2.0659 -0.4007
10394TIP3    H255378   4.751   6.240  11.194 -0.1014 -2.5938  0.7377
10395TIP3   OH255379   3.757   2.020  12.650 -0.2154 -0.9051  0.1833
10395TIP3    H155380   3.740   1.928  12.633  1.5761 -1.4748  1.2172
10395TIP3    H255381   3.684   2.066  12.608 -1.4718 -2.8025  0.1539
10396TIP3   OH255382   1.731   6.147  12.463  0.1161 -0.7208  0.0478
10396TIP3    H155383   1.808   6.202  12.472 -0.1948 -0.3787  0.6574
10396TIP3    H255384   1.761   6.059  12.485  0.3129 -0.5710  0.3844
10397TIP3   OH255385   4.545   6.099  11.681 -0.8075  0.4701 -0.9783
10397TIP3    H155386   4.470   6.154  11.660 -0.4228  0.6631 -1.8779
10397TIP3    H255387   4.587   6.143  11.755 -1.4091  0.5128 -0.6525
10398TIP3   OH255388   3.238   2.706   9.170 -1.0632 -0.0226  0.2763
10398TIP3    H155389   3.186   2.732   9.246 -1.9056 -2.8363  0.7667
10398TIP3    H255390   3.295   2.636   9.202  0.0385  0.1105 -1.2381
10399TIP3   OH255391   3.883   0.452   8.944 -0.1333 -0.4740 -0.2647
10399TIP3    H155392   3.933   0.434   8.864 -0.6663 -0.0233 -0.7105
10399TIP3    H255393   3.837   0.534   8.925 -1.5915 -1.2392 -0.1393
10400TIP3   OH255394   4.848   2.804  11.243 -0.0076  0.2932 -0.4598
10400TIP3    H155395   4.847   2.881  11.186  1.7064  2.1656  1.8240
10400TIP3    H255396   4.928   2.813  11.294 -0.4059 -2.3676  0.7951
10401TIP3   OH255397   1.632   1.136  10.109  0.2842  0.1549  0.0961
10401TIP3    H155398   1.629   1.217  10.160 -2.4358  1.5900 -2.0367
10401TIP3    H255399   1.647   1.166  10.019  0.5169 -1.8502 -0.5776
10402TIP3   OH255400   4.693   2.570   9.877 -0.1504 -0.1062 -0.0999
10402TIP3    H155401   4.729   2.511   9.944  1.3455 -0.7893 -1.4393
10402TIP3    H255402   4.765   2.583   9.815 -0.0886  3.9391  0.5934
10403TIP3   OH255403   6.015   4.756   9.428 -0.0913  0.7262  0.6315
10403TIP3    H155404   6.068   4.726   9.353  1.5067  0.7407  1.6988
10403TIP3    H255405   6.062   4.723   9.505  0.1166  3.4010  1.7600
10404TIP3   OH255406   6.433   2.772  11.943 -0.6471 -0.2167 -0.3619
10404TIP3    H155407   6.352   2.804  11.982 -0.0140 -0.7709  1.5261
10404TIP3    H255408   6.502   2.819  11.990  0.1942 -1.9957  0.2687
10405TIP3   OH255409   1.197   2.105   8.894  0.3526  0.2896 -0.4719
10405TIP3    H155410   1.288   2.102   8.865  0.7638  0.9977  0.6850
10405TIP3    H255411   1.147   2.119   8.813  1.1561 -1.1766 -1.2704
10406TIP3   OH255412   4.515   2.291  10.648  0.0385 -0.8718  0.3518
10406TIP3    H155413   4.547   2.309  10.737 -1.3025  0.3905  0.6164
10406TIP3    H255414   4.580   2.332  10.591 -0.0042 -0.1248  0.8190
10407TIP3   OH255415   5.379   5.964   9.612  0.7651  0.6606 -0.0235
10407TIP3    H155416   5.363   6.058   9.621  0.0451  0.5190  0.2178
10407TIP3    H255417   5.396   5.952   9.518  0.9238  1.0346 -0.0480
10408TIP3   OH255418   6.296   3.312  12.053  0.1253  0.3176  0.1132
10408TIP3    H155419   6.317   3.340  12.142  0.0882  0.3061  0.1262
10408TIP3    H255420   6.226   3.373  12.026 -0.9093 -0.5988  0.6327
10409TIP3   OH255421   2.862   1.117  11.641  0.2594 -0.4894 -1.0459
10409TIP3    H155422   2.956   1.136  11.650  0.1346 -0.4582  0.5151
10409TIP3    H255423   2.821   1.203  11.638  0.0556 -0.3889  1.6597
10410TIP3   OH255424   0.536   3.468   8.781  0.1686 -0.2193  0.1335
10410TIP3    H155425   0.616   3.520   8.771  0.3250 -0.5728 -0.5164
10410TIP3    H255426   0.487   3.483   8.700 -0.9204  0.8053  0.9533
10411TIP3   OH255427   5.633   4.571  11.311 -0.2605 -0.8772 -0.2148
10411TIP3    H155428   5.665   4.508  11.376  0.2584 -1.3571 -0.9154
10411TIP3    H255429   5.647   4.527  11.227 -0.9984 -0.3006 -0.6478
10412TIP3   OH255430   0.742   1.603  12.553 -0.4572 -0.6274  0.0759
10412TIP3    H155431   0.653   1.569  12.550 -1.1218  1.0514  0.1409
10412TIP3    H255432   0.733   1.696  12.571  1.1427  0.2382 -2.8866
10413TIP3   OH255433   3.243   5.254  10.451  0.4018  0.4494  0.4555
10413TIP3    H155434   3.191   5.326  10.489 -2.0482 -1.1583  0.3556
10413TIP3    H255435   3.178   5.194  10.416  2.4033 -1.5120 -0.0752
10414TIP3   OH255436   0.391   5.097   9.229 -0.0233 -0.5642 -0.7453
10414TIP3    H155437   0.310   5.119   9.275 -0.1227 -0.8457 -0.7843
10414TIP3    H255438   0.400   5.003   9.239  0.2188 -0.5562 -0.8745
10415TIP3   OH255439   5.723   3.819  10.814  0.1182 -0.0867  0.3562
10415TIP3    H155440   5.662   3.767  10.865 -0.1617  0.2737  0.3966
10415TIP3    H255441   5.795   3.840  10.874 -0.2914  0.4789  0.6571
10416TIP3   OH255442   3.819   0.347  10.492 -0.3469 -0.2677  0.1128
10416TIP3    H155443   3.803   0.380  10.580 -0.1746 -0.7479  0.3325
10416TIP3    H255444   3.890   0.401  10.458 -0.3588 -0.1336  0.3035
10417TIP3   OH255445   2.008   0.648   9.889  0.0440  0.0241 -0.4006
10417TIP3    H155446   2.074   0.712   9.917  0.0571  0.1497 -0.7180
10417TIP3    H255447   1.935   0.661   9.950  0.9158 -1.1958  0.9889
10418TIP3   OH255448   0.557   2.713  10.011  0.3617  0.7100  0.5246
10418TIP3    H155449   0.543   2.647  10.079 -0.1051  0.7099  0.4343
10418TIP3    H255450   0.604   2.667   9.942 -0.4443  0.3184  0.2253
10419TIP3   OH255451   2.260   0.690  12.614 -0.0013 -0.0288 -0.3161
10419TIP3    H155452   2.167   0.682  12.593  0.1002  0.5782 -1.0305
10419TIP3    H255453   2.286   0.773  12.575  0.5968  0.3171  0.7989
10420TIP3   OH255454   5.708   5.565   9.743 -0.2315 -0.2621  0.1867
10420TIP3    H155455   5.749   5.528   9.665  1.3662 -0.1907  0.9534
10420TIP3    H255456   5.736   5.656   9.745 -0.6291 -0.1431  0.6093
10421TIP3   OH255457   0.854   2.652  11.327  0.5853  0.1846  0.4088
10421TIP3    H155458   0.903   2.728  11.358  2.7981 -0.6504 -0.7588
10421TIP3    H255459   0.909   2.577  11.351 -0.6039 -0.9036 -0.1533
10422TIP3   OH255460   5.490   4.510   9.691  0.8585 -0.4078 -0.4562
10422TIP3    H155461   5.435   4.448   9.643  0.1844 -1.9280  2.1138
10422TIP3    H255462   5.579   4.492   9.659  0.3462 -0.7079 -1.7808
10423TIP3   OH255463   1.949   4.400  10.477  0.1379  0.0304  0.1067
10423TIP3    H155464   1.921   4.419  10.566 -0.7791  1.8143 -0.5110
10423TIP3    H255465   2.000   4.476  10.451  2.5071 -1.5208 -0.1110
10424TIP3   OH255466   1.858   3.705   9.696 -0.0625 -0.2038  0.3066
10424TIP3    H155467   1.835   3.668   9.611  0.3899  2.5375 -1.1314
10424TIP3    H255468   1.838   3.636   9.759 -3.2457 -1.3417 -1.7049
10425TIP3   OH255469   6.042   1.018  10.482 -0.3139  0.0486  0.2795
10425TIP3    H155470   6.017   1.006  10.574  0.1342  1.8431  0.6782
10425TIP3    H255471   6.116   0.959  10.470 -1.4880 -1.5407  0.5251
10426TIP3   OH255472   6.652   2.050  10.362  0.2156 -0.5511  0.5367
10426TIP3    H155473   6.674   1.985  10.296  0.0830  0.4336 -0.5186
10426TIP3    H255474   6.681   2.133  10.325 -1.0246  0.1925  1.1465
10427TIP3   OH255475   2.382   1.939  11.115  0.2148 -0.2491 -0.3733
10427TIP3    H155476   2.369   1.855  11.159  0.3268 -1.0476 -1.8132
10427TIP3    H255477   2.448   1.984  11.168 -0.5764 -0.6256  0.9768
10428TIP3   OH255478   4.257   1.689  11.064 -0.3078 -0.0494 -0.1199
10428TIP3    H155479   4.316   1.764  11.069 -0.8233  0.4158 -0.8806
10428TIP3    H255480   4.238   1.679  10.971 -0.4118 -1.0015 -0.0056
10429TIP3   OH255481   4.281   6.295  10.498  0.6880  0.0371  0.0507
10429TIP3    H155482   4.199   6.345  10.499 -0.1533 -1.2707  0.5981
10429TIP3    H255483   4.332   6.333  10.427 -0.8964  0.1342 -1.1028
10430TIP3   OH255484   5.942   6.174  10.843  0.3398 -0.2616  0.2220
10430TIP3    H155485   5.931   6.266  10.868  2.2941  0.1196 -0.1962
10430TIP3    H255486   5.887   6.127  10.906 -1.3243  1.2035 -0.0343
10431TIP3   OH255487   1.666   0.949   9.816  0.3410 -0.1002 -0.4471
10431TIP3    H155488   1.618   0.898   9.881 -0.2809  0.5329 -0.3967
10431TIP3    H255489   1.728   0.887   9.778  0.6216 -0.5135  0.6472
10432TIP3   OH255490   2.003   1.880  11.321 -0.0940  0.2633 -1.1566
10432TIP3    H155491   2.082   1.924  11.353 -0.0165 -0.5761 -0.1491
10432TIP3    H255492   1.936   1.948  11.323 -0.0828  0.2665  0.7889
10433TIP3   OH255493   1.456   2.730  10.976 -0.0613  0.5342 -1.0425
10433TIP3    H155494   1.401   2.687  10.910  1.1190 -0.6998 -1.2626
10433TIP3    H255495   1.543   2.693  10.963 -0.0525 -0.8987  2.1702
10434TIP3   OH255496   2.219   5.555  12.111  0.4044 -0.1830 -0.1708
10434TIP3    H155497   2.243   5.554  12.019 -1.0174  0.8635 -0.5853
10434TIP3    H255498   2.292   5.600  12.154  0.3720  0.7363 -1.0333
10435TIP3   OH255499   5.135   1.667  10.717 -0.0724  0.4997  0.4623
10435TIP3    H155500   5.220   1.645  10.678  0.0929  1.2855  0.3639
10435TIP3    H255501   5.139   1.762  10.730 -0.3685  0.3407  1.8326
10436TIP3   OH255502   5.205   1.603   9.738 -0.2656 -0.3398  0.4037
10436TIP3    H155503   5.264   1.571   9.806  0.0727  0.1568  0.3503
10436TIP3    H255504   5.174   1.524   9.693  1.0926 -0.5536 -0.1899
10437TIP3   OH255505   2.562   3.496   9.785 -0.1727 -0.0341  0.2428
10437TIP3    H155506   2.655   3.471   9.790 -0.1260 -0.2625 -1.2196
10437TIP3    H255507   2.528   3.447   9.710 -2.0291 -1.5218  1.9486
10438TIP3   OH255508   1.368   5.779  10.787  0.1327  0.2675  0.1257
10438TIP3    H155509   1.345   5.872  10.788 -0.7524  0.0533  0.7547
10438TIP3    H255510   1.463   5.778  10.778  0.5852  1.3121  3.3989
10439TIP3   OH255511   5.480   1.703  12.082  0.2578  0.6095 -0.2640
10439TIP3    H155512   5.413   1.649  12.123  3.5170 -3.8109 -0.0404
10439TIP3    H255513   5.510   1.761  12.152 -0.5237 -0.2734  0.8397
   6.71776   6.71776  30.00000
