Title
55513
    1DOPE     N    1   4.384   4.084  14.412 -0.1353 -0.1269  0.0647
    1DOPE   HN1    2   4.474   4.032  14.419 -0.6909 -1.3397 -1.2895
    1DOPE   HN2    3   4.407   4.176  14.455 -2.9379  1.0533 -0.7912
    1DOPE   HN3    4   4.304   4.049  14.469  0.1795 -1.1201 -0.0794
    1DOPE   C12    5   4.365   4.115  14.265 -0.3458  0.3166 -0.2364
    1DOPE  H12A    6   4.269   4.170  14.255 -0.5598 -0.0978 -0.5069
    1DOPE  H12B    7   4.337   4.020  14.215  1.0320 -0.4075  0.3193
    1DOPE   C11    8   4.490   4.172  14.196 -0.4118  0.4887 -0.4366
    1DOPE  H11A    9   4.474   4.186  14.087 -0.3181 -2.7606 -0.9559
    1DOPE  H11B   10   4.575   4.101  14.200  1.1222  2.3008  1.2983
    1DOPE     P   11   4.465   4.443  14.228  0.1653 -0.5117 -0.4650
    1DOPE   O13   12   4.574   4.548  14.231  0.2840  0.3606 -0.6604
    1DOPE   O14   13   4.352   4.453  14.321 -0.1049 -0.0229 -0.4360
    1DOPE   O11   14   4.413   4.433  14.081 -0.5608 -0.2163  0.1233
    1DOPE   O12   15   4.533   4.293  14.263 -0.5881 -0.0807 -0.1424
    1DOPE    C1   16   4.287   4.489  14.049  0.2417 -0.5759  0.2048
    1DOPE    HA   17   4.288   4.600  14.061 -0.3378 -0.1935 -2.6204
    1DOPE    HB   18   4.206   4.456  14.118 -1.4763  2.2494 -0.2863
    1DOPE    C2   19   4.240   4.462  13.904  0.3822  0.1071 -0.5517
    1DOPE    HS   20   4.136   4.424  13.911  0.9533 -1.2776  1.1439
    1DOPE   O21   21   4.326   4.369  13.840  0.4032 -0.1810  0.3595
    1DOPE   C21   22   4.316   4.245  13.883  0.2915 -0.1650 -0.3242
    1DOPE   O22   23   4.237   4.202  13.966 -0.4051  0.4113  0.0769
    1DOPE   C22   24   4.416   4.152  13.812  0.0275 -0.6946  0.3810
    1DOPE   H2R   25   4.489   4.113  13.886  0.4867 -0.4808  0.0479
    1DOPE   H2S   26   4.467   4.220  13.740 -0.0507 -1.0502 -0.0139
    1DOPE    C3   27   4.236   4.594  13.823  0.3860  0.1901 -0.2577
    1DOPE    HX   28   4.340   4.628  13.808 -0.1851  2.6369  0.7578
    1DOPE    HY   29   4.174   4.660  13.888  2.1548 -0.5814  2.3543
    1DOPE   O31   30   4.179   4.574  13.688  0.1349  0.1491  0.3678
    1DOPE   C31   31   4.175   4.675  13.609  0.0580 -0.1573 -0.1397
    1DOPE   O32   32   4.191   4.792  13.645  0.5468  0.1758  0.3432
    1DOPE   C32   33   4.137   4.627  13.464  0.1611  0.2617  0.0462
    1DOPE   H2X   34   4.225   4.575  13.422 -0.3613 -0.5311 -0.0896
    1DOPE   H2Y   35   4.038   4.576  13.472 -0.6415  1.6085 -0.8473
    1DOPE   C23   36   4.355   4.034  13.738 -0.1397  0.3517 -0.7103
    1DOPE   H3R   37   4.275   4.078  13.674  0.2357  0.1958 -1.2963
    1DOPE   H3S   38   4.306   3.960  13.805  0.3466  0.5807 -0.0930
    1DOPE   C24   39   4.450   3.964  13.640 -1.3927  0.3646 -1.0693
    1DOPE   H4R   40   4.537   3.929  13.699 -1.3373 -0.4760 -1.6372
    1DOPE   H4S   41   4.484   4.038  13.565 -1.2215  0.3825 -0.9736
    1DOPE   C25   42   4.386   3.843  13.574 -0.2906 -0.8660  0.4403
    1DOPE   H5R   43   4.291   3.865  13.521  0.7520  2.8322 -0.2054
    1DOPE   H5S   44   4.354   3.771  13.652  0.5935 -0.4219  1.2377
    1DOPE   C26   45   4.491   3.772  13.489 -0.0455 -0.0220 -0.2081
    1DOPE   H6R   46   4.565   3.732  13.561  1.3533  0.3257 -1.4209
    1DOPE   H6S   47   4.531   3.839  13.410  1.6422  0.6606  1.1660
    1DOPE   C27   48   4.426   3.650  13.417 -0.0971 -0.5699 -0.1446
    1DOPE   H7R   49   4.370   3.681  13.327  2.5483 -1.1849 -2.1180
    1DOPE   H7S   50   4.358   3.611  13.496 -0.8599  1.4868  0.2667
    1DOPE   C28   51   4.532   3.551  13.368 -0.5705  0.1716 -0.0955
    1DOPE   H8R   52   4.498   3.450  13.337  0.4620 -0.3322  0.3653
    1DOPE   H8S   53   4.587   3.526  13.461  0.3264 -0.0958 -0.6962
    1DOPE   C29   54   4.615   3.630  13.272  0.1311 -0.5616  0.6704
    1DOPE   H9R   55   4.675   3.714  13.311  1.3895 -0.9333 -0.3909
    1DOPE  C210   56   4.624   3.592  13.143  0.6058  0.4258  0.0112
    1DOPE  H10R   57   4.702   3.644  13.086  0.3537  0.1402 -0.6019
    1DOPE  C211   58   4.540   3.488  13.076  0.2664 -0.1790  0.4838
    1DOPE  H11R   59   4.532   3.399  13.141  0.7390  1.3801  2.8241
    1DOPE  H11S   60   4.607   3.463  12.992  0.8221 -0.0967  0.8989
    1DOPE  C212   61   4.402   3.543  13.040  0.3949 -0.3640 -0.2777
    1DOPE  H12R   62   4.409   3.645  12.996 -2.0661  0.9021  1.9769
    1DOPE  H12S   63   4.340   3.549  13.132  0.3302  4.5530 -0.3950
    1DOPE  C213   64   4.348   3.450  12.928  0.1720 -0.1024 -0.2474
    1DOPE  H13R   65   4.332   3.350  12.973 -2.0436 -0.4788 -1.6996
    1DOPE  H13S   66   4.404   3.432  12.834  1.4335 -1.6388  0.7675
    1DOPE  C214   67   4.208   3.492  12.878  0.0571 -0.4323  0.4853
    1DOPE  H14R   68   4.220   3.579  12.810 -1.1596 -1.4267 -1.0852
    1DOPE  H14S   69   4.141   3.531  12.958  0.9888  0.5686  0.8008
    1DOPE  C215   70   4.129   3.381  12.802 -0.1449 -0.4883 -0.6195
    1DOPE  H15R   71   4.124   3.300  12.878  0.3474  0.0963  0.0460
    1DOPE  H15S   72   4.176   3.340  12.710 -0.3585 -0.4766 -0.7361
    1DOPE  C216   73   3.976   3.418  12.767  0.1059  0.2660 -0.3181
    1DOPE  H16R   74   3.954   3.511  12.711 -1.2691 -0.5281 -1.1391
    1DOPE  H16S   75   3.925   3.419  12.866  0.3950 -0.3721 -0.1595
    1DOPE  C217   76   3.913   3.306  12.686  0.2698  0.1671  0.1410
    1DOPE  H17R   77   3.926   3.210  12.740  0.5095  0.8337  1.3226
    1DOPE  H17S   78   3.966   3.297  12.589 -1.3330 -1.4493 -0.6478
    1DOPE  C218   79   3.768   3.341  12.688 -0.2478  0.2542 -0.0436
    1DOPE  H18R   80   3.723   3.351  12.789  0.5337 -0.3324  0.3781
    1DOPE  H18S   81   3.705   3.262  12.642 -2.1432  1.8447 -0.3063
    1DOPE  H18T   82   3.750   3.440  12.639 -1.2890 -0.6396 -1.5563
    1DOPE   C33   83   4.121   4.748  13.359  0.5150 -0.4715 -0.7532
    1DOPE   H3X   84   4.151   4.718  13.256 -1.9653 -0.9488 -1.4207
    1DOPE   H3Y   85   4.185   4.831  13.397 -1.1324  0.0420  1.0868
    1DOPE   C34   86   3.977   4.790  13.361  0.0182  0.2292  0.3876
    1DOPE   H4X   87   3.918   4.698  13.342  4.5189 -2.5067 -2.0028
    1DOPE   H4Y   88   3.952   4.816  13.466 -0.5560 -1.8196  0.7996
    1DOPE   C35   89   3.945   4.896  13.262 -0.3080  0.2838  0.9109
    1DOPE   H5X   90   4.014   4.892  13.175 -2.7296  0.3328 -1.1051
    1DOPE   H5Y   91   3.958   4.996  13.308 -0.2880  0.2293  1.0248
    1DOPE   C36   92   3.803   4.887  13.215  0.6362 -0.2055  0.5353
    1DOPE   H6X   93   3.784   4.790  13.164  0.5802  0.6940 -1.2617
    1DOPE   H6Y   94   3.782   4.953  13.127  1.2218 -1.5044 -0.6111
    1DOPE   C37   95   3.710   4.949  13.321 -0.4617 -1.0354  0.7573
    1DOPE   H7X   96   3.738   4.889  13.410 -1.3683 -1.4631  0.7682
    1DOPE   H7Y   97   3.733   5.056  13.336  0.6654 -1.2317  0.4829
    1DOPE   C38   98   3.564   4.924  13.286  0.4952 -0.8461 -0.6826
    1DOPE   H8X   99   3.548   4.819  13.252 -0.7122 -0.4532 -1.3913
    1DOPE   H8Y  100   3.542   4.991  13.200 -0.3797 -0.5200 -0.2167
    1DOPE   C39  101   3.464   4.958  13.399 -0.0966  0.6385  0.5266
    1DOPE   H9X  102   3.438   4.867  13.455  1.0121 -0.2894 -0.3967
    1DOPE  C310  103   3.413   5.080  13.426  0.1328 -0.3170  0.3368
    1DOPE  H10X  104   3.338   5.096  13.505 -0.3467  2.3726 -0.5335
    1DOPE  C311  105   3.450   5.213  13.368 -1.0160 -0.8163  0.7670
    1DOPE  H11X  106   3.442   5.288  13.449 -1.5776  0.5980 -0.5471
    1DOPE  H11Y  107   3.552   5.201  13.326 -0.9512 -0.4216  0.8062
    1DOPE  C312  108   3.364   5.261  13.249 -0.3355 -0.8661  0.0393
    1DOPE  H12X  109   3.258   5.267  13.281 -0.5183 -3.4382  0.1448
    1DOPE  H12Y  110   3.356   5.192  13.162 -0.8186  1.4597 -1.8911
    1DOPE  C313  111   3.417   5.396  13.195 -0.2467  0.1427 -1.6144
    1DOPE  H13X  112   3.395   5.460  13.283 -0.0567  1.5770 -2.5687
    1DOPE  H13Y  113   3.528   5.390  13.187  0.0808  1.4129  0.9943
    1DOPE  C314  114   3.350   5.450  13.069 -0.3910  0.5238 -0.1038
    1DOPE  H14X  115   3.246   5.412  13.072 -0.5486  0.9483 -0.0807
    1DOPE  H14Y  116   3.404   5.404  12.984  0.0632 -1.8315  1.3731
    1DOPE  C315  117   3.345   5.604  13.059 -0.1159  0.5154  0.0316
    1DOPE  H15X  118   3.448   5.640  13.079  1.5360 -3.4575 -0.3716
    1DOPE  H15Y  119   3.283   5.639  13.144 -1.9690  0.4709 -1.2469
    1DOPE  C316  120   3.285   5.659  12.928 -0.0155  0.6224 -0.1882
    1DOPE  H16X  121   3.182   5.619  12.922 -0.0677  0.8114 -0.5734
    1DOPE  H16Y  122   3.351   5.616  12.849 -0.4088 -0.4706  0.0619
    1DOPE  C317  123   3.281   5.812  12.917 -0.5410 -0.0677  0.1618
    1DOPE  H17X  124   3.219   5.868  12.990  0.8863 -0.8017  2.0348
    1DOPE  H17Y  125   3.388   5.841  12.931 -0.2843  0.0341 -1.7803
    1DOPE  C318  126   3.227   5.857  12.782 -0.5726 -0.0594  0.1789
    1DOPE  H18X  127   3.125   5.813  12.772  0.2729 -2.2637  0.6115
    1DOPE  H18Y  128   3.227   5.967  12.768  0.3764 -0.0843 -0.1315
    1DOPE  H18Z  129   3.277   5.801  12.700 -1.1282 -1.7512  0.9398
    2DOPE     N  130   4.621   4.802  14.161 -0.3662 -0.5706 -0.0576
    2DOPE   HN1  131   4.585   4.715  14.206  0.8935 -0.4476  1.2894
    2DOPE   HN2  132   4.685   4.839  14.235 -1.0063  0.4857 -0.0092
    2DOPE   HN3  133   4.547   4.875  14.159 -0.9915 -1.1286  1.3547
    2DOPE   C12  134   4.680   4.770  14.031  0.8873 -0.5678  0.8627
    2DOPE  H12A  135   4.600   4.729  13.965  2.2397 -0.4002 -0.9422
    2DOPE  H12B  136   4.752   4.687  14.042  0.3460 -1.4171 -1.3905
    2DOPE   C11  137   4.755   4.880  13.964  1.1072 -0.1760  1.1334
    2DOPE  H11A  138   4.795   4.833  13.872  1.3459  2.5842 -0.2618
    2DOPE  H11B  139   4.831   4.923  14.034 -0.2846  1.0886  1.9294
    2DOPE     P  140   4.684   5.130  13.935  0.3829  0.0416  0.4421
    2DOPE   O13  141   4.781   5.170  14.038 -0.0850  0.1116  1.1277
    2DOPE   O14  142   4.551   5.203  13.936  0.2331  0.0909  0.0484
    2DOPE   O11  143   4.739   5.171  13.797  0.3826  0.6205  0.1439
    2DOPE   O12  144   4.661   4.974  13.923  0.0746 -0.4680  0.5882
    2DOPE    C1  145   4.678   5.124  13.680  0.3599 -0.2556 -0.7783
    2DOPE    HA  146   4.601   5.045  13.693 -0.9543  1.1373  0.3732
    2DOPE    HB  147   4.759   5.078  13.620  1.7384 -0.1356  0.9373
    2DOPE    C2  148   4.621   5.244  13.600 -0.0938 -1.0404  0.8479
    2DOPE    HS  149   4.525   5.283  13.641  0.1292 -2.3790  2.7374
    2DOPE   O21  150   4.597   5.206  13.468  0.2042  0.5324 -0.1561
    2DOPE   C21  151   4.484   5.139  13.451 -0.2513 -0.3759 -0.0265
    2DOPE   O22  152   4.405   5.104  13.534 -0.6784  0.5781  0.2392
    2DOPE   C22  153   4.472   5.112  13.294 -0.3158 -0.5972  0.4838
    2DOPE   H2R  154   4.572   5.079  13.258 -1.1807 -1.8327 -0.9020
    2DOPE   H2S  155   4.449   5.211  13.250  0.5436 -1.1040 -1.1716
    2DOPE    C3  156   4.715   5.369  13.612  0.9549 -0.3070 -0.0573
    2DOPE    HX  157   4.795   5.339  13.540 -0.2284 -0.1495 -1.5030
    2DOPE    HY  158   4.759   5.379  13.713 -1.6158 -0.0831  1.1120
    2DOPE   O31  159   4.645   5.490  13.554  0.3426 -0.1756 -0.7745
    2DOPE   C31  160   4.729   5.588  13.546 -0.0605  0.0353  0.3948
    2DOPE   O32  161   4.844   5.583  13.588 -0.4229 -0.2233  0.2619
    2DOPE   C32  162   4.669   5.710  13.486  0.2198  0.7427 -0.4994
    2DOPE   H2X  163   4.610   5.751  13.571  0.1743 -0.7416  0.2315
    2DOPE   H2Y  164   4.752   5.784  13.484  0.6279  0.3217 -3.5046
    2DOPE   C23  165   4.366   5.009  13.268  0.2415  0.1099  0.7688
    2DOPE   H3R  166   4.263   5.028  13.303 -0.4395  0.5688 -1.3121
    2DOPE   H3S  167   4.399   4.918  13.323  1.2371 -0.4726 -0.7003
    2DOPE   C24  168   4.358   4.968  13.116 -0.2002  0.0581  0.2055
    2DOPE   H4R  169   4.322   4.863  13.114 -1.3572  0.4511  0.0460
    2DOPE   H4S  170   4.465   4.968  13.084  0.1090  2.6310  1.0341
    2DOPE   C25  171   4.271   5.060  13.032 -0.4685  1.4549  0.2868
    2DOPE   H5R  172   4.325   5.151  12.997  0.4937  0.8222  0.0616
    2DOPE   H5S  173   4.191   5.097  13.099 -1.2710  0.7291 -0.2596
    2DOPE   C26  174   4.206   4.990  12.912 -0.2781 -0.5537 -0.1352
    2DOPE   H6R  175   4.156   4.893  12.930 -0.3181 -0.9520 -2.1861
    2DOPE   H6S  176   4.291   4.979  12.842  0.7335  2.1718  0.5370
    2DOPE   C27  177   4.111   5.083  12.830 -0.2265  0.2816 -0.3783
    2DOPE   H7R  178   4.104   5.055  12.723  2.6728  0.4335 -0.7013
    2DOPE   H7S  179   4.157   5.184  12.835  1.7776 -0.6465  2.9497
    2DOPE   C28  180   3.971   5.063  12.886 -1.0071  0.6044 -0.1426
    2DOPE   H8R  181   3.971   5.094  12.992 -3.2674 -3.4522  1.2490
    2DOPE   H8S  182   3.960   4.952  12.888  0.9413  0.3187 -1.9091
    2DOPE   C29  183   3.854   5.125  12.818  0.0660  0.5085  0.1903
    2DOPE   H9R  184   3.837   5.075  12.721  1.7526 -1.4627  0.8367
    2DOPE  C210  185   3.764   5.206  12.874 -0.2468 -0.2676  0.2374
    2DOPE  H10R  186   3.675   5.239  12.817 -0.4021 -1.2644 -0.1129
    2DOPE  C211  187   3.754   5.267  13.015 -0.5606  0.1328  0.0075
    2DOPE  H11R  188   3.809   5.202  13.086 -0.9054 -2.1874 -1.7200
    2DOPE  H11S  189   3.648   5.271  13.046 -1.8354 -1.0661 -3.6712
    2DOPE  C212  190   3.810   5.415  13.037  0.1027  0.3475  0.2310
    2DOPE  H12R  191   3.918   5.422  13.012 -0.3250  1.1240 -1.5680
    2DOPE  H12S  192   3.806   5.429  13.148 -1.0332 -1.1838  0.4254
    2DOPE  C213  193   3.722   5.523  12.977  0.2616 -0.1650 -0.1898
    2DOPE  H13R  194   3.628   5.531  13.037  0.4164 -0.9080  0.1709
    2DOPE  H13S  195   3.692   5.497  12.873  0.1779 -0.3999 -0.1085
    2DOPE  C214  196   3.794   5.666  12.977  0.2225 -0.2408  0.3384
    2DOPE  H14R  197   3.722   5.739  12.935  1.7151 -0.3170 -2.6360
    2DOPE  H14S  198   3.880   5.658  12.908 -0.6731 -0.0181 -0.8260
    2DOPE  C215  199   3.838   5.706  13.116 -0.3771 -0.1558 -0.5240
    2DOPE  H15R  200   3.938   5.662  13.134  0.6128  1.0535 -2.7165
    2DOPE  H15S  201   3.761   5.677  13.190  0.1307 -0.4049 -0.0871
    2DOPE  C216  202   3.868   5.857  13.136  0.6237  0.0380  0.9034
    2DOPE  H16R  203   3.772   5.902  13.171  1.3862  0.1857  2.9168
    2DOPE  H16S  204   3.896   5.902  13.039 -0.3264  1.1853  1.1273
    2DOPE  C217  205   3.975   5.903  13.231 -0.6029  0.2512  0.2524
    2DOPE  H17R  206   3.974   5.836  13.320 -1.7554  3.3348  2.7406
    2DOPE  H17S  207   3.952   5.999  13.283  0.3617  0.7848 -0.2662
    2DOPE  C218  208   4.113   5.904  13.170  0.1118  0.1339 -0.1636
    2DOPE  H18R  209   4.191   5.880  13.245 -1.0145 -2.6575  0.2682
    2DOPE  H18S  210   4.135   5.988  13.101  1.8720 -2.0075 -2.4019
    2DOPE  H18T  211   4.123   5.815  13.104  3.0405 -1.7446  2.5437
    2DOPE   C33  212   4.611   5.696  13.345  0.5653 -0.1603 -0.0384
    2DOPE   H3X  213   4.515   5.641  13.350 -1.3745  2.9134 -0.8677
    2DOPE   H3Y  214   4.687   5.640  13.286  0.3588 -0.4672 -0.0118
    2DOPE   C34  215   4.594   5.821  13.269  0.0296  0.4159  0.4654
    2DOPE   H4X  216   4.539   5.894  13.332 -0.4523  0.7039 -0.2774
    2DOPE   H4Y  217   4.691   5.871  13.249  0.4773 -0.6309 -0.0408
    2DOPE   C35  218   4.510   5.802  13.139  0.2412  0.0531 -0.0008
    2DOPE   H5X  219   4.413   5.759  13.172  0.7946 -2.1094 -1.0087
    2DOPE   H5Y  220   4.558   5.719  13.082 -0.8607  0.1640 -1.1207
    2DOPE   C36  221   4.513   5.923  13.053 -0.0718  0.2688  0.1507
    2DOPE   H6X  222   4.620   5.948  13.035  0.2016 -2.0147 -1.8055
    2DOPE   H6Y  223   4.462   6.008  13.104 -0.3408 -1.0031  2.1201
    2DOPE   C37  224   4.452   5.906  12.908 -0.1714  0.6592 -0.2634
    2DOPE   H7X  225   4.502   5.827  12.848 -0.6428  0.7186 -0.7366
    2DOPE   H7Y  226   4.347   5.876  12.928  0.2206 -0.5745  0.0189
    2DOPE   C38  227   4.451   6.038  12.825 -0.7981  0.6979 -0.9237
    2DOPE   H8X  228   4.554   6.052  12.785 -0.3842 -3.4683 -1.7513
    2DOPE   H8Y  229   4.441   6.122  12.897  0.1337  0.8673 -0.9719
    2DOPE   C39  230   4.347   6.045  12.717 -0.1606 -0.1486  0.0836
    2DOPE   H9X  231   4.378   6.018  12.615 -0.2239  1.0191 -0.2633
    2DOPE  C310  232   4.219   6.090  12.739 -0.6680  0.2127 -0.1590
    2DOPE  H10X  233   4.153   6.089  12.651  0.1324  0.7868 -0.7893
    2DOPE  C311  234   4.164   6.156  12.866  0.2712  0.6251 -0.9147
    2DOPE  H11X  235   4.096   6.086  12.919  2.0034  0.1768  0.8186
    2DOPE  H11Y  236   4.251   6.173  12.932  0.7206 -0.5372 -1.1863
    2DOPE  C312  237   4.086   6.286  12.842  0.1267  0.5967 -0.6670
    2DOPE  H12X  238   3.992   6.256  12.792  0.9582 -3.0292 -0.2750
    2DOPE  H12Y  239   4.138   6.349  12.766 -0.1772  0.9176 -0.6107
    2DOPE  C313  240   4.051   6.365  12.964 -0.1923 -0.0617  0.1606
    2DOPE  H13X  241   4.141   6.392  13.024 -0.3910 -0.7562  0.7826
    2DOPE  H13Y  242   4.007   6.464  12.937 -2.6897 -0.8164  1.1695
    2DOPE  C314  243   3.953   6.290  13.054 -0.1067 -0.4789 -0.1281
    2DOPE  H14X  244   3.991   6.187  13.074  2.0357  0.4128  0.7545
    2DOPE  H14Y  245   3.858   6.282  12.998 -0.1892 -0.0002 -0.0660
    2DOPE  C315  246   3.923   6.362  13.195 -0.3033  0.1840  0.3550
    2DOPE  H15X  247   3.903   6.470  13.178 -0.2472  0.7026  3.1528
    2DOPE  H15Y  248   4.022   6.358  13.245 -0.8197 -0.0020  1.4088
    2DOPE  C316  249   3.802   6.298  13.261  0.3210  0.3549 -0.3185
    2DOPE  H16X  250   3.759   6.206  13.217 -0.7781  0.3903  0.6259
    2DOPE  H16Y  251   3.725   6.374  13.236  0.4721  1.3011  1.8642
    2DOPE  C317  252   3.816   6.300  13.412  0.2778 -0.2702  0.3134
    2DOPE  H17X  253   3.887   6.223  13.448 -0.0306 -0.4489  0.5551
    2DOPE  H17Y  254   3.843   6.401  13.448 -1.6112  0.6133 -0.6478
    2DOPE  C318  255   3.679   6.271  13.477  0.3180  0.0154  0.4795
    2DOPE  H18X  256   3.606   6.339  13.428  1.1978  0.1570 -0.6763
    2DOPE  H18Y  257   3.651   6.166  13.459  1.2236 -0.4458  1.5948
    2DOPE  H18Z  258   3.681   6.293  13.586 -0.0179  0.4318  0.4061
    3DOPE     N  259   2.856   5.106  14.272 -0.0580  0.1450  0.2466
    3DOPE   HN1  260   2.798   5.072  14.351 -1.2673 -2.8574 -1.7495
    3DOPE   HN2  261   2.952   5.115  14.313  0.2225  1.3174 -0.6366
    3DOPE   HN3  262   2.831   5.197  14.228  0.1602 -0.2271 -0.6717
    3DOPE   C12  263   2.872   5.008  14.157 -0.6916 -0.4189  0.6282
    3DOPE  H12A  264   2.767   4.981  14.129 -0.1848  0.4966 -2.4615
    3DOPE  H12B  265   2.932   4.921  14.191  2.4207  2.0003  1.8193
    3DOPE   C11  266   2.944   5.078  14.038  0.5638  0.2588 -0.0208
    3DOPE  H11A  267   2.878   5.147  13.981 -1.2605 -1.0791  0.3829
    3DOPE  H11B  268   2.949   4.997  13.962  3.0945  1.2943 -1.0712
    3DOPE     P  269   3.199   5.104  14.018 -0.3971  0.0803  0.1009
    3DOPE   O13  270   3.262   5.012  14.110 -0.3255 -0.5935  0.2397
    3DOPE   O14  271   3.268   5.228  13.976 -0.3625  0.4404  0.4243
    3DOPE   O11  272   3.161   5.020  13.887  0.3859 -0.9793  0.4206
    3DOPE   O12  273   3.060   5.139  14.077 -0.4690 -0.4736  0.0817
    3DOPE    C1  274   3.200   5.025  13.756  0.0173 -0.0986  0.1443
    3DOPE    HA  275   3.221   4.920  13.723 -1.7567  0.4074 -3.0002
    3DOPE    HB  276   3.294   5.081  13.734 -0.1522 -0.1502 -0.7480
    3DOPE    C2  277   3.071   5.062  13.678  0.0941  0.5909 -0.2543
    3DOPE    HS  278   2.984   4.997  13.701  0.1430  1.1114  1.5600
    3DOPE   O21  279   3.103   5.048  13.537  0.3670 -0.0083 -0.0105
    3DOPE   C21  280   3.013   4.993  13.454 -0.0293 -0.5337  0.0317
    3DOPE   O22  281   2.912   4.938  13.492  0.3145  0.0562  0.1678
    3DOPE   C22  282   3.057   5.014  13.317  0.3390  0.2851  0.3166
    3DOPE   H2R  283   3.159   4.979  13.290 -0.3833 -2.0637  0.4793
    3DOPE   H2S  284   3.059   5.124  13.301  0.2547  0.2950  0.3748
    3DOPE    C3  285   3.031   5.209  13.705 -0.2946  1.7359  1.0737
    3DOPE    HX  286   3.126   5.261  13.678  1.0251  0.4563  2.9715
    3DOPE    HY  287   2.997   5.235  13.807 -2.3243  1.7351  0.4377
    3DOPE   O31  288   2.925   5.252  13.612 -0.0584 -0.0388  0.2407
    3DOPE   C31  289   2.799   5.224  13.648 -0.1627  0.0634  0.1827
    3DOPE   O32  290   2.762   5.168  13.748  0.1275 -0.3311  0.3217
    3DOPE   C32  291   2.705   5.279  13.533 -0.0291 -0.2984 -0.2736
    3DOPE   H2X  292   2.740   5.380  13.502  3.7320 -1.4569 -0.3473
    3DOPE   H2Y  293   2.711   5.221  13.439  2.2366  0.3494 -0.5897
    3DOPE   C23  294   2.957   4.946  13.231  0.5042 -0.9872  0.2449
    3DOPE   H3R  295   2.858   4.994  13.223  1.5867  1.0760 -2.7667
    3DOPE   H3S  296   2.939   4.840  13.257  0.8780 -0.9485  0.6982
    3DOPE   C24  297   2.999   4.940  13.080 -0.0534  0.6595  0.0425
    3DOPE   H4R  298   3.101   4.898  13.068  0.0025  1.4358 -2.9255
    3DOPE   H4S  299   3.016   5.041  13.037  1.0114  0.1024 -0.8952
    3DOPE   C25  300   2.892   4.863  13.009  0.1666 -0.1919  0.1100
    3DOPE   H5R  301   2.805   4.929  13.023 -0.5089 -1.1321  0.4733
    3DOPE   H5S  302   2.869   4.768  13.062  2.3899 -1.9487 -1.8531
    3DOPE   C26  303   2.916   4.852  12.852  0.7880  0.0268  0.0550
    3DOPE   H6R  304   3.019   4.824  12.823  0.9514 -0.5978  1.1511
    3DOPE   H6S  305   2.896   4.955  12.815 -3.6797  0.2159  2.2205
    3DOPE   C27  306   2.821   4.764  12.769  0.1128 -0.5640 -0.3721
    3DOPE   H7R  307   2.813   4.671  12.829 -1.0968  1.1860  2.3934
    3DOPE   H7S  308   2.865   4.746  12.669 -0.7844  2.3420 -1.4085
    3DOPE   C28  309   2.671   4.822  12.757  0.5271  0.0015  0.1434
    3DOPE   H8R  310   2.637   4.847  12.860 -0.0679  2.8690 -0.6723
    3DOPE   H8S  311   2.604   4.741  12.720  1.1660 -1.7685  2.6326
    3DOPE   C29  312   2.643   4.948  12.678 -0.9558  1.0998 -0.1502
    3DOPE   H9R  313   2.675   5.044  12.721  2.5484  0.0174 -0.0115
    3DOPE  C210  314   2.579   4.965  12.561 -0.6306  0.0201  0.1698
    3DOPE  H10R  315   2.560   5.072  12.541  2.3144  0.8731  1.3094
    3DOPE  C211  316   2.504   4.860  12.485 -0.3824 -0.0022  0.2627
    3DOPE  H11R  317   2.461   4.780  12.549 -1.3683  1.7128  1.8662
    3DOPE  H11S  318   2.582   4.825  12.414 -1.0719 -2.2888  0.5700
    3DOPE  C212  319   2.395   4.933  12.401  0.0892  0.0140 -0.8330
    3DOPE  H12R  320   2.445   4.995  12.323  3.8222 -2.4437 -0.6527
    3DOPE  H12S  321   2.337   5.003  12.465 -1.4850 -1.3072 -0.7587
    3DOPE  C213  322   2.294   4.835  12.329 -0.4084 -0.3647 -0.2670
    3DOPE  H13R  323   2.243   4.763  12.397 -0.3858 -1.4356 -1.3554
    3DOPE  H13S  324   2.354   4.779  12.254  0.4894  1.2754 -0.8194
    3DOPE  C214  325   2.194   4.909  12.243 -0.0437  0.8508 -0.5440
    3DOPE  H14R  326   2.233   4.985  12.172 -0.7258  0.2642 -1.5704
    3DOPE  H14S  327   2.113   4.942  12.312 -1.3139 -2.1243 -0.4575
    3DOPE  C215  328   2.120   4.807  12.148 -0.1623 -0.4316 -0.3292
    3DOPE  H15R  329   2.201   4.741  12.108 -0.7657 -1.9360  0.8311
    3DOPE  H15S  330   2.081   4.870  12.065 -1.2930 -1.3411 -0.5108
    3DOPE  C216  331   2.005   4.722  12.211  0.9095  0.4586  0.4769
    3DOPE  H16R  332   1.919   4.788  12.235  2.6497  3.4703 -0.9705
    3DOPE  H16S  333   2.035   4.679  12.309 -1.6316  0.3839  1.2927
    3DOPE  C217  334   1.961   4.610  12.110 -0.1308  0.2741 -0.2636
    3DOPE  H17R  335   2.054   4.554  12.088  0.0199  0.6638 -0.6238
    3DOPE  H17S  336   1.916   4.663  12.023 -2.6794 -1.6113 -0.2079
    3DOPE  C218  337   1.862   4.503  12.163  0.0897 -0.3404 -0.4042
    3DOPE  H18R  338   1.910   4.431  12.233  1.2908 -0.5121 -1.3726
    3DOPE  H18S  339   1.831   4.433  12.082 -1.1310 -1.1463  0.7066
    3DOPE  H18T  340   1.772   4.556  12.202  1.3629  1.0648  0.7111
    3DOPE   C33  341   2.568   5.314  13.596 -0.2559  0.3894  0.0806
    3DOPE   H3X  342   2.599   5.373  13.685 -1.0968 -0.9894  1.3351
    3DOPE   H3Y  343   2.522   5.215  13.614 -0.2992  0.0734 -1.5893
    3DOPE   C34  344   2.488   5.404  13.500  0.0169  0.0511  0.2439
    3DOPE   H4X  345   2.529   5.504  13.473 -2.3478  0.5761 -1.8233
    3DOPE   H4Y  346   2.502   5.345  13.406  1.5556 -1.3510  1.3111
    3DOPE   C35  347   2.336   5.432  13.525 -0.0876 -0.8248  0.2715
    3DOPE   H5X  348   2.276   5.442  13.433 -1.0248  0.0502  0.9575
    3DOPE   H5Y  349   2.320   5.521  13.590 -0.2251  0.4781 -1.4692
    3DOPE   C36  350   2.268   5.305  13.595 -0.3897  0.6966 -0.1377
    3DOPE   H6X  351   2.339   5.273  13.674  0.4559  2.4545 -0.1312
    3DOPE   H6Y  352   2.267   5.216  13.528  0.2396  0.6395 -0.0794
    3DOPE   C37  353   2.130   5.330  13.672 -0.4928  0.0027  0.1917
    3DOPE   H7X  354   2.130   5.237  13.734 -0.8215 -0.7963 -0.9695
    3DOPE   H7Y  355   2.140   5.419  13.738  0.0428 -0.0934  0.2474
    3DOPE   C38  356   1.997   5.331  13.589 -0.6113 -0.7997  0.7158
    3DOPE   H8X  357   2.008   5.430  13.541 -0.5004 -0.1156  2.1023
    3DOPE   H8Y  358   1.922   5.336  13.670 -0.2030 -1.0951  1.1225
    3DOPE   C39  359   1.972   5.209  13.502 -0.6982 -0.3776 -0.1480
    3DOPE   H9X  360   1.962   5.110  13.549  0.7247 -1.4216 -1.9230
    3DOPE  C310  361   1.950   5.212  13.371  0.0425 -0.3653  0.1050
    3DOPE  H10X  362   1.928   5.116  13.321 -0.3758 -0.9398  1.3659
    3DOPE  C311  363   1.951   5.335  13.284  1.2362  0.5215 -0.1400
    3DOPE  H11X  364   1.999   5.421  13.334  0.6847  1.1066 -0.5995
    3DOPE  H11Y  365   2.020   5.318  13.198  1.3048 -1.9536  0.3322
    3DOPE  C312  366   1.821   5.405  13.236 -0.4616  0.4383  0.0035
    3DOPE  H12X  367   1.846   5.495  13.176  1.8045 -0.6000 -0.7425
    3DOPE  H12Y  368   1.754   5.435  13.319 -0.4804 -0.0064  0.1533
    3DOPE  C313  369   1.748   5.311  13.140  0.3034  0.2755 -0.2489
    3DOPE  H13X  370   1.745   5.357  13.039 -1.1156  1.3491  0.2558
    3DOPE  H13Y  371   1.791   5.209  13.132 -3.4294 -1.4028 -0.5894
    3DOPE  C314  372   1.601   5.284  13.182 -0.2648 -0.4758 -0.0930
    3DOPE  H14X  373   1.550   5.369  13.231  0.4076 -0.2313  0.1931
    3DOPE  H14Y  374   1.609   5.216  13.269  1.5010 -0.6457 -0.3478
    3DOPE  C315  375   1.507   5.225  13.082  0.2133  0.8255  1.0715
    3DOPE  H15X  376   1.534   5.117  13.075 -1.4696  0.3629  1.3517
    3DOPE  H15Y  377   1.540   5.270  12.985  0.0511 -1.1600  0.0462
    3DOPE  C316  378   1.356   5.258  13.107  0.4464  0.6259 -0.3010
    3DOPE  H16X  379   1.344   5.368  13.095  1.1769  0.8705  0.9618
    3DOPE  H16Y  380   1.330   5.225  13.210 -0.8259 -0.2924 -0.8965
    3DOPE  C317  381   1.264   5.192  13.005 -0.0813  0.9406 -0.0392
    3DOPE  H17X  382   1.286   5.211  12.897 -0.9458  0.1166 -0.3775
    3DOPE  H17Y  383   1.269   5.082  13.019 -2.5927  0.9008  1.0674
    3DOPE  C318  384   1.119   5.241  13.016  0.8480  0.4385 -0.3652
    3DOPE  H18X  385   1.101   5.321  12.941 -0.0968 -0.0815 -0.7162
    3DOPE  H18Y  386   1.055   5.159  12.977  3.2530 -0.2027 -3.3279
    3DOPE  H18Z  387   1.086   5.286  13.112  3.6491 -1.0410  1.3969
    4DOPE     N  388   4.228   3.263  14.256  0.0461  0.5027 -0.2292
    4DOPE   HN1  389   4.312   3.234  14.201 -0.1202  1.7605 -1.1836
    4DOPE   HN2  390   4.192   3.191  14.322 -2.3525  1.3172 -0.5534
    4DOPE   HN3  391   4.146   3.281  14.196 -0.9133  0.0323  0.9017
    4DOPE   C12  392   4.256   3.380  14.341 -0.0437  0.3011  0.9143
    4DOPE  H12A  393   4.303   3.340  14.433  2.5035  0.6277 -0.1585
    4DOPE  H12B  394   4.157   3.427  14.361 -0.3789 -0.1389  0.3416
    4DOPE   C11  395   4.349   3.484  14.272  0.0579  0.5360  0.5029
    4DOPE  H11A  396   4.448   3.435  14.256 -0.9186 -1.1516 -0.6818
    4DOPE  H11B  397   4.371   3.566  14.344  1.1077 -0.5306  1.4268
    4DOPE     P  398   4.379   3.661  14.069 -0.4689  0.0613  0.3319
    4DOPE   O13  399   4.480   3.709  14.162 -0.4198 -0.0058  0.3726
    4DOPE   O14  400   4.280   3.755  14.022 -0.0249  0.4227 -0.0567
    4DOPE   O11  401   4.448   3.587  13.948  0.2375 -0.2035  0.2547
    4DOPE   O12  402   4.303   3.539  14.147 -0.5155  0.2492 -0.0295
    4DOPE    C1  403   4.523   3.466  13.958 -0.1201  0.4924  0.1023
    4DOPE    HA  404   4.460   3.376  13.973  0.6982 -0.3276 -1.2217
    4DOPE    HB  405   4.584   3.473  14.050  0.6333  0.3190 -0.3812
    4DOPE    C2  406   4.592   3.461  13.816 -0.0242 -0.1314  0.4039
    4DOPE    HS  407   4.516   3.481  13.737  0.6795 -1.2810 -0.6020
    4DOPE   O21  408   4.655   3.332  13.787 -0.2316 -0.4080  0.2429
    4DOPE   C21  409   4.575   3.239  13.738 -0.6516 -0.3410 -0.5200
    4DOPE   O22  410   4.458   3.258  13.710  0.1260  0.3972 -0.3468
    4DOPE   C22  411   4.652   3.118  13.726 -0.6217 -0.2016 -1.0340
    4DOPE   H2R  412   4.588   3.040  13.681  2.4408 -2.8061 -1.2183
    4DOPE   H2S  413   4.682   3.080  13.826  0.8472 -2.5522 -2.2816
    4DOPE    C3  414   4.712   3.565  13.805 -0.2182  0.3752  0.4467
    4DOPE    HX  415   4.788   3.554  13.886  1.7893 -0.4282 -1.4486
    4DOPE    HY  416   4.670   3.667  13.819 -0.5582  0.2473  0.3504
    4DOPE   O31  417   4.761   3.567  13.671  0.1552  0.5208  0.5482
    4DOPE   C31  418   4.863   3.487  13.647 -0.2365 -0.0937  0.1760
    4DOPE   O32  419   4.920   3.423  13.737  0.1893 -0.4774 -0.2540
    4DOPE   C32  420   4.890   3.473  13.495  0.1144 -0.2644 -0.3513
    4DOPE   H2X  421   4.836   3.382  13.460 -1.5555 -0.8494  3.2892
    4DOPE   H2Y  422   4.840   3.560  13.447  1.9809  1.1866  0.2179
    4DOPE   C23  423   4.777   3.115  13.629  0.1601  0.5328  0.0480
    4DOPE   H3R  424   4.855   3.184  13.666 -0.0496  0.4330  0.6764
    4DOPE   H3S  425   4.748   3.140  13.525 -1.1357 -2.4653 -0.4392
    4DOPE   C24  426   4.833   2.972  13.628 -0.0236  0.1104 -0.1238
    4DOPE   H4R  427   4.802   2.921  13.534  1.8492  0.0841 -0.7637
    4DOPE   H4S  428   4.795   2.913  13.714 -1.9974 -1.1228 -1.7545
    4DOPE   C25  429   4.987   2.977  13.630 -0.3396  0.4002 -0.0556
    4DOPE   H5R  430   5.017   2.871  13.644  0.8942  0.6777 -0.5288
    4DOPE   H5S  431   5.004   3.027  13.728 -2.1619 -0.1618  0.5951
    4DOPE   C26  432   5.050   3.042  13.509 -0.1757  0.0040 -0.1739
    4DOPE   H6R  433   5.052   3.152  13.518 -0.1737 -0.1121  1.5421
    4DOPE   H6S  434   4.998   3.007  13.417 -0.9161  1.6152 -0.4041
    4DOPE   C27  435   5.199   3.012  13.490 -0.1554 -0.4869  0.2677
    4DOPE   H7R  436   5.214   2.903  13.475  0.6854 -0.2115 -1.0612
    4DOPE   H7S  437   5.241   3.039  13.589 -0.8764  1.3528  0.1092
    4DOPE   C28  438   5.271   3.095  13.378 -0.5040  0.8647  0.1435
    4DOPE   H8R  439   5.374   3.054  13.380 -0.9255 -0.1998  1.0782
    4DOPE   H8S  440   5.279   3.202  13.408 -1.2089  0.9875 -0.0954
    4DOPE   C29  441   5.216   3.079  13.241  0.0559 -0.5204 -0.3451
    4DOPE   H9R  442   5.122   3.024  13.227 -0.9378  0.9162  0.4718
    4DOPE  C210  443   5.284   3.124  13.132  0.4456  0.6843 -0.2968
    4DOPE  H10R  444   5.243   3.091  13.035  2.1366 -0.9371 -0.5240
    4DOPE  C211  445   5.414   3.201  13.123  0.5026 -0.0193  0.3473
    4DOPE  H11R  446   5.488   3.154  13.055  3.1208  4.2507 -0.0805
    4DOPE  H11S  447   5.471   3.218  13.217  1.5456  0.3228 -0.3271
    4DOPE  C212  448   5.381   3.345  13.069 -0.4163  0.7528  0.0778
    4DOPE  H12R  449   5.478   3.396  13.088  0.3988 -1.1709  1.5167
    4DOPE  H12S  450   5.296   3.397  13.118  0.6648  0.3122  2.6180
    4DOPE  C213  451   5.349   3.356  12.917 -0.2660 -0.2345 -0.0213
    4DOPE  H13R  452   5.354   3.461  12.881  0.2050 -0.4120 -0.4884
    4DOPE  H13S  453   5.248   3.311  12.907  0.0052 -0.8990  0.1782
    4DOPE  C214  454   5.441   3.272  12.830  0.2775  0.5916  0.6989
    4DOPE  H14R  455   5.433   3.164  12.855  0.8149  0.3445 -0.1438
    4DOPE  H14S  456   5.542   3.315  12.848  0.3775  0.4724  0.4310
    4DOPE  C215  457   5.403   3.284  12.685  0.0805  0.2489 -1.0522
    4DOPE  H15R  458   5.415   3.389  12.652 -1.1352  0.5771 -0.5067
    4DOPE  H15S  459   5.295   3.255  12.680 -0.3271  1.3439  0.5509
    4DOPE  C216  460   5.502   3.192  12.599  0.5184  0.2760 -0.6248
    4DOPE  H16R  461   5.482   3.198  12.490  0.9166 -0.4738 -0.7437
    4DOPE  H16S  462   5.468   3.087  12.616 -0.6875  0.3610 -2.2948
    4DOPE  C217  463   5.651   3.200  12.630 -0.9822 -0.3403 -0.0884
    4DOPE  H17R  464   5.678   3.194  12.737 -0.7680 -2.6681 -0.2121
    4DOPE  H17S  465   5.688   3.293  12.582 -0.2811 -0.2698  0.5828
    4DOPE  C218  466   5.734   3.089  12.563  0.0282  0.3081  0.5397
    4DOPE  H18R  467   5.708   2.988  12.599 -2.2302  0.1842 -1.1951
    4DOPE  H18S  468   5.842   3.105  12.583  0.3975 -0.0189 -1.0497
    4DOPE  H18T  469   5.725   3.083  12.452  0.8490  0.1178  0.4762
    4DOPE   C33  470   5.038   3.470  13.459 -0.7753  0.1260  0.0410
    4DOPE   H3X  471   5.075   3.373  13.499  2.2575  1.3268  0.4288
    4DOPE   H3Y  472   5.097   3.551  13.506 -1.0740 -0.0336  0.6991
    4DOPE   C34  473   5.069   3.463  13.313 -0.0207  0.2819 -0.2505
    4DOPE   H4X  474   5.165   3.411  13.291 -1.7418 -2.6769 -1.4396
    4DOPE   H4Y  475   4.991   3.392  13.277  1.3008 -2.6646  2.2632
    4DOPE   C35  476   5.064   3.607  13.245 -0.1742  0.3431 -0.2177
    4DOPE   H5X  477   5.152   3.657  13.291  0.2094 -1.2475  0.8228
    4DOPE   H5Y  478   4.970   3.657  13.275 -0.7683  0.4104 -2.0799
    4DOPE   C36  479   5.079   3.617  13.095  0.8137 -0.2310  0.6883
    4DOPE   H6X  480   5.173   3.581  13.047 -0.1399  1.0147 -2.3140
    4DOPE   H6Y  481   5.078   3.724  13.063  0.6896 -1.0386 -2.2853
    4DOPE   C37  482   4.962   3.542  13.029  0.0864  0.4010 -0.3532
    4DOPE   H7X  483   4.983   3.433  13.022 -2.0020  0.0498 -2.3855
    4DOPE   H7Y  484   4.873   3.538  13.096  1.1973  1.4856  1.2635
    4DOPE   C38  485   4.927   3.582  12.885  0.1235  0.7482 -0.3212
    4DOPE   H8X  486   4.897   3.689  12.878 -1.8708  0.1539 -1.7555
    4DOPE   H8Y  487   4.833   3.527  12.861 -1.2075  2.4444  0.7432
    4DOPE   C39  488   5.040   3.552  12.785  0.2379 -0.4270  0.3976
    4DOPE   H9X  489   5.128   3.615  12.804 -0.0555 -0.2296  1.1135
    4DOPE  C310  490   5.027   3.494  12.664 -0.0934  0.3752 -0.0676
    4DOPE  H10X  491   5.120   3.486  12.606 -0.8932 -0.3879 -1.2941
    4DOPE  C311  492   4.910   3.432  12.594  0.6358 -0.3392 -0.3489
    4DOPE  H11X  493   4.931   3.338  12.538 -0.8433  0.3061 -2.1105
    4DOPE  H11Y  494   4.829   3.431  12.670  0.3059  0.5396 -0.6741
    4DOPE  C312  495   4.855   3.519  12.484 -0.8319 -0.1429  0.1232
    4DOPE  H12X  496   4.930   3.529  12.402  0.0224  1.6649  1.0545
    4DOPE  H12Y  497   4.832   3.615  12.536 -1.5525 -0.0378 -0.3911
    4DOPE  C313  498   4.728   3.467  12.415  1.4465 -0.1498  0.3545
    4DOPE  H13X  499   4.745   3.362  12.381 -0.9374 -1.3393  2.4827
    4DOPE  H13Y  500   4.649   3.465  12.493  2.0146  1.0843  1.0018
    4DOPE  C314  501   4.685   3.546  12.287 -0.2209 -0.1801 -0.0656
    4DOPE  H14X  502   4.758   3.532  12.205  1.2378  0.4620  1.0664
    4DOPE  H14Y  503   4.674   3.656  12.303  3.4884  0.7867 -2.8115
    4DOPE  C315  504   4.546   3.503  12.231 -0.4285 -0.2397  0.4478
    4DOPE  H15X  505   4.480   3.582  12.272 -0.0725  0.6572 -0.6300
    4DOPE  H15Y  506   4.511   3.408  12.275  0.3382 -0.6091  0.2718
    4DOPE  C316  507   4.554   3.491  12.078  0.2605 -0.6192  0.1132
    4DOPE  H16X  508   4.624   3.409  12.054 -0.2040 -0.8732 -0.4051
    4DOPE  H16Y  509   4.584   3.592  12.042 -3.5915  0.0918 -1.7607
    4DOPE  C317  510   4.414   3.468  12.021  0.6727  0.2146 -0.2743
    4DOPE  H17X  511   4.370   3.386  12.082  1.5534 -0.7720 -0.9364
    4DOPE  H17Y  512   4.347   3.556  12.033 -0.6285 -1.0253  2.3333
    4DOPE  C318  513   4.423   3.428  11.877  0.5129  0.2459 -0.4516
    4DOPE  H18X  514   4.511   3.361  11.861 -0.0143 -0.5090 -0.2315
    4DOPE  H18Y  515   4.339   3.366  11.841  0.5680  0.2838 -0.6442
    4DOPE  H18Z  516   4.436   3.519  11.815 -1.7034  1.9627  1.4325
    5DOPE     N  517   2.168   4.190  14.331 -0.3062  0.4193  0.3420
    5DOPE   HN1  518   2.194   4.090  14.316  0.9467  0.8635 -0.5590
    5DOPE   HN2  519   2.153   4.199  14.434  1.5152  0.7368  0.6070
    5DOPE   HN3  520   2.077   4.203  14.283  0.2869 -0.4503 -1.0741
    5DOPE   C12  521   2.277   4.278  14.278 -0.8225 -0.5325 -0.2323
    5DOPE  H12A  522   2.238   4.382  14.280  0.8268  0.1553 -1.6195
    5DOPE  H12B  523   2.307   4.236  14.180 -1.4792 -0.6770 -0.3750
    5DOPE   C11  524   2.407   4.294  14.369  0.0439  0.1352  0.1162
    5DOPE  H11A  525   2.377   4.342  14.464  1.6049  0.0122  0.7046
    5DOPE  H11B  526   2.490   4.352  14.321  0.9147 -0.6664  0.6196
    5DOPE     P  527   2.572   4.086  14.314  0.5728  0.0940 -0.3396
    5DOPE   O13  528   2.620   3.981  14.410 -0.1406 -0.1336  0.0272
    5DOPE   O14  529   2.669   4.186  14.264  0.0358  0.4181 -0.5341
    5DOPE   O11  530   2.482   4.017  14.202 -0.2095  0.9117 -0.3566
    5DOPE   O12  531   2.458   4.168  14.397 -0.8033 -0.4795  0.3414
    5DOPE    C1  532   2.535   3.924  14.105 -0.1044 -0.0042  0.0018
    5DOPE    HA  533   2.464   3.840  14.086  0.5354 -0.5898  0.1572
    5DOPE    HB  534   2.630   3.876  14.135 -1.1605 -1.4744  1.1561
    5DOPE    C2  535   2.552   3.983  13.958 -0.0515  0.0521  0.0413
    5DOPE    HS  536   2.605   3.917  13.886  0.0632  0.3078 -0.1100
    5DOPE   O21  537   2.620   4.107  13.948 -0.4601 -0.4948  0.9955
    5DOPE   C21  538   2.747   4.104  13.983  0.4919  0.0316 -0.4056
    5DOPE   O22  539   2.814   4.006  14.003 -0.2985  0.2021  0.0793
    5DOPE   C22  540   2.801   4.247  13.971  0.1147 -0.2062 -0.0578
    5DOPE   H2R  541   2.845   4.288  14.064 -0.0183  2.1800 -0.9751
    5DOPE   H2S  542   2.719   4.310  13.931 -1.9379 -1.8906  1.2719
    5DOPE    C3  543   2.417   4.013  13.888  0.2766  0.3070 -0.0850
    5DOPE    HX  544   2.362   4.079  13.959  1.6761 -1.5093  2.9070
    5DOPE    HY  545   2.354   3.921  13.892 -0.4417  0.7992  0.0045
    5DOPE   O31  546   2.427   4.047  13.747 -0.0542  0.6067  0.0306
    5DOPE   C31  547   2.412   4.175  13.708 -0.0152  0.4303  0.2641
    5DOPE   O32  548   2.378   4.261  13.782  0.0586  0.5289 -0.3041
    5DOPE   C32  549   2.439   4.187  13.562  0.1088  0.0234  0.5804
    5DOPE   H2X  550   2.543   4.149  13.556 -0.4812 -1.7706  1.3140
    5DOPE   H2Y  551   2.372   4.125  13.498 -2.8874  2.4565  1.1433
    5DOPE   C23  552   2.915   4.266  13.869  0.0038  0.5254 -0.4556
    5DOPE   H3R  553   2.991   4.186  13.887  1.2303  2.1555  2.2578
    5DOPE   H3S  554   2.959   4.366  13.884 -0.9155  0.9266 -0.3706
    5DOPE   C24  555   2.873   4.272  13.722 -0.0064 -0.2041 -0.8587
    5DOPE   H4R  556   2.862   4.381  13.705  1.1914 -0.0946 -1.0478
    5DOPE   H4S  557   2.772   4.226  13.715  0.0981 -0.8450  1.2614
    5DOPE   C25  558   2.977   4.219  13.626 -0.1995 -0.1086  0.3334
    5DOPE   H5R  559   2.978   4.109  13.636 -1.4041 -0.6980 -4.1878
    5DOPE   H5S  560   3.075   4.263  13.657 -0.2011 -0.4012  0.7734
    5DOPE   C26  561   2.955   4.255  13.476 -0.4900 -0.5264 -0.2642
    5DOPE   H6R  562   3.044   4.221  13.418  1.2744  0.2469  1.8547
    5DOPE   H6S  563   2.942   4.365  13.473 -2.3361 -0.7322 -1.4522
    5DOPE   C27  564   2.832   4.190  13.414  0.1700  0.7309  0.3206
    5DOPE   H7R  565   2.744   4.218  13.476 -1.9937 -1.2503 -1.6150
    5DOPE   H7S  566   2.844   4.080  13.420  0.5854  0.5880 -2.0082
    5DOPE   C28  567   2.817   4.215  13.259 -0.2080 -0.0532  0.0110
    5DOPE   H8R  568   2.715   4.188  13.227  0.3664 -1.5493 -0.6522
    5DOPE   H8S  569   2.876   4.136  13.209  0.6281  0.5676 -0.0087
    5DOPE   C29  570   2.856   4.354  13.221  0.2043 -1.0650  0.2541
    5DOPE   H9R  571   2.899   4.422  13.296  2.4929 -0.3796 -1.5703
    5DOPE  C210  572   2.837   4.405  13.094 -0.0617  0.3489 -0.2696
    5DOPE  H10R  573   2.879   4.505  13.075  1.0222  0.2037  1.1815
    5DOPE  C211  574   2.805   4.333  12.963 -0.4979 -0.3557 -0.6353
    5DOPE  H11R  575   2.829   4.225  12.971  2.2565  0.2572  0.3864
    5DOPE  H11S  576   2.874   4.370  12.884 -1.3619 -0.7102 -1.5812
    5DOPE  C212  577   2.661   4.361  12.920  0.2042  0.1007  0.1688
    5DOPE  H12R  578   2.631   4.465  12.944  1.0310  0.5566 -0.7082
    5DOPE  H12S  579   2.591   4.290  12.969  0.5813 -0.1063  0.4156
    5DOPE  C213  580   2.647   4.358  12.763  0.1387  0.9407 -0.0680
    5DOPE  H13R  581   2.718   4.430  12.718  2.1188  0.8087  2.6275
    5DOPE  H13S  582   2.544   4.389  12.734 -1.0340 -3.5445 -1.5565
    5DOPE  C214  583   2.661   4.215  12.695 -0.4738  0.1246  0.4660
    5DOPE  H14R  584   2.750   4.166  12.739 -0.3451 -0.9872 -0.9689
    5DOPE  H14S  585   2.670   4.230  12.585  0.5971  1.1783  0.6761
    5DOPE  C215  586   2.546   4.127  12.716 -0.4192  0.3989  0.0740
    5DOPE  H15R  587   2.455   4.164  12.664 -0.5416  0.7420  0.5288
    5DOPE  H15S  588   2.526   4.112  12.825  1.9749 -1.6246  0.3324
    5DOPE  C216  589   2.576   3.981  12.669 -0.0758  0.4521  0.4354
    5DOPE  H16R  590   2.495   3.907  12.687  1.1247 -1.0279 -0.0929
    5DOPE  H16S  591   2.670   3.938  12.708  0.7643  0.1798 -1.7699
    5DOPE  C217  592   2.594   3.960  12.513 -0.3540  0.6770  0.0487
    5DOPE  H17R  593   2.678   4.029  12.490  1.2342 -0.3549  2.3728
    5DOPE  H17S  594   2.504   3.999  12.461 -0.6032 -0.3160 -0.2768
    5DOPE  C218  595   2.634   3.820  12.474  0.0306 -0.1457 -0.1542
    5DOPE  H18R  596   2.679   3.833  12.373  2.1745  2.4988  1.0008
    5DOPE  H18S  597   2.554   3.743  12.476  0.6943 -0.8424 -0.0556
    5DOPE  H18T  598   2.712   3.798  12.550 -1.6012  0.4524  1.7507
    5DOPE   C33  599   2.416   4.322  13.508  0.5817  0.1977 -0.2632
    5DOPE   H3X  600   2.501   4.385  13.541 -1.0605  1.5122  1.7242
    5DOPE   H3Y  601   2.321   4.370  13.540  0.5549 -2.1971  3.9489
    5DOPE   C34  602   2.431   4.318  13.352 -0.7931 -0.7062  0.4123
    5DOPE   H4X  603   2.450   4.423  13.324 -0.9440 -0.9721 -0.7422
    5DOPE   H4Y  604   2.522   4.265  13.317 -0.3055  0.2820  0.1671
    5DOPE   C35  605   2.322   4.257  13.264 -0.0107  0.7056  0.1608
    5DOPE   H5X  606   2.229   4.236  13.321  0.7546 -1.2638  0.7572
    5DOPE   H5Y  607   2.373   4.163  13.233  1.3051  1.5562 -0.3051
    5DOPE   C36  608   2.297   4.317  13.128 -0.3356 -1.1801  0.3536
    5DOPE   H6X  609   2.393   4.337  13.075 -0.6882 -0.0726  0.0945
    5DOPE   H6Y  610   2.250   4.416  13.147  1.1566 -0.5074  0.7292
    5DOPE   C37  611   2.210   4.218  13.041  0.1930 -0.2464  0.4694
    5DOPE   H7X  612   2.239   4.118  13.079 -0.2521 -0.8059 -0.6111
    5DOPE   H7Y  613   2.102   4.205  13.062 -0.2628 -1.0516 -2.0818
    5DOPE   C38  614   2.227   4.217  12.895 -0.0966 -0.1513  0.1635
    5DOPE   H8X  615   2.166   4.128  12.870  0.6236 -1.0380  1.4593
    5DOPE   H8Y  616   2.334   4.201  12.871  0.0553 -1.0213  1.3231
    5DOPE   C39  617   2.183   4.339  12.826 -0.1858  0.5246 -0.5467
    5DOPE   H9X  618   2.191   4.426  12.893  1.1315 -0.6277  0.8756
    5DOPE  C310  619   2.140   4.348  12.699 -0.0999 -0.0160 -0.4865
    5DOPE  H10X  620   2.128   4.448  12.655 -2.1070  0.0581  0.1589
    5DOPE  C311  621   2.117   4.233  12.597 -0.2106  1.2591 -0.3150
    5DOPE  H11X  622   2.189   4.152  12.622  1.3388  2.8330  0.5430
    5DOPE  H11Y  623   2.017   4.185  12.603 -0.7308  2.3931  0.2906
    5DOPE  C312  624   2.129   4.271  12.446  0.2582 -0.1794  0.2317
    5DOPE  H12X  625   2.211   4.343  12.430  1.6468 -1.6230  0.5440
    5DOPE  H12Y  626   2.033   4.316  12.411 -0.1457  0.4025  1.9603
    5DOPE  C313  627   2.163   4.154  12.356  0.0489  0.3347 -0.8268
    5DOPE  H13X  628   2.260   4.108  12.386 -0.0169 -0.5180 -1.8369
    5DOPE  H13Y  629   2.094   4.069  12.379  1.3657 -0.4857  0.2411
    5DOPE  C314  630   2.160   4.180  12.203  0.8062  0.0861 -0.2203
    5DOPE  H14X  631   2.226   4.267  12.181 -0.8769  2.2137  2.5465
    5DOPE  H14Y  632   2.059   4.220  12.182  0.6323 -0.5741 -0.6940
    5DOPE  C315  633   2.199   4.059  12.117 -0.3688  0.1954 -1.0548
    5DOPE  H15X  634   2.137   3.971  12.145 -1.7544  0.1485 -3.8935
    5DOPE  H15Y  635   2.304   4.034  12.139 -0.4343  0.4064 -0.4791
    5DOPE  C316  636   2.158   4.073  11.967  0.1883 -0.3949  0.1371
    5DOPE  H16X  637   2.050   4.093  11.955 -0.4145 -2.5164  1.4841
    5DOPE  H16Y  638   2.185   3.973  11.926  2.4026 -1.6227  4.1409
    5DOPE  C317  639   2.240   4.185  11.900 -0.2695  0.2883  0.0616
    5DOPE  H17X  640   2.232   4.278  11.960 -0.0509 -0.3231  1.0601
    5DOPE  H17Y  641   2.344   4.149  11.916 -0.9775 -1.3349  1.2380
    5DOPE  C318  642   2.209   4.207  11.752  0.3345 -0.2148 -0.0986
    5DOPE  H18X  643   2.100   4.197  11.730  0.2471  0.3813  0.0315
    5DOPE  H18Y  644   2.247   4.302  11.709  0.5731 -0.8540 -1.3282
    5DOPE  H18Z  645   2.259   4.126  11.696  0.0681  0.4843 -1.3736
    6DOPE     N  646   1.136   5.293  14.050 -0.3527 -0.1266 -0.1989
    6DOPE   HN1  647   1.202   5.287  14.131 -2.0446  1.0304  1.3776
    6DOPE   HN2  648   1.142   5.388  14.007 -3.3633  0.4713  0.4384
    6DOPE   HN3  649   1.039   5.282  14.087 -0.1549 -0.8405  0.1206
    6DOPE   C12  650   1.170   5.184  13.947 -0.1664  0.1245 -0.1969
    6DOPE  H12A  651   1.095   5.178  13.866  0.6836 -0.4284 -0.9640
    6DOPE  H12B  652   1.182   5.089  14.004 -1.9838 -0.3781 -0.6131
    6DOPE   C11  653   1.300   5.230  13.884  0.6589 -0.4593 -0.0205
    6DOPE  H11A  654   1.288   5.330  13.837  0.1205 -0.5942 -0.1743
    6DOPE  H11B  655   1.327   5.164  13.799  0.6904  0.1766 -0.5102
    6DOPE     P  656   1.525   5.133  14.006  0.1371 -0.4860 -0.4732
    6DOPE   O13  657   1.463   5.005  14.044 -0.0713 -0.4830 -0.0541
    6DOPE   O14  658   1.617   5.186  14.102 -0.3895 -0.8602 -0.2455
    6DOPE   O11  659   1.592   5.107  13.870 -0.5265  0.3529  0.0161
    6DOPE   O12  660   1.410   5.243  13.972  0.0885  0.2110 -0.3725
    6DOPE    C1  661   1.655   5.206  13.782  0.1166 -0.3126 -0.0004
    6DOPE    HA  662   1.755   5.170  13.749 -0.2975 -1.6814  0.1805
    6DOPE    HB  663   1.665   5.305  13.832  0.7389  0.4522 -1.5858
    6DOPE    C2  664   1.568   5.235  13.658  0.8564 -0.0131  0.7790
    6DOPE    HS  665   1.462   5.257  13.681  0.1063  0.1440 -2.3579
    6DOPE   O21  666   1.572   5.118  13.576  0.0872  0.0045 -0.1792
    6DOPE   C21  667   1.462   5.102  13.501  0.0535 -1.0201  1.3361
    6DOPE   O22  668   1.366   5.177  13.493 -0.2011 -0.5688 -0.0303
    6DOPE   C22  669   1.478   4.976  13.417 -0.7540 -0.0724 -0.6606
    6DOPE   H2R  670   1.546   4.910  13.473  0.4563  0.5434 -1.3662
    6DOPE   H2S  671   1.530   5.002  13.322 -1.0945 -2.7466 -1.6629
    6DOPE    C3  672   1.625   5.357  13.576  1.3986 -0.5865 -0.2717
    6DOPE    HX  673   1.713   5.325  13.516  1.2004 -0.3686 -0.6860
    6DOPE    HY  674   1.665   5.431  13.648  1.6420 -2.5872  1.7425
    6DOPE   O31  675   1.526   5.419  13.492  0.2337 -0.5623 -0.5657
    6DOPE   C31  676   1.430   5.497  13.553 -0.5436 -0.3537  0.0725
    6DOPE   O32  677   1.440   5.525  13.671 -0.0515  0.4188 -0.8911
    6DOPE   C32  678   1.328   5.553  13.463 -1.0084  0.5252 -0.2048
    6DOPE   H2X  679   1.358   5.558  13.356  0.6510 -3.1589 -0.0375
    6DOPE   H2Y  680   1.247   5.477  13.469  1.0718 -1.8811 -1.0644
    6DOPE   C23  681   1.347   4.894  13.379  0.3279 -0.4731 -0.7328
    6DOPE   H3R  682   1.277   4.967  13.332 -0.2674 -1.2624 -1.1080
    6DOPE   H3S  683   1.299   4.862  13.474 -1.3889  2.4950 -0.4488
    6DOPE   C24  684   1.380   4.777  13.289 -0.5918 -0.0695 -0.1515
    6DOPE   H4R  685   1.431   4.705  13.356  2.0568 -0.2524 -2.1692
    6DOPE   H4S  686   1.461   4.807  13.219  0.5374  0.7341  1.4117
    6DOPE   C25  687   1.260   4.727  13.206 -0.6769  0.1554 -0.3987
    6DOPE   H5R  688   1.181   4.715  13.283 -1.2788 -0.4581 -1.1066
    6DOPE   H5S  689   1.286   4.634  13.151 -0.4339  0.0432 -0.1005
    6DOPE   C26  690   1.218   4.825  13.098  0.0606  0.4183  1.1145
    6DOPE   H6R  691   1.320   4.847  13.060  0.2381 -0.9113  0.7673
    6DOPE   H6S  692   1.177   4.916  13.147 -1.8130 -1.1440  2.5998
    6DOPE   C27  693   1.127   4.755  12.985 -0.2452  0.3935 -0.0696
    6DOPE   H7R  694   1.027   4.714  13.013 -0.5849  0.3875 -1.2020
    6DOPE   H7S  695   1.196   4.677  12.946  1.3435  0.5314  2.2867
    6DOPE   C28  696   1.098   4.846  12.867 -0.4788 -0.6534 -0.5375
    6DOPE   H8R  697   1.051   4.939  12.904 -1.5152 -0.6063 -1.9193
    6DOPE   H8S  698   1.021   4.802  12.800 -0.7196  2.4299 -2.4797
    6DOPE   C29  699   1.210   4.898  12.781  0.1667  0.8300 -0.7088
    6DOPE   H9R  700   1.296   4.923  12.846  0.4608  0.7566 -1.0644
    6DOPE  C210  701   1.213   4.908  12.648  0.9747  0.2092 -0.5910
    6DOPE  H10R  702   1.311   4.927  12.603  1.5380 -0.7877  0.1633
    6DOPE  C211  703   1.098   4.874  12.549  0.9337  0.5654 -0.2376
    6DOPE  H11R  704   1.085   4.939  12.461  0.6776  1.5785  0.5329
    6DOPE  H11S  705   1.000   4.874  12.602  1.7707 -0.8235  1.4252
    6DOPE  C212  706   1.111   4.728  12.507  0.6299  0.2202  0.7172
    6DOPE  H12R  707   1.122   4.655  12.591 -0.8268 -0.7347  0.1247
    6DOPE  H12S  708   1.201   4.707  12.446 -1.3656  1.4902 -3.0200
    6DOPE  C213  709   0.993   4.666  12.422 -0.9723  0.5679  0.1066
    6DOPE  H13R  710   0.902   4.661  12.485  0.1729 -1.5280  1.7062
    6DOPE  H13S  711   1.008   4.558  12.405  0.9391  0.6601  1.0328
    6DOPE  C214  712   0.979   4.727  12.285 -0.9846  0.5063 -0.6985
    6DOPE  H14R  713   0.970   4.837  12.298 -0.2549  0.7100 -1.8038
    6DOPE  H14S  714   0.886   4.689  12.237 -0.2710 -1.8834 -0.3204
    6DOPE  C215  715   1.098   4.698  12.192  0.2825 -0.3249 -0.3970
    6DOPE  H15R  716   1.115   4.588  12.197 -0.9276 -0.4733  2.0131
    6DOPE  H15S  717   1.185   4.755  12.229 -0.5716 -0.5223  2.1068
    6DOPE  C216  718   1.078   4.749  12.050  0.4043 -0.6625 -0.4241
    6DOPE  H16R  719   1.039   4.853  12.050 -1.9740 -1.5012 -0.8430
    6DOPE  H16S  720   1.012   4.684  11.988  0.2233  0.0310 -0.9633
    6DOPE  C217  721   1.215   4.760  11.975 -0.6133 -0.1826  0.4010
    6DOPE  H17R  722   1.259   4.658  11.975 -0.0397  0.0591  0.3023
    6DOPE  H17S  723   1.277   4.829  12.036 -0.3592  0.6091 -0.7163
    6DOPE  C218  724   1.198   4.806  11.826 -0.5221  0.2349  0.2016
    6DOPE  H18R  725   1.170   4.723  11.758 -0.7305  0.7678 -0.3878
    6DOPE  H18S  726   1.289   4.854  11.785 -1.9144  2.1976 -0.8043
    6DOPE  H18T  727   1.118   4.884  11.817  0.7867  1.5648 -0.2983
    6DOPE   C33  728   1.273   5.690  13.519 -0.1656 -0.5580 -0.2352
    6DOPE   H3X  729   1.345   5.734  13.592 -0.7778  0.9801 -0.5285
    6DOPE   H3Y  730   1.178   5.662  13.567  0.9278 -1.2756  1.6051
    6DOPE   C34  731   1.242   5.795  13.419  0.0762 -0.2794 -0.2267
    6DOPE   H4X  732   1.334   5.828  13.367  0.6459 -0.2244  0.7867
    6DOPE   H4Y  733   1.162   5.767  13.347 -1.7262 -1.1722  1.9867
    6DOPE   C35  734   1.188   5.926  13.491 -0.7945 -0.2730  0.5949
    6DOPE   H5X  735   1.254   5.949  13.577 -2.2676  0.4862  1.5754
    6DOPE   H5Y  736   1.085   5.903  13.527 -2.0187  2.7589 -0.5649
    6DOPE   C36  737   1.184   6.054  13.405  0.0518 -0.0116 -0.2661
    6DOPE   H6X  738   1.277   6.052  13.344 -0.2379  0.0041 -0.7133
    6DOPE   H6Y  739   1.176   6.146  13.467  2.0311 -0.6798  1.0764
    6DOPE   C37  740   1.058   6.047  13.319 -0.6998 -0.2608  0.4779
    6DOPE   H7X  741   1.054   5.948  13.268  0.2799  1.3382 -2.9854
    6DOPE   H7Y  742   0.970   6.061  13.386 -2.6291  0.6720 -2.1079
    6DOPE   C38  743   1.055   6.160  13.216 -0.0039 -0.0689 -0.6548
    6DOPE   H8X  744   1.047   6.248  13.283 -1.2008 -0.4260 -0.3124
    6DOPE   H8Y  745   0.963   6.167  13.154 -0.8305  1.0327  0.6328
    6DOPE   C39  746   1.170   6.179  13.124  0.4881 -0.2339  0.0332
    6DOPE   H9X  747   1.175   6.097  13.051 -0.2699 -2.5376  2.4046
    6DOPE  C310  748   1.266   6.269  13.141 -0.3446  0.3344  0.2619
    6DOPE  H10X  749   1.344   6.277  13.063 -0.5754  0.4617  0.0432
    6DOPE  C311  750   1.285   6.379  13.241  0.0238 -0.4004 -0.2775
    6DOPE  H11X  751   1.290   6.476  13.187  0.1688  0.0891  0.5917
    6DOPE  H11Y  752   1.197   6.406  13.304 -1.6610 -2.2615 -1.6899
    6DOPE  C312  753   1.419   6.376  13.312 -0.7205 -0.2313  0.4055
    6DOPE  H12X  754   1.422   6.274  13.355 -1.7478  0.0316  1.1478
    6DOPE  H12Y  755   1.424   6.458  13.387 -1.2773  1.3921 -1.2398
    6DOPE  C313  756   1.541   6.393  13.221 -0.6113 -0.9354  0.5358
    6DOPE  H13X  757   1.535   6.303  13.156 -3.2321 -1.0109  0.8053
    6DOPE  H13Y  758   1.541   6.483  13.156 -2.5468 -1.7681 -0.7183
    6DOPE  C314  759   1.674   6.387  13.303 -0.3093  1.0470 -0.1140
    6DOPE  H14X  760   1.686   6.289  13.353  1.9790  0.6474 -1.2864
    6DOPE  H14Y  761   1.675   6.464  13.383 -2.9574  0.1665  0.8534
    6DOPE  C315  762   1.796   6.411  13.215  0.0146  0.2349 -0.3983
    6DOPE  H15X  763   1.781   6.510  13.167  0.2081  0.2251 -0.4805
    6DOPE  H15Y  764   1.793   6.329  13.140 -1.8833  0.9462 -1.1555
    6DOPE  C316  765   1.931   6.408  13.294 -0.0907  0.6726 -0.0192
    6DOPE  H16X  766   1.952   6.311  13.346  1.5068  0.3345 -1.2020
    6DOPE  H16Y  767   1.919   6.484  13.374  1.2456 -0.4396  1.3087
    6DOPE  C317  768   2.045   6.419  13.190 -1.1880 -0.7701 -0.2295
    6DOPE  H17X  769   2.132   6.365  13.233 -0.0528  1.7709  0.8805
    6DOPE  H17Y  770   2.012   6.368  13.097  1.1840  0.3789 -1.7795
    6DOPE  C318  771   2.086   6.568  13.169 -0.4346  0.5764  0.2594
    6DOPE  H18X  772   2.005   6.622  13.116  0.8584 -0.5215 -3.1248
    6DOPE  H18Y  773   2.109   6.609  13.270  0.7608 -1.0168  0.6947
    6DOPE  H18Z  774   2.178   6.576  13.107  2.3415  1.0768  4.0912
    7DOPE     N  775   4.447   7.140  14.312  0.9140  0.2540 -0.4645
    7DOPE   HN1  776   4.372   7.211  14.321 -1.2780 -1.8876 -0.5280
    7DOPE   HN2  777   4.405   7.052  14.350 -0.2417  1.4941  1.3184
    7DOPE   HN3  778   4.535   7.169  14.358  2.0306  0.4301 -2.6313
    7DOPE   C12  779   4.461   7.119  14.164 -0.1975 -0.1336  0.4574
    7DOPE  H12A  780   4.356   7.106  14.127 -0.1105 -2.1497  0.8239
    7DOPE  H12B  781   4.519   7.027  14.142  0.2364  0.3865 -0.6427
    7DOPE   C11  782   4.513   7.246  14.088 -0.3252 -0.4515  0.2613
    7DOPE  H11A  783   4.426   7.316  14.087 -0.5943 -0.7839 -0.8831
    7DOPE  H11B  784   4.531   7.222  13.982 -1.4820  1.1803 -0.3497
    7DOPE     P  785   4.766   7.248  14.116  0.0599 -0.3934  0.0707
    7DOPE   O13  786   4.776   7.110  14.169  0.2396  0.0407 -0.7624
    7DOPE   O14  787   4.861   7.340  14.174 -0.1114 -0.3918 -0.6733
    7DOPE   O11  788   4.770   7.252  13.962  0.5375  0.5753 -0.1448
    7DOPE   O12  789   4.625   7.306  14.153  0.0907 -0.2893  0.3260
    7DOPE    C1  790   4.881   7.195  13.892  0.5518  0.4317  0.1153
    7DOPE    HA  791   4.935   7.119  13.952  0.3639  0.0783 -0.1592
    7DOPE    HB  792   4.953   7.275  13.864  0.0810  1.1437  0.9070
    7DOPE    C2  793   4.832   7.125  13.761  0.1820  0.2852 -0.4771
    7DOPE    HS  794   4.923   7.079  13.717 -0.0806 -0.3539 -0.3669
    7DOPE   O21  795   4.778   7.233  13.684  0.1282  0.0107 -0.5275
    7DOPE   C21  796   4.827   7.237  13.557 -0.7634  0.2051 -0.3762
    7DOPE   O22  797   4.898   7.154  13.506  0.1704 -0.0809 -0.0459
    7DOPE   C22  798   4.778   7.357  13.482  0.5016 -0.4640 -0.1127
    7DOPE   H2R  799   4.813   7.440  13.548  1.2493 -1.0349  0.2209
    7DOPE   H2S  800   4.669   7.368  13.502  0.6247  1.2887 -0.2671
    7DOPE    C3  801   4.720   7.014  13.784  0.0006  0.1368  0.6922
    7DOPE    HX  802   4.631   7.073  13.818 -0.8069 -1.4073  1.3689
    7DOPE    HY  803   4.764   6.950  13.864  1.7314 -0.0507 -0.3608
    7DOPE   O31  804   4.698   6.942  13.662 -0.2401 -0.3633  0.3887
    7DOPE   C31  805   4.620   6.836  13.676 -0.6894 -0.2629 -0.1286
    7DOPE   O32  806   4.564   6.804  13.781 -0.3867  0.1626  0.2830
    7DOPE   C32  807   4.592   6.773  13.541  0.8399  0.5147  0.1726
    7DOPE   H2X  808   4.492   6.815  13.516  1.2741  0.8793 -1.0492
    7DOPE   H2Y  809   4.656   6.804  13.456  0.2606  1.0914 -0.0617
    7DOPE   C23  810   4.825   7.366  13.342 -0.0883  0.0749 -0.4274
    7DOPE   H3R  811   4.793   7.271  13.295  1.9476 -0.2125 -1.3024
    7DOPE   H3S  812   4.934   7.370  13.322  0.4204  0.8051  2.1241
    7DOPE   C24  813   4.766   7.477  13.255  0.0162  0.1026  0.0415
    7DOPE   H4R  814   4.779   7.569  13.316 -1.1527  1.0238 -1.0393
    7DOPE   H4S  815   4.656   7.477  13.236  0.0561 -0.7289 -0.2195
    7DOPE   C25  816   4.834   7.508  13.117 -0.0966 -0.4540 -0.0814
    7DOPE   H5R  817   4.845   7.403  13.081  2.9792 -0.6681  1.2543
    7DOPE   H5S  818   4.935   7.546  13.139 -0.3442  0.6239 -0.7537
    7DOPE   C26  819   4.766   7.603  13.025 -0.0072  0.1664 -0.2549
    7DOPE   H6R  820   4.748   7.692  13.089 -1.5397 -0.0360 -0.3448
    7DOPE   H6S  821   4.672   7.556  12.987  0.2236 -0.4063 -0.1286
    7DOPE   C27  822   4.848   7.652  12.902 -0.5405  0.6106 -0.0769
    7DOPE   H7R  823   4.947   7.692  12.932  0.2639 -0.7885 -0.7729
    7DOPE   H7S  824   4.795   7.736  12.852  0.8174  1.9354  0.6351
    7DOPE   C28  825   4.892   7.534  12.813 -0.0994 -0.4412  0.5895
    7DOPE   H8R  826   4.938   7.454  12.875 -0.5956 -2.3601 -1.4121
    7DOPE   H8S  827   4.983   7.564  12.757 -0.9944  0.8430 -0.2386
    7DOPE   C29  828   4.787   7.466  12.730  0.6237  0.3675 -0.0054
    7DOPE   H9R  829   4.736   7.383  12.781  0.8594 -1.4759 -2.6150
    7DOPE  C210  830   4.743   7.505  12.607  0.5842  0.3627  0.2007
    7DOPE  H10R  831   4.666   7.437  12.569  1.5463 -0.0828 -0.9987
    7DOPE  C211  832   4.794   7.621  12.522 -0.0427  0.5611  0.2354
    7DOPE  H11R  833   4.838   7.708  12.576 -0.4473  2.0976 -1.7718
    7DOPE  H11S  834   4.706   7.659  12.466 -1.2377  0.3795  1.8919
    7DOPE  C212  835   4.905   7.585  12.420  0.4170  0.5480 -0.7421
    7DOPE  H12R  836   4.906   7.666  12.344 -0.9891  2.1195  0.8535
    7DOPE  H12S  837   4.863   7.510  12.349  1.0319  2.2267 -3.0212
    7DOPE  C213  838   5.051   7.561  12.476 -0.2134  0.1678 -0.1912
    7DOPE  H13R  839   5.033   7.467  12.533 -2.2642 -1.1208 -2.7286
    7DOPE  H13S  840   5.082   7.650  12.534  0.1921  0.1317 -0.3514
    7DOPE  C214  841   5.159   7.553  12.362 -0.1006 -0.4968 -0.5215
    7DOPE  H14R  842   5.258   7.545  12.411  0.0027  0.3760 -0.5744
    7DOPE  H14S  843   5.162   7.646  12.302  0.2012 -0.0343  0.1944
    7DOPE  C215  844   5.140   7.435  12.268  0.3093  0.2755 -0.3971
    7DOPE  H15R  845   5.068   7.468  12.191 -1.6935  4.0248  2.7203
    7DOPE  H15S  846   5.089   7.353  12.324 -1.0628  0.2113 -1.6875
    7DOPE  C216  847   5.264   7.384  12.207 -0.6064  0.5432 -0.1954
    7DOPE  H16R  848   5.358   7.383  12.267 -0.1469 -0.7020 -0.9057
    7DOPE  H16S  849   5.305   7.450  12.128 -0.8258 -0.4742 -1.1864
    7DOPE  C217  850   5.254   7.245  12.148  0.7074  0.1022  0.2530
    7DOPE  H17R  851   5.157   7.230  12.095  0.5878 -1.0183  0.7557
    7DOPE  H17S  852   5.257   7.170  12.230  0.4561  0.2391  0.3933
    7DOPE  C218  853   5.369   7.223  12.055 -0.3646  0.1618  0.1570
    7DOPE  H18R  854   5.361   7.124  12.004  0.8864 -1.5506  3.0562
    7DOPE  H18S  855   5.469   7.229  12.102  0.9394 -2.7998 -1.9216
    7DOPE  H18T  856   5.366   7.299  11.974  1.1644 -0.8177 -0.8817
    7DOPE   C33  857   4.587   6.624  13.553 -0.0041  0.5441  0.2739
    7DOPE   H3X  858   4.596   6.569  13.457 -0.5539  0.0085  0.5228
    7DOPE   H3Y  859   4.489   6.606  13.600 -0.3284 -1.9443 -1.1526
    7DOPE   C34  860   4.701   6.559  13.631  0.3562 -0.1471 -0.6401
    7DOPE   H4X  861   4.803   6.586  13.596  0.4262  1.5465  0.6953
    7DOPE   H4Y  862   4.710   6.601  13.734 -1.5695 -0.2551 -0.3994
    7DOPE   C35  863   4.694   6.405  13.641 -0.1811 -0.5167  0.4048
    7DOPE   H5X  864   4.591   6.376  13.672 -0.3462 -0.9974 -0.5430
    7DOPE   H5Y  865   4.770   6.392  13.720 -1.4093 -0.4248  1.6304
    7DOPE   C36  866   4.749   6.331  13.518 -0.2722 -0.8099 -0.5077
    7DOPE   H6X  867   4.848   6.378  13.499 -0.5668  0.3485  0.6539
    7DOPE   H6Y  868   4.676   6.354  13.438  0.3783 -0.6133 -1.0527
    7DOPE   C37  869   4.777   6.174  13.532  0.1601  0.8385 -0.4506
    7DOPE   H7X  870   4.865   6.154  13.597 -1.0498  0.1002  1.0134
    7DOPE   H7Y  871   4.694   6.124  13.587  0.9957  2.2095  2.2499
    7DOPE   C38  872   4.784   6.102  13.387 -0.3991 -0.6544  0.8211
    7DOPE   H8X  873   4.687   6.127  13.338 -0.0656  0.8298  0.8884
    7DOPE   H8Y  874   4.789   5.991  13.390  1.5011 -0.8695 -3.4849
    7DOPE   C39  875   4.889   6.158  13.303 -0.4846 -0.8073 -0.2362
    7DOPE   H9X  876   4.986   6.106  13.313  1.5566  2.5715 -0.7454
    7DOPE  C310  877   4.884   6.250  13.210 -0.3878  0.2962 -0.1232
    7DOPE  H10X  878   4.983   6.273  13.167 -0.3452  0.0736 -0.1423
    7DOPE  C311  879   4.764   6.335  13.169  0.0885  0.4010 -0.9342
    7DOPE  H11X  880   4.669   6.306  13.219  1.1007 -1.1446  0.1754
    7DOPE  H11Y  881   4.795   6.441  13.184  2.5151 -0.4458  0.6974
    7DOPE  C312  882   4.746   6.320  13.020  0.0871 -0.0861 -0.1495
    7DOPE  H12X  883   4.747   6.212  12.993  2.7180  0.0772 -0.9466
    7DOPE  H12Y  884   4.826   6.371  12.962 -0.1131 -0.2176 -0.5460
    7DOPE  C313  885   4.607   6.363  12.976 -0.3106  0.0627 -0.7463
    7DOPE  H13X  886   4.521   6.310  13.021  0.6683  0.2374  1.4244
    7DOPE  H13Y  887   4.598   6.466  13.016 -1.5739 -0.3216 -0.0115
    7DOPE  C314  888   4.574   6.373  12.832 -0.3703 -0.4831  0.0028
    7DOPE  H14X  889   4.578   6.271  12.789 -0.7764  0.1484 -1.6345
    7DOPE  H14Y  890   4.648   6.435  12.777 -2.0033  1.2051 -0.4090
    7DOPE  C315  891   4.438   6.430  12.810 -0.0718  0.3478  0.4455
    7DOPE  H15X  892   4.365   6.387  12.882  0.5675 -0.6419  0.5192
    7DOPE  H15Y  893   4.398   6.405  12.709 -1.7143  1.4407  0.7943
    7DOPE  C316  894   4.427   6.587  12.812 -0.5802  0.6285  0.0101
    7DOPE  H16X  895   4.459   6.633  12.716 -1.6952  0.9986 -0.1956
    7DOPE  H16Y  896   4.495   6.621  12.893  0.5304  1.3404 -1.1667
    7DOPE  C317  897   4.287   6.640  12.840  0.4486  0.0298  0.3630
    7DOPE  H17X  898   4.221   6.628  12.752  0.3387  1.5759  0.2198
    7DOPE  H17Y  899   4.253   6.569  12.919 -2.1268  1.2737  0.5020
    7DOPE  C318  900   4.281   6.785  12.888 -0.7808 -0.1368  0.2071
    7DOPE  H18X  901   4.354   6.797  12.971 -1.2227 -1.3746  0.7886
    7DOPE  H18Y  902   4.288   6.853  12.799  1.2098  1.6684  1.6208
    7DOPE  H18Z  903   4.185   6.812  12.935 -0.0031  3.6970 -0.0356
    8DOPE     N  904   8.359   0.610  14.557 -0.0518  0.7460 -0.5074
    8DOPE   HN1  905   8.333   0.625  14.656 -0.0570  2.2302 -0.7020
    8DOPE   HN2  906   8.446   0.665  14.539  0.7714 -0.5536 -0.6073
    8DOPE   HN3  907   8.278   0.659  14.514  0.9319  2.4836 -0.4995
    8DOPE   C12  908   8.372   0.465  14.511 -0.0840 -0.0670  0.2341
    8DOPE  H12A  909   8.273   0.415  14.506  0.0918 -0.4590  0.5708
    8DOPE  H12B  910   8.436   0.416  14.588 -0.0363 -1.4656 -0.6666
    8DOPE   C11  911   8.430   0.468  14.376 -0.2714 -0.1960 -0.0367
    8DOPE  H11A  912   8.437   0.365  14.334  0.5556 -0.5673  0.9598
    8DOPE  H11B  913   8.536   0.502  14.385  0.0894 -1.1656 -0.4404
    8DOPE     P  914   8.412   0.591  14.148 -0.2554  0.3712  0.1319
    8DOPE   O13  915   8.549   0.646  14.160  0.1701  0.2975  0.4631
    8DOPE   O14  916   8.310   0.669  14.079  0.6499  0.2874  0.1174
    8DOPE   O11  917   8.419   0.449  14.077 -0.1518 -0.1231  0.1489
    8DOPE   O12  918   8.358   0.552  14.289  0.3439 -0.3719  0.1019
    8DOPE    C1  919   8.308   0.362  14.082 -0.3483  0.0943  0.7224
    8DOPE    HA  920   8.227   0.385  14.009  0.3869 -0.9498 -0.4641
    8DOPE    HB  921   8.261   0.364  14.183 -0.0540 -1.4477  0.9041
    8DOPE    C2  922   8.351   0.218  14.048 -0.5737 -0.4258  0.1849
    8DOPE    HS  923   8.418   0.190  14.132 -1.3829 -0.0550  0.9847
    8DOPE   O21  924   8.403   0.215  13.912 -0.7067  0.1420  0.1323
    8DOPE   C21  925   8.475   0.106  13.879 -0.0232  0.0805  0.2505
    8DOPE   O22  926   8.501   0.007  13.944  0.2894 -0.3954 -0.2658
    8DOPE   C22  927   8.543   0.122  13.743  0.3914 -0.1565 -0.0867
    8DOPE   H2R  928   8.643   0.073  13.748  0.4900 -0.3112 -2.4490
    8DOPE   H2S  929   8.558   0.229  13.720  2.2788 -0.4857 -0.5988
    8DOPE    C3  930   8.237   0.107  14.080 -0.1549  1.1465  0.2101
    8DOPE    HX  931   8.212   0.119  14.188 -0.2151 -0.8349  0.4693
    8DOPE    HY  932   8.295   0.014  14.060 -0.8830  0.9907 -1.2559
    8DOPE   O31  933   8.127   0.126  13.993  0.8435 -0.0719  0.0425
    8DOPE   C31  934   8.031   0.031  14.005 -0.2825  0.4947 -0.0242
    8DOPE   O32  935   8.034  -0.066  14.086  0.1912  0.0016 -0.4807
    8DOPE   C32  936   7.926   0.050  13.897 -0.3965 -1.0991  1.0512
    8DOPE   H2X  937   7.969  -0.006  13.811 -1.3991 -1.0080  0.4716
    8DOPE   H2Y  938   7.840  -0.013  13.927 -2.3632  0.9620  0.0342
    8DOPE   C23  939   8.479   0.034  13.628  0.6595  0.2332 -0.5244
    8DOPE   H3R  940   8.431  -0.056  13.671  0.1668 -0.1134 -1.7861
    8DOPE   H3S  941   8.564  -0.006  13.570  0.4187  1.8302 -2.0735
    8DOPE   C24  942   8.387   0.108  13.541  0.1666  0.3174  0.4890
    8DOPE   H4R  943   8.460   0.161  13.475 -0.9635  2.8245  1.1584
    8DOPE   H4S  944   8.328   0.178  13.603  0.0153  2.2892 -1.7398
    8DOPE   C25  945   8.303   0.018  13.457  0.5933  0.1149  0.8741
    8DOPE   H5R  946   8.223  -0.016  13.525  0.9898  0.7468  1.6828
    8DOPE   H5S  947   8.360  -0.063  13.406 -0.0602  1.3439 -2.0347
    8DOPE   C26  948   8.228   0.096  13.347 -0.4809  0.1102 -0.1753
    8DOPE   H6R  949   8.166   0.026  13.286  0.4243  0.6459 -1.7779
    8DOPE   H6S  950   8.302   0.142  13.278 -2.6075  2.2127 -1.1845
    8DOPE   C27  951   8.144   0.209  13.397  0.4932  0.2401  0.3994
    8DOPE   H7R  952   8.206   0.284  13.450  1.2295 -0.0825  0.0096
    8DOPE   H7S  953   8.069   0.174  13.472  0.6170 -3.4810 -0.9946
    8DOPE   C28  954   8.065   0.283  13.284  0.6158 -0.0007  0.3942
    8DOPE   H8R  955   7.988   0.213  13.246  1.9106 -0.8719 -0.7157
    8DOPE   H8S  956   8.142   0.296  13.204  0.6622  3.2728  0.8285
    8DOPE   C29  957   8.001   0.416  13.333 -0.2329 -0.3059  0.8115
    8DOPE   H9R  958   7.900   0.419  13.378 -0.1469 -2.2314  1.2276
    8DOPE  C210  959   8.046   0.540  13.292 -0.3753  0.8130 -0.6789
    8DOPE  H10R  960   7.986   0.624  13.328 -0.2839  0.4334  0.4322
    8DOPE  C211  961   8.162   0.569  13.198  0.5692  0.1529 -0.4400
    8DOPE  H11R  962   8.213   0.484  13.147 -0.1957 -1.0712  0.7784
    8DOPE  H11S  963   8.229   0.626  13.265  0.9387 -0.3571 -0.3734
    8DOPE  C212  964   8.109   0.649  13.078  0.2313 -0.1479 -0.0440
    8DOPE  H12R  965   8.199   0.679  13.020  1.1694  0.8360  1.8226
    8DOPE  H12S  966   8.071   0.747  13.114 -1.5421 -0.1647 -1.6737
    8DOPE  C213  967   8.017   0.569  12.985  0.4275 -0.2631  0.2686
    8DOPE  H13R  968   7.919   0.544  13.031  0.4984  0.8633  1.0748
    8DOPE  H13S  969   8.071   0.475  12.959 -0.0700 -0.1401 -1.2905
    8DOPE  C214  970   7.982   0.632  12.849  0.4966 -0.8414 -0.0281
    8DOPE  H14R  971   8.082   0.659  12.808 -0.5798  0.8481 -1.6657
    8DOPE  H14S  972   7.941   0.734  12.866  0.9156 -0.8343  1.0125
    8DOPE  C215  973   7.899   0.537  12.763  0.0397 -0.1284  0.0084
    8DOPE  H15R  974   7.820   0.475  12.812  1.1641 -2.2197 -0.6876
    8DOPE  H15S  975   7.969   0.465  12.715  0.3403  0.6567 -0.7493
    8DOPE  C216  976   7.829   0.613  12.655  0.2571 -0.4623  0.5016
    8DOPE  H16R  977   7.909   0.651  12.587 -1.1576  0.4701 -0.7135
    8DOPE  H16S  978   7.776   0.698  12.703  0.0594  0.5825 -1.4525
    8DOPE  C217  979   7.733   0.522  12.565 -0.3523  0.5761 -0.3568
    8DOPE  H17R  980   7.788   0.447  12.504  1.4523  1.1373  0.4943
    8DOPE  H17S  981   7.680   0.583  12.489 -1.2864  0.2772  0.0433
    8DOPE  C218  982   7.624   0.461  12.659  0.4798  0.5453  0.3649
    8DOPE  H18R  983   7.542   0.419  12.597  0.9880 -3.5633  2.1507
    8DOPE  H18S  984   7.580   0.539  12.725  1.1716  1.1615  0.1117
    8DOPE  H18T  985   7.666   0.371  12.709 -1.3900 -0.3879  0.3656
    8DOPE   C33  986   7.888   0.187  13.849 -0.1740 -0.1193  0.3525
    8DOPE   H3X  987   7.971   0.235  13.791 -1.2720  2.8322  1.0912
    8DOPE   H3Y  988   7.859   0.252  13.934  0.5311  1.0119 -0.2403
    8DOPE   C34  989   7.771   0.190  13.747  1.1108 -0.4467 -0.0690
    8DOPE   H4X  990   7.791   0.133  13.654 -0.0090  0.0033 -0.6159
    8DOPE   H4Y  991   7.682   0.146  13.799  0.7212  0.9946  0.5265
    8DOPE   C35  992   7.737   0.328  13.709 -0.0260  0.2120  0.1024
    8DOPE   H5X  993   7.828   0.388  13.686 -0.7617  2.1073  1.8632
    8DOPE   H5Y  994   7.678   0.376  13.790  0.3761  1.8157 -0.5115
    8DOPE   C36  995   7.644   0.339  13.586 -0.0903  0.0529  0.4059
    8DOPE   H6X  996   7.550   0.290  13.621  0.6443  0.3268  2.9536
    8DOPE   H6Y  997   7.688   0.277  13.504  0.7266  0.0385  0.8381
    8DOPE   C37  998   7.615   0.481  13.529 -0.0218  0.2209 -0.1736
    8DOPE   H7X  999   7.523   0.520  13.577  1.0013  0.1602  1.9440
    8DOPE   H7Y 1000   7.704   0.545  13.550  0.7483 -1.2535  1.2246
    8DOPE   C38 1001   7.589   0.493  13.379 -0.0146 -0.3884  0.4636
    8DOPE   H8X 1002   7.535   0.402  13.345  1.6316 -0.7332 -1.4915
    8DOPE   H8Y 1003   7.688   0.501  13.329 -0.8575  1.6830 -1.0042
    8DOPE   C39 1004   7.509   0.620  13.338  0.0249  0.2080  0.6082
    8DOPE   H9X 1005   7.415   0.632  13.396 -0.7559 -0.2341 -0.5368
    8DOPE  C310 1006   7.560   0.710  13.253  0.1928 -0.3539  0.0835
    8DOPE  H10X 1007   7.504   0.803  13.234  3.0820  1.8856  1.5351
    8DOPE  C311 1008   7.702   0.707  13.197  0.3592  0.1696 -0.5435
    8DOPE  H11X 1009   7.771   0.676  13.279 -0.7330  2.1296  1.2248
    8DOPE  H11Y 1010   7.718   0.642  13.108 -1.7280  0.0981 -0.9157
    8DOPE  C312 1011   7.757   0.843  13.165  0.2598 -1.3965  0.2020
    8DOPE  H12X 1012   7.704   0.897  13.084 -0.2442  0.7119  1.8605
    8DOPE  H12Y 1013   7.859   0.818  13.127  0.9098 -0.0790  1.0308
    8DOPE  C313 1014   7.781   0.938  13.283 -0.1605 -0.6922  0.9841
    8DOPE  H13X 1015   7.711   1.023  13.277  0.4703 -0.0096  2.5166
    8DOPE  H13Y 1016   7.775   0.877  13.376 -0.6073 -0.2961  1.2141
    8DOPE  C314 1017   7.922   1.000  13.285 -0.2308  0.0912 -0.7076
    8DOPE  H14X 1018   8.010   0.933  13.291 -1.2060 -1.1476  0.7780
    8DOPE  H14Y 1019   7.930   1.043  13.388 -0.7308  1.8746 -1.3849
    8DOPE  C315 1020   7.946   1.119  13.190  0.3861  0.6439  0.3163
    8DOPE  H15X 1021   7.861   1.191  13.195 -0.0387  0.3087 -1.5514
    8DOPE  H15Y 1022   7.937   1.083  13.085  1.2415  0.4390  0.3040
    8DOPE  C316 1023   8.088   1.175  13.196 -0.5518 -0.2329 -0.4518
    8DOPE  H16X 1024   8.109   1.254  13.120  0.2346  1.0315  1.0299
    8DOPE  H16Y 1025   8.154   1.088  13.180  0.6337  0.2584  1.5049
    8DOPE  C317 1026   8.128   1.248  13.323  0.7744  0.7836 -0.3118
    8DOPE  H17X 1027   8.099   1.199  13.419  1.5361 -0.7398 -0.8309
    8DOPE  H17Y 1028   8.239   1.251  13.328  0.7497  0.7687  0.3231
    8DOPE  C318 1029   8.089   1.396  13.321  1.0950  0.1365  0.1418
    8DOPE  H18X 1030   8.107   1.448  13.225 -1.0806  1.2199  0.2738
    8DOPE  H18Y 1031   8.134   1.455  13.404 -0.0554 -0.4587  1.2237
    8DOPE  H18Z 1032   7.979   1.398  13.329  1.0395  2.5723 -0.4255
    9DOPE     N 1033   1.322   4.901  14.251  0.2509  0.7620  0.2999
    9DOPE   HN1 1034   1.245   4.966  14.279 -0.9564 -0.3273 -0.3544
    9DOPE   HN2 1035   1.365   4.876  14.342  0.7539 -0.4596 -0.2528
    9DOPE   HN3 1036   1.391   4.930  14.179  0.9623 -1.5228  0.0008
    9DOPE   C12 1037   1.252   4.781  14.190 -0.9176 -0.7183  0.2377
    9DOPE  H12A 1038   1.198   4.736  14.276  0.1194  0.1860  1.4037
    9DOPE  H12B 1039   1.330   4.711  14.154  1.3794  0.8428  1.8785
    9DOPE   C11 1040   1.145   4.824  14.079 -0.5693  0.0434 -0.2278
    9DOPE  H11A 1041   1.093   4.735  14.038 -0.1437 -0.3826  0.1410
    9DOPE  H11B 1042   1.206   4.866  13.996 -1.0695  1.5743  0.1652
    9DOPE     P 1043   0.908   4.934  14.077 -0.2983  0.0288  0.0927
    9DOPE   O13 1044   0.839   5.059  14.126 -0.0576 -0.1927  0.7117
    9DOPE   O14 1045   0.838   4.809  14.104 -0.3340  0.3759  0.1118
    9DOPE   O11 1046   0.943   4.958  13.919 -0.5283  0.0480 -0.2855
    9DOPE   O12 1047   1.054   4.915  14.136 -0.4052  0.5543  0.6037
    9DOPE    C1 1048   0.822   4.986  13.845 -0.1921 -0.2212 -0.3124
    9DOPE    HA 1049   0.854   5.042  13.754 -0.1765  0.9221  0.3796
    9DOPE    HB 1050   0.751   5.049  13.904  3.5555  1.9645  2.3375
    9DOPE    C2 1051   0.759   4.863  13.792 -0.4829 -0.3357 -0.1026
    9DOPE    HS 1052   0.720   4.799  13.874 -3.3250  0.4089 -0.7368
    9DOPE   O21 1053   0.849   4.795  13.706 -0.3509  0.4071 -0.2749
    9DOPE   C21 1054   0.814   4.668  13.692  0.0347 -0.4682 -0.2087
    9DOPE   O22 1055   0.718   4.608  13.744  0.2729 -0.0944  0.1808
    9DOPE   C22 1056   0.909   4.610  13.583  0.0608  1.0927 -0.5445
    9DOPE   H2R 1057   0.978   4.546  13.641 -2.8600 -0.2161  1.7449
    9DOPE   H2S 1058   0.968   4.681  13.520  0.4207  2.4141  1.2140
    9DOPE    C3 1059   0.628   4.900  13.715  0.1587  0.1922  0.5383
    9DOPE    HX 1060   0.546   4.930  13.783 -0.5902 -0.4194 -0.0762
    9DOPE    HY 1061   0.584   4.805  13.680 -0.3125  0.5308  0.1868
    9DOPE   O31 1062   0.649   5.002  13.613 -0.5038  0.3523  0.3555
    9DOPE   C31 1063   0.665   4.949  13.486  1.2804 -0.5713 -0.0171
    9DOPE   O32 1064   0.616   4.847  13.448  0.1592  0.0995 -0.2027
    9DOPE   C32 1065   0.734   5.055  13.387 -0.5429 -0.1197 -0.9124
    9DOPE   H2X 1066   0.652   5.107  13.333 -1.7324  0.6277  1.4415
    9DOPE   H2Y 1067   0.778   5.132  13.453 -2.0802  1.6570 -1.8672
    9DOPE   C23 1068   0.834   4.509  13.485 -0.0554 -0.7102  0.3611
    9DOPE   H3R 1069   0.754   4.450  13.535 -1.2167 -0.5223 -1.1951
    9DOPE   H3S 1070   0.900   4.429  13.446  0.1151 -1.2747  1.7422
    9DOPE   C24 1071   0.773   4.570  13.357  0.3318 -0.2028 -0.0509
    9DOPE   H4R 1072   0.857   4.621  13.305  0.5884 -0.9791 -0.3961
    9DOPE   H4S 1073   0.710   4.655  13.391 -0.5726 -0.1108 -1.8363
    9DOPE   C25 1074   0.692   4.463  13.286  0.4259  0.1607  0.5264
    9DOPE   H5R 1075   0.614   4.424  13.355 -2.5180 -3.0457 -4.0447
    9DOPE   H5S 1076   0.756   4.376  13.258 -2.2703 -1.6642 -0.4086
    9DOPE   C26 1077   0.630   4.502  13.151  0.4608 -0.7211 -0.6454
    9DOPE   H6R 1078   0.571   4.595  13.169  0.4916 -0.3010 -2.5187
    9DOPE   H6S 1079   0.556   4.425  13.120 -1.0867  0.4349  0.0195
    9DOPE   C27 1080   0.736   4.511  13.044  0.4853  0.5281  0.1632
    9DOPE   H7R 1081   0.813   4.431  13.052 -0.7656 -0.8978 -1.5273
    9DOPE   H7S 1082   0.796   4.605  13.046 -0.0187  0.9718 -2.3349
    9DOPE   C28 1083   0.670   4.507  12.908 -0.1985  0.4283  0.5740
    9DOPE   H8R 1084   0.604   4.593  12.882 -0.7767 -0.3835 -0.7326
    9DOPE   H8S 1085   0.604   4.418  12.910  1.1158 -0.5754  0.1779
    9DOPE   C29 1086   0.776   4.496  12.804 -0.0408 -0.3241  0.0861
    9DOPE   H9R 1087   0.860   4.565  12.820 -0.4223 -0.1753  1.6255
    9DOPE  C210 1088   0.791   4.409  12.705  0.7510 -0.0697  0.0230
    9DOPE  H10R 1089   0.876   4.417  12.637  0.5712 -0.2435 -0.2255
    9DOPE  C211 1090   0.692   4.298  12.679 -0.0927  0.0985 -0.6755
    9DOPE  H11R 1091   0.644   4.261  12.773  0.2543 -4.7253 -2.0964
    9DOPE  H11S 1092   0.738   4.206  12.637 -1.5806 -1.8780  1.7114
    9DOPE  C212 1093   0.579   4.335  12.584  0.0623 -0.3853  0.2170
    9DOPE  H12R 1094   0.513   4.406  12.638 -0.7691 -1.1029  0.1654
    9DOPE  H12S 1095   0.531   4.238  12.558  2.7480 -2.2268  1.6034
    9DOPE  C213 1096   0.621   4.387  12.444 -0.1765 -0.4857  0.0214
    9DOPE  H13R 1097   0.715   4.335  12.417 -0.8116 -1.5978 -0.1363
    9DOPE  H13S 1098   0.644   4.496  12.450  1.8615 -0.8246 -0.8272
    9DOPE  C214 1099   0.515   4.353  12.345  0.5332 -0.4403 -0.3123
    9DOPE  H14R 1100   0.418   4.396  12.379  0.2440 -0.0507 -1.5622
    9DOPE  H14S 1101   0.504   4.244  12.327  1.2301 -0.8066  1.3022
    9DOPE  C215 1102   0.544   4.418  12.215 -0.4297  0.1307  0.7901
    9DOPE  H15R 1103   0.581   4.522  12.227  1.8297 -0.3643 -1.1174
    9DOPE  H15S 1104   0.454   4.429  12.151 -0.1869 -0.0665  0.4118
    9DOPE  C216 1105   0.648   4.335  12.135  0.0500 -0.9422 -0.2320
    9DOPE  H16R 1106   0.615   4.234  12.102  1.7471 -0.7939 -2.6038
    9DOPE  H16S 1107   0.745   4.343  12.187  0.2319 -1.4175 -0.4945
    9DOPE  C217 1108   0.664   4.401  11.996 -0.0915 -0.2400 -0.0132
    9DOPE  H17R 1109   0.657   4.511  12.012  1.9304  0.1142 -1.2422
    9DOPE  H17S 1110   0.571   4.377  11.942  0.7356 -2.6486 -0.4605
    9DOPE  C218 1111   0.793   4.375  11.914 -1.1568 -0.7527 -0.6339
    9DOPE  H18R 1112   0.849   4.289  11.956 -0.8969 -0.7227 -0.9185
    9DOPE  H18S 1113   0.851   4.469  11.926  0.2193 -1.3831 -2.0109
    9DOPE  H18T 1114   0.770   4.357  11.807 -2.2994  0.7048 -0.6544
    9DOPE   C33 1115   0.862   5.014  13.311 -0.0083 -0.0357 -0.3086
    9DOPE   H3X 1116   0.938   4.962  13.372 -0.4454  0.8132  1.0068
    9DOPE   H3Y 1117   0.910   5.109  13.280  0.4877 -0.0858  0.2896
    9DOPE   C34 1118   0.826   4.927  13.184 -0.2460 -0.2021  0.3578
    9DOPE   H4X 1119   0.921   4.922  13.126 -1.7864 -1.8521 -2.2070
    9DOPE   H4Y 1120   0.792   4.829  13.223  0.4768 -0.0678  1.3654
    9DOPE   C35 1121   0.726   5.000  13.090 -0.0570  0.3195 -1.0974
    9DOPE   H5X 1122   0.765   5.101  13.066 -0.3494  0.1734 -2.2377
    9DOPE   H5Y 1123   0.626   5.003  13.138  0.5572 -1.1014  0.3605
    9DOPE   C36 1124   0.712   4.913  12.959  0.1037 -0.7517  0.2094
    9DOPE   H6X 1125   0.664   4.813  12.960 -1.7498  0.0058 -1.9819
    9DOPE   H6Y 1126   0.816   4.900  12.923  0.5028 -0.5856  1.2696
    9DOPE   C37 1127   0.637   4.993  12.848  0.7538  0.4395  0.8439
    9DOPE   H7X 1128   0.527   4.988  12.853  0.6664  1.1881 -0.1136
    9DOPE   H7Y 1129   0.649   5.102  12.870  1.5598  0.6016 -0.3149
    9DOPE   C38 1130   0.674   4.958  12.705  0.1682  0.5650  0.3710
    9DOPE   H8X 1131   0.783   4.954  12.688  0.0512  0.4177 -0.4206
    9DOPE   H8Y 1132   0.653   5.039  12.631  2.9505  1.5331  0.5183
    9DOPE   C39 1133   0.612   4.830  12.662  0.2345 -0.0344 -0.0011
    9DOPE   H9X 1134   0.661   4.743  12.709  1.3685  0.9749  0.7401
    9DOPE  C310 1135   0.525   4.807  12.568  0.2485 -0.1608  0.6366
    9DOPE  H10X 1136   0.493   4.704  12.549  0.0836 -0.4795  2.5121
    9DOPE  C311 1137   0.468   4.910  12.473 -0.0872  0.2354 -0.0613
    9DOPE  H11X 1138   0.362   4.916  12.506  0.4664  0.8115  1.6951
    9DOPE  H11Y 1139   0.510   5.012  12.488 -0.9400  0.6677 -0.4998
    9DOPE  C312 1140   0.491   4.881  12.324 -0.3723 -0.3837  0.3547
    9DOPE  H12X 1141   0.427   4.954  12.269 -1.9709 -2.9075 -1.3901
    9DOPE  H12Y 1142   0.452   4.782  12.292  2.0482 -1.2406 -0.0877
    9DOPE  C313 1143   0.641   4.874  12.284  0.9110  0.4910  0.1544
    9DOPE  H13X 1144   0.692   4.969  12.310  0.8437 -0.2560  3.5517
    9DOPE  H13Y 1145   0.698   4.794  12.337  1.4561 -0.9109 -2.3801
    9DOPE  C314 1146   0.654   4.846  12.132  0.3674 -0.0110 -0.6471
    9DOPE  H14X 1147   0.566   4.803  12.080  2.4155 -3.3207 -1.6754
    9DOPE  H14Y 1148   0.735   4.771  12.122  0.2094 -0.3043  0.2043
    9DOPE  C315 1149   0.685   4.972  12.036 -0.2086 -0.4887 -0.1562
    9DOPE  H15X 1150   0.710   4.929  11.936 -1.0493  0.3549 -0.7472
    9DOPE  H15Y 1151   0.770   5.030  12.077  0.6285 -0.8124 -1.3583
    9DOPE  C316 1152   0.564   5.068  12.024 -0.1291  0.4241  0.7621
    9DOPE  H16X 1153   0.523   5.092  12.124  0.9039 -1.3230  1.6654
    9DOPE  H16Y 1154   0.493   4.994  11.980  2.0699 -2.2648  1.4159
    9DOPE  C317 1155   0.599   5.201  11.948 -0.1611  0.3026  1.2581
    9DOPE  H17X 1156   0.521   5.279  11.943 -0.6745 -0.2086 -2.9369
    9DOPE  H17Y 1157   0.683   5.239  12.008  0.4925 -0.9055  1.1479
    9DOPE  C318 1158   0.642   5.178  11.797  0.0729  0.2899  0.6386
    9DOPE  H18X 1159   0.712   5.092  11.791 -2.2279 -1.7281  1.0464
    9DOPE  H18Y 1160   0.549   5.146  11.746 -1.0652  0.2827  2.6107
    9DOPE  H18Z 1161   0.679   5.270  11.747 -0.9387  0.5188  0.2842
   10DOPE     N 1162   3.319   5.459  14.105 -0.8135 -0.2270 -0.7800
   10DOPE   HN1 1163   3.291   5.539  14.044 -0.0026  1.7140  1.2593
   10DOPE   HN2 1164   3.342   5.385  14.037 -0.7413 -0.2599 -0.7193
   10DOPE   HN3 1165   3.242   5.438  14.172 -0.6719 -0.3973 -0.6683
   10DOPE   C12 1166   3.432   5.510  14.193 -0.3070  0.3299 -0.6658
   10DOPE  H12A 1167   3.513   5.555  14.131  0.5111 -0.4393 -0.1807
   10DOPE  H12B 1168   3.477   5.422  14.244 -1.2296  0.2494  0.0269
   10DOPE   C11 1169   3.375   5.610  14.288  0.6599  0.8848  0.1482
   10DOPE  H11A 1170   3.459   5.643  14.353 -0.9308  3.2378  1.1629
   10DOPE  H11B 1171   3.296   5.555  14.344  0.7769  0.5699  0.0033
   10DOPE     P 1172   3.386   5.852  14.213  0.4508 -0.0458  0.5891
   10DOPE   O13 1173   3.528   5.817  14.185 -0.1912  0.2815  0.1566
   10DOPE   O14 1174   3.352   5.945  14.321 -0.0306  0.8299 -0.1648
   10DOPE   O11 1175   3.324   5.921  14.089  0.0304  0.1250  0.1980
   10DOPE   O12 1176   3.306   5.718  14.225  0.4087 -0.1889 -0.3742
   10DOPE    C1 1177   3.191   5.963  14.092  0.1375  0.4294  0.7957
   10DOPE    HA 1178   3.186   6.041  14.013  0.1454 -0.3293  0.0421
   10DOPE    HB 1179   3.164   6.019  14.185  0.4350  1.4385  0.2912
   10DOPE    C2 1180   3.085   5.850  14.053  0.4344 -0.3553 -0.4104
   10DOPE    HS 1181   3.103   5.763  14.120 -0.9369 -0.1930  0.2129
   10DOPE   O21 1182   3.077   5.814  13.910  0.3912 -0.3183  0.3434
   10DOPE   C21 1183   3.174   5.719  13.871 -0.1033  0.0271  0.1662
   10DOPE   O22 1184   3.253   5.667  13.941 -0.0592  0.5134 -0.3317
   10DOPE   C22 1185   3.162   5.697  13.723  0.2036 -0.4341 -0.0753
   10DOPE   H2R 1186   3.261   5.733  13.689 -0.9413  3.1368 -0.0184
   10DOPE   H2S 1187   3.089   5.775  13.693  0.3022 -0.7701 -1.2226
   10DOPE    C3 1188   2.938   5.884  14.094  0.3298  0.3140 -0.1378
   10DOPE    HX 1189   2.941   5.923  14.198  1.2485 -1.3774  0.5068
   10DOPE    HY 1190   2.879   5.789  14.100  0.1891  0.3591 -0.7341
   10DOPE   O31 1191   2.874   5.981  14.007  0.9702  0.2482 -0.0930
   10DOPE   C31 1192   2.877   6.104  14.044 -0.2050 -0.0332 -0.4619
   10DOPE   O32 1193   2.938   6.164  14.132 -0.1292  0.0127 -0.1682
   10DOPE   C32 1194   2.796   6.173  13.939  0.4679 -0.0907  0.9167
   10DOPE   H2X 1195   2.735   6.099  13.883 -0.2943 -0.8944  2.7236
   10DOPE   H2Y 1196   2.709   6.230  13.979  0.9702  1.4145 -0.0149
   10DOPE   C23 1197   3.144   5.552  13.678 -0.9169  0.2788  0.0628
   10DOPE   H3R 1198   3.043   5.519  13.711 -0.1008 -1.7410  0.7115
   10DOPE   H3S 1199   3.221   5.486  13.723 -0.4275  1.7436  1.4756
   10DOPE   C24 1200   3.138   5.539  13.526 -0.2436  0.5987  0.1984
   10DOPE   H4R 1201   3.165   5.435  13.498  0.5239  0.5837  0.9350
   10DOPE   H4S 1202   3.206   5.608  13.471 -0.9621  1.2731  0.1355
   10DOPE   C25 1203   3.002   5.572  13.458  0.1826  0.4343  0.2493
   10DOPE   H5R 1204   2.975   5.671  13.501 -0.4848 -0.2236  1.4145
   10DOPE   H5S 1205   2.914   5.509  13.484  1.2712  0.1324  3.6821
   10DOPE   C26 1206   3.010   5.561  13.309  0.2904  0.0317 -0.3088
   10DOPE   H6R 1207   3.051   5.459  13.293 -0.8404 -0.6152  0.7669
   10DOPE   H6S 1208   3.085   5.640  13.284 -1.4702  2.8406  2.4431
   10DOPE   C27 1209   2.881   5.578  13.230  0.1226 -0.0204 -0.3762
   10DOPE   H7R 1210   2.918   5.620  13.133 -1.1782 -1.9859 -1.7882
   10DOPE   H7S 1211   2.814   5.657  13.269 -1.1634 -1.2091 -0.1242
   10DOPE   C28 1212   2.806   5.451  13.194 -0.6592  0.0209 -0.1865
   10DOPE   H8R 1213   2.698   5.470  13.173 -0.6874 -1.9332 -2.2004
   10DOPE   H8S 1214   2.806   5.395  13.289 -0.0421 -0.1408 -0.2765
   10DOPE   C29 1215   2.883   5.380  13.083  0.2797  0.0879 -0.1203
   10DOPE   H9R 1216   2.992   5.392  13.084  0.1709  1.6265 -1.8037
   10DOPE  C210 1217   2.824   5.324  12.977 -0.4748  0.8076  0.1977
   10DOPE  H10R 1218   2.889   5.281  12.899 -0.2802  0.3256  0.6218
   10DOPE  C211 1219   2.677   5.308  12.959 -0.3711  0.3481 -0.4996
   10DOPE  H11R 1220   2.615   5.378  13.019 -0.1400  0.7057 -0.6755
   10DOPE  H11S 1221   2.667   5.203  12.993  1.4935 -0.1891 -1.4492
   10DOPE  C212 1222   2.620   5.313  12.816  0.5011 -0.6458 -0.0400
   10DOPE  H12R 1223   2.510   5.302  12.827  0.2253 -0.9547 -2.5752
   10DOPE  H12S 1224   2.659   5.229  12.755 -0.4621  0.2261 -1.9427
   10DOPE  C213 1225   2.645   5.443  12.752 -0.0857 -0.0733  0.3246
   10DOPE  H13R 1226   2.653   5.518  12.833  2.2684 -0.7413  0.8118
   10DOPE  H13S 1227   2.550   5.468  12.701 -0.6765  0.7075  1.7530
   10DOPE  C214 1228   2.760   5.452  12.653 -0.0891 -0.1108 -0.0025
   10DOPE  H14R 1229   2.732   5.382  12.571 -0.6389 -1.8716  1.6233
   10DOPE  H14S 1230   2.854   5.416  12.699 -0.5053 -1.2228 -0.0008
   10DOPE  C215 1231   2.768   5.601  12.602  0.1537 -0.0685 -0.9036
   10DOPE  H15R 1232   2.662   5.632  12.590 -0.2001 -0.8260  0.1391
   10DOPE  H15S 1233   2.826   5.602  12.507  1.5033 -2.1161 -0.1629
   10DOPE  C216 1234   2.836   5.699  12.705  0.1584  0.2687 -0.0239
   10DOPE  H16R 1235   2.944   5.674  12.707  0.2502 -0.5264 -4.1181
   10DOPE  H16S 1236   2.787   5.671  12.800  0.9209 -1.3820 -0.0924
   10DOPE  C217 1237   2.808   5.843  12.660 -0.2571  0.3079  0.0202
   10DOPE  H17R 1238   2.707   5.855  12.616 -0.6071 -0.2459  0.6560
   10DOPE  H17S 1239   2.872   5.848  12.569 -0.5781 -0.5296 -0.2577
   10DOPE  C218 1240   2.855   5.954  12.756 -0.8924  0.5504  0.6922
   10DOPE  H18R 1241   2.964   5.942  12.774 -0.5571  1.0271 -0.9003
   10DOPE  H18S 1242   2.802   5.945  12.853 -2.7291  0.3235 -0.2827
   10DOPE  H18T 1243   2.851   6.055  12.709  2.2764  0.8417  0.8249
   10DOPE   C33 1244   2.878   6.268  13.856  0.6323  0.2746 -0.1630
   10DOPE   H3X 1245   2.956   6.213  13.797 -0.6113  1.6566 -3.3335
   10DOPE   H3Y 1246   2.918   6.350  13.918 -1.5125  0.6933  0.7474
   10DOPE   C34 1247   2.780   6.333  13.754 -0.9392  1.2300 -0.1374
   10DOPE   H4X 1248   2.693   6.271  13.724 -0.0704 -0.1212  0.0167
   10DOPE   H4Y 1249   2.749   6.431  13.796 -1.1635  1.6966 -1.3668
   10DOPE   C35 1250   2.856   6.365  13.618  0.0613  0.6119 -0.5515
   10DOPE   H5X 1251   2.874   6.264  13.575 -0.6660 -0.4339  1.4770
   10DOPE   H5Y 1252   2.955   6.412  13.637  0.5098  0.1401 -1.6055
   10DOPE   C36 1253   2.773   6.451  13.520 -0.5805  0.0842  0.5432
   10DOPE   H6X 1254   2.665   6.425  13.520 -0.9259  1.4370  0.7525
   10DOPE   H6Y 1255   2.814   6.430  13.419 -0.2119 -3.9159  1.3652
   10DOPE   C37 1256   2.792   6.601  13.546  0.0379  0.4104  0.4493
   10DOPE   H7X 1257   2.745   6.625  13.643  2.0455  1.6992  1.1570
   10DOPE   H7Y 1258   2.901   6.617  13.556 -0.2262  1.0245  3.0626
   10DOPE   C38 1259   2.746   6.686  13.425  1.6542  0.4874  0.0376
   10DOPE   H8X 1260   2.789   6.639  13.334  0.2788 -0.9460  0.0788
   10DOPE   H8Y 1261   2.785   6.789  13.435  0.9955  0.7085  0.4340
   10DOPE   C39 1262   2.596   6.695  13.431  0.6387  0.1631  0.0006
   10DOPE   H9X 1263   2.551   6.609  13.484  1.7800 -0.2333  0.3452
   10DOPE  C310 1264   2.511   6.790  13.397  0.2235 -0.0925  0.4165
   10DOPE  H10X 1265   2.402   6.776  13.392  0.0938  1.2248 -0.9788
   10DOPE  C311 1266   2.550   6.912  13.316  0.2952 -0.4882  1.1621
   10DOPE  H11X 1267   2.652   6.901  13.273 -0.0289  0.6902  0.0417
   10DOPE  H11Y 1268   2.474   6.916  13.235  0.8482 -0.6564  0.6332
   10DOPE  C312 1269   2.529   7.037  13.407  0.0417 -0.8839 -0.2226
   10DOPE  H12X 1270   2.611   7.044  13.482  0.9653  1.3197 -1.3472
   10DOPE  H12Y 1271   2.428   7.022  13.451 -0.2560  0.9815 -0.1955
   10DOPE  C313 1272   2.530   7.168  13.317  0.5086 -0.1447 -0.2882
   10DOPE  H13X 1273   2.628   7.168  13.265  0.5140  1.1712 -0.3181
   10DOPE  H13Y 1274   2.449   7.174  13.241 -1.1689 -3.5165  1.0281
   10DOPE  C314 1275   2.547   7.292  13.399 -0.4413 -0.4522  0.2197
   10DOPE  H14X 1276   2.642   7.288  13.457 -0.4523  3.5698  0.7789
   10DOPE  H14Y 1277   2.459   7.293  13.467 -0.1495  0.0024  0.6001
   10DOPE  C315 1278   2.552   7.423  13.313 -0.1002  0.3929 -0.1183
   10DOPE  H15X 1279   2.469   7.411  13.239  1.5173 -1.8806 -1.7050
   10DOPE  H15Y 1280   2.649   7.419  13.259  0.3328 -0.3094  0.6845
   10DOPE  C316 1281   2.517   7.545  13.393 -0.5685 -0.1212 -0.2895
   10DOPE  H16X 1282   2.420   7.527  13.444 -1.3606  0.3282 -1.5871
   10DOPE  H16Y 1283   2.516   7.633  13.325  1.2438  0.9412  0.9494
   10DOPE  C317 1284   2.634   7.594  13.485  0.5877  0.0957  0.5922
   10DOPE  H17X 1285   2.600   7.661  13.567 -2.9551  1.4479 -1.7357
   10DOPE  H17Y 1286   2.677   7.503  13.531  0.4773 -1.0642 -1.4720
   10DOPE  C318 1287   2.741   7.675  13.405 -0.1521 -0.5042 -0.2966
   10DOPE  H18X 1288   2.748   7.618  13.310 -1.5935 -0.7026 -0.2923
   10DOPE  H18Y 1289   2.699   7.771  13.369  0.0187 -1.4336 -3.2864
   10DOPE  H18Z 1290   2.836   7.692  13.461  0.5889 -0.6494 -1.4614
   11DOPE     N 1291   1.359   2.938  14.094  0.2292 -0.0296 -0.0178
   11DOPE   HN1 1292   1.381   2.940  14.196 -0.9256 -0.2666  0.2416
   11DOPE   HN2 1293   1.312   2.847  14.081  1.1625 -0.3925 -0.9661
   11DOPE   HN3 1294   1.440   2.950  14.030 -0.3021 -1.2122 -0.9329
   11DOPE   C12 1295   1.257   3.051  14.090  0.4321 -0.0193 -0.1080
   11DOPE  H12A 1296   1.182   3.031  14.170  1.9101  1.3042  1.7144
   11DOPE  H12B 1297   1.218   3.043  13.987 -1.0168  0.1810  0.3949
   11DOPE   C11 1298   1.323   3.188  14.116  0.4067  0.4098  0.3439
   11DOPE  H11A 1299   1.375   3.184  14.213 -1.3626 -0.6591  1.3025
   11DOPE  H11B 1300   1.246   3.268  14.123  0.6336  0.5799  0.9471
   11DOPE     P 1301   1.394   3.288  13.876  0.3860 -0.1910  0.0241
   11DOPE   O13 1302   1.333   3.182  13.796  0.3003  0.2340 -0.3173
   11DOPE   O14 1303   1.515   3.352  13.826 -0.4708 -0.2451 -0.1162
   11DOPE   O11 1304   1.276   3.399  13.899  0.0779 -0.2340  0.6693
   11DOPE   O12 1305   1.421   3.216  14.018  0.4388  0.4605  0.1768
   11DOPE    C1 1306   1.193   3.435  13.788 -0.0723  0.0142 -0.4463
   11DOPE    HA 1307   1.094   3.469  13.828  1.0958  1.3158  1.4969
   11DOPE    HB 1308   1.170   3.348  13.724 -0.5718 -1.5622  1.7407
   11DOPE    C2 1309   1.243   3.553  13.697 -0.2131  0.0648  0.0522
   11DOPE    HS 1310   1.161   3.581  13.628  0.0722  0.1049 -0.2687
   11DOPE   O21 1311   1.363   3.513  13.628 -0.5448 -0.0034 -0.2950
   11DOPE   C21 1312   1.351   3.419  13.538 -0.7204 -0.1184  0.1533
   11DOPE   O22 1313   1.250   3.368  13.491 -0.1571 -0.1484  0.8056
   11DOPE   C22 1314   1.497   3.389  13.481 -0.1645  0.1615 -0.6089
   11DOPE   H2R 1315   1.492   3.303  13.410  3.5587  0.0474 -0.9227
   11DOPE   H2S 1316   1.554   3.352  13.569 -0.9613  0.2138 -0.0556
   11DOPE    C3 1317   1.279   3.671  13.794 -0.0264  0.3962 -0.3633
   11DOPE    HX 1318   1.371   3.642  13.848  1.0069  0.6998 -1.8702
   11DOPE    HY 1319   1.198   3.677  13.869  1.3420 -0.3910  1.2268
   11DOPE   O31 1320   1.278   3.800  13.722 -0.1409 -0.1491  0.3800
   11DOPE   C31 1321   1.385   3.835  13.661  0.7825 -0.1783 -0.9077
   11DOPE   O32 1322   1.495   3.781  13.662 -0.5888 -0.3060 -0.0809
   11DOPE   C32 1323   1.360   3.978  13.609 -0.0667  0.2968 -0.5017
   11DOPE   H2X 1324   1.276   4.028  13.662  0.3513 -0.5427  1.0175
   11DOPE   H2Y 1325   1.454   4.032  13.635  1.1343 -2.6403  1.8717
   11DOPE   C23 1326   1.559   3.501  13.403 -0.1026 -0.3182  0.2094
   11DOPE   H3R 1327   1.666   3.488  13.375  0.0218  2.4161 -0.9221
   11DOPE   H3S 1328   1.565   3.595  13.462  0.1156  0.5705 -1.1946
   11DOPE   C24 1329   1.497   3.531  13.265  0.2433  0.6386 -0.4265
   11DOPE   H4R 1330   1.532   3.630  13.231  0.4768  1.0919  1.0402
   11DOPE   H4S 1331   1.390   3.554  13.285 -0.7518 -3.5666  0.0896
   11DOPE   C25 1332   1.519   3.421  13.157  0.0200 -0.5550 -0.0210
   11DOPE   H5R 1333   1.446   3.339  13.168  1.1967 -1.7840 -1.0609
   11DOPE   H5S 1334   1.619   3.378  13.179 -0.3288 -0.7718  1.2243
   11DOPE   C26 1335   1.509   3.479  13.013  0.3999 -0.5870 -0.4986
   11DOPE   H6R 1336   1.434   3.560  13.003  0.7103 -0.1455  0.6190
   11DOPE   H6S 1337   1.481   3.410  12.931  0.2586  1.3052 -2.1289
   11DOPE   C27 1338   1.644   3.542  12.964 -0.4173 -0.1213  0.0111
   11DOPE   H7R 1339   1.728   3.470  12.977  0.1225  0.5935  0.4911
   11DOPE   H7S 1340   1.671   3.628  13.028  0.3845 -1.7023  1.9014
   11DOPE   C28 1341   1.642   3.573  12.815  0.2598  0.4217  0.3452
   11DOPE   H8R 1342   1.583   3.492  12.770 -1.4024  1.5747  0.3696
   11DOPE   H8S 1343   1.745   3.559  12.775 -0.2372  0.0297 -0.8136
   11DOPE   C29 1344   1.576   3.708  12.787 -0.7103  0.2183 -0.1762
   11DOPE   H9R 1345   1.602   3.789  12.856 -0.2481  0.3052 -0.4485
   11DOPE  C210 1346   1.482   3.732  12.691 -0.0252  0.1014 -0.6784
   11DOPE  H10R 1347   1.441   3.833  12.675 -0.2098  0.0576 -0.4807
   11DOPE  C211 1348   1.427   3.630  12.596  0.3389  0.2889  0.0225
   11DOPE  H11R 1349   1.338   3.676  12.547  1.2401  2.0491 -0.0235
   11DOPE  H11S 1350   1.396   3.539  12.651  0.3862  0.4850  0.3764
   11DOPE  C212 1351   1.520   3.599  12.480 -0.2177  0.0481  0.5159
   11DOPE  H12R 1352   1.622   3.576  12.518  0.8706  0.8619 -1.7418
   11DOPE  H12S 1353   1.518   3.695  12.424 -2.3153 -1.2642 -1.8722
   11DOPE  C213 1354   1.465   3.494  12.377  0.0378  0.0871  0.2380
   11DOPE  H13R 1355   1.537   3.492  12.292  0.7936  0.8200  0.8580
   11DOPE  H13S 1356   1.361   3.511  12.341  0.4639 -0.9565 -1.6234
   11DOPE  C214 1357   1.460   3.356  12.443  0.4147 -0.2220  0.0464
   11DOPE  H14R 1358   1.360   3.352  12.491 -0.0631 -1.3629 -0.9783
   11DOPE  H14S 1359   1.545   3.354  12.515  0.3015  0.5058  0.2100
   11DOPE  C215 1360   1.462   3.233  12.349 -0.3496 -0.5655 -0.0894
   11DOPE  H15R 1361   1.383   3.249  12.272  0.0063 -0.0622 -0.3552
   11DOPE  H15S 1362   1.431   3.140  12.403  0.4526 -0.1212  1.1688
   11DOPE  C216 1363   1.591   3.200  12.271 -0.1863  0.0123 -0.1275
   11DOPE  H16R 1364   1.676   3.190  12.342 -0.0184  3.8863  0.4186
   11DOPE  H16S 1365   1.616   3.289  12.209  1.8991  0.5131  1.3420
   11DOPE  C217 1366   1.573   3.078  12.173 -0.1769 -1.0479 -0.5846
   11DOPE  H17R 1367   1.671   3.067  12.122  0.7508 -0.2866  0.9725
   11DOPE  H17S 1368   1.499   3.114  12.098 -0.1983 -0.0247 -0.0848
   11DOPE  C218 1369   1.526   2.963  12.247  0.1260 -0.2626  0.4931
   11DOPE  H18R 1370   1.420   2.968  12.280  0.8020 -1.5750  3.0984
   11DOPE  H18S 1371   1.598   2.949  12.330  1.7523 -1.6081 -1.0499
   11DOPE  H18T 1372   1.528   2.878  12.176  1.7631  1.9465 -2.3312
   11DOPE   C33 1373   1.324   3.973  13.462 -0.0480  0.3868 -0.2315
   11DOPE   H3X 1374   1.307   4.077  13.426  2.0292  0.9838  0.3662
   11DOPE   H3Y 1375   1.233   3.910  13.449 -0.1045 -0.0447  1.8521
   11DOPE   C34 1376   1.436   3.907  13.380 -0.1331 -0.5260  0.4327
   11DOPE   H4X 1377   1.530   3.953  13.417  0.5346 -0.3317 -1.3757
   11DOPE   H4Y 1378   1.455   3.798  13.392 -0.0029 -0.2707  3.2230
   11DOPE   C35 1379   1.417   3.942  13.224 -0.1501  0.5430 -0.2252
   11DOPE   H5X 1380   1.514   3.942  13.171 -0.9028  0.5960 -1.6520
   11DOPE   H5Y 1381   1.374   4.045  13.221  0.5986  0.8612 -0.2109
   11DOPE   C36 1382   1.335   3.843  13.144  0.5146 -0.3496  0.4927
   11DOPE   H6X 1383   1.253   3.803  13.208 -1.1057  0.7681 -0.7927
   11DOPE   H6Y 1384   1.397   3.755  13.120  0.2265 -0.0394 -1.5792
   11DOPE   C37 1385   1.281   3.903  13.015 -0.1578 -0.0596  0.1882
   11DOPE   H7X 1386   1.233   4.000  13.043  1.3620  0.5677  0.7403
   11DOPE   H7Y 1387   1.372   3.930  12.958 -0.0536  0.4671  0.5911
   11DOPE   C38 1388   1.180   3.817  12.934 -0.3565 -0.0858 -0.0102
   11DOPE   H8X 1389   1.093   3.814  13.004  0.6043  0.8280  1.2826
   11DOPE   H8Y 1390   1.224   3.717  12.916  1.1172  0.5461 -0.0577
   11DOPE   C39 1391   1.150   3.896  12.806 -0.3087 -0.1994  0.0057
   11DOPE   H9X 1392   1.238   3.926  12.748  0.8730 -1.4005  1.0961
   11DOPE  C310 1393   1.030   3.935  12.764 -0.1946  0.0800 -0.3459
   11DOPE  H10X 1394   1.020   3.992  12.671  0.8355 -0.7007 -0.9460
   11DOPE  C311 1395   0.893   3.898  12.825  0.1567  0.0471 -0.6530
   11DOPE  H11X 1396   0.817   3.891  12.744  0.4148 -0.3152 -0.8723
   11DOPE  H11Y 1397   0.902   3.802  12.880 -0.8449  0.7253  0.7458
   11DOPE  C312 1398   0.851   4.012  12.924 -0.8617  1.1668 -0.0930
   11DOPE  H12X 1399   0.850   4.113  12.877  2.5319  1.0608 -0.6158
   11DOPE  H12Y 1400   0.929   4.007  13.002 -0.4655  0.3991 -0.5310
   11DOPE  C313 1401   0.721   3.982  13.010 -0.1844  0.1470  0.4926
   11DOPE  H13X 1402   0.628   3.999  12.951 -0.8074  0.0301  1.4240
   11DOPE  H13Y 1403   0.734   3.875  13.037 -1.1697 -0.6568 -1.9903
   11DOPE  C314 1404   0.702   4.065  13.141 -0.7358  0.7984 -0.9698
   11DOPE  H14X 1405   0.594   4.053  13.163 -0.4754 -0.6838 -0.3933
   11DOPE  H14Y 1406   0.728   4.173  13.137 -1.2064  0.9289 -0.6026
   11DOPE  C315 1407   0.784   4.010  13.257 -0.1669  0.2224  1.1895
   11DOPE  H15X 1408   0.889   4.035  13.230 -0.7936  1.3656 -0.3866
   11DOPE  H15Y 1409   0.782   3.900  13.264  2.6580  0.1151  1.7441
   11DOPE  C316 1410   0.750   4.077  13.393  1.1084  0.0242 -0.0895
   11DOPE  H16X 1411   0.641   4.085  13.414  1.1729 -0.4168  0.4285
   11DOPE  H16Y 1412   0.788   4.180  13.401 -0.1154  0.6959 -2.2135
   11DOPE  C317 1413   0.826   4.011  13.513  0.1245  0.6748  0.5463
   11DOPE  H17X 1414   0.782   4.057  13.604 -3.2557 -0.0042 -0.6211
   11DOPE  H17Y 1415   0.827   3.900  13.504  0.0833  0.4047  3.1296
   11DOPE  C318 1416   0.975   4.044  13.506  0.1146 -0.9769 -0.2164
   11DOPE  H18X 1417   1.031   3.998  13.590  1.9823  0.6197 -0.5196
   11DOPE  H18Y 1418   1.023   4.008  13.413  1.4034  0.8713 -0.3186
   11DOPE  H18Z 1419   0.981   4.155  13.503 -0.3113 -0.9439  0.0161
   12DOPE     N 1420   3.648   7.403  14.020  0.0481  0.4318  0.4439
   12DOPE   HN1 1421   3.561   7.444  13.979 -0.0245  0.4612  0.6310
   12DOPE   HN2 1422   3.630   7.360  14.113  0.9640 -0.7309  0.1085
   12DOPE   HN3 1423   3.721   7.476  14.029 -0.3075  1.5612 -3.7052
   12DOPE   C12 1424   3.707   7.285  13.941 -0.0614 -0.1627 -0.3806
   12DOPE  H12A 1425   3.707   7.321  13.836  1.4976  2.7699  0.5038
   12DOPE  H12B 1426   3.636   7.200  13.951  1.0264 -1.2583 -1.4589
   12DOPE   C11 1427   3.848   7.245  13.991 -0.0159  0.3720 -0.3470
   12DOPE  H11A 1428   3.880   7.154  13.936  2.1195 -0.9990  2.9016
   12DOPE  H11B 1429   3.840   7.224  14.100  0.2199  1.9600  0.0079
   12DOPE     P 1430   4.089   7.322  14.011  0.0127  0.0438 -0.2466
   12DOPE   O13 1431   4.145   7.217  13.922  0.1072 -0.4064 -0.3174
   12DOPE   O14 1432   4.095   7.291  14.153  0.3105  0.5579 -0.1409
   12DOPE   O11 1433   4.160   7.460  13.980  0.1454  0.2509  0.0141
   12DOPE   O12 1434   3.941   7.350  13.968 -0.7772 -0.2203  0.1901
   12DOPE    C1 1435   4.092   7.566  13.910 -0.0007  0.3664 -0.0021
   12DOPE    HA 1436   4.167   7.647  13.900  0.6916  0.1052  2.4044
   12DOPE    HB 1437   3.997   7.595  13.960 -0.4266 -1.9275  0.6732
   12DOPE    C2 1438   4.067   7.534  13.761  0.1990  0.3129  0.0495
   12DOPE    HS 1439   3.994   7.450  13.758 -1.3131  1.5742 -0.0820
   12DOPE   O21 1440   4.180   7.529  13.677  0.4527 -0.4647 -0.5047
   12DOPE   C21 1441   4.168   7.438  13.578 -0.5676 -0.2177 -0.7651
   12DOPE   O22 1442   4.079   7.360  13.558  0.3059 -0.5434 -0.4072
   12DOPE   C22 1443   4.275   7.468  13.478  0.4989 -0.5845  0.3412
   12DOPE   H2R 1444   4.274   7.376  13.415  0.3749  0.5173 -1.3284
   12DOPE   H2S 1445   4.369   7.478  13.535  1.5262 -0.8641 -1.2459
   12DOPE    C3 1446   3.975   7.652  13.705  0.3180  0.3771 -0.0094
   12DOPE    HX 1447   4.037   7.744  13.702  0.5215  0.2599  0.4607
   12DOPE    HY 1448   3.902   7.680  13.784  1.0046  0.2700  0.6822
   12DOPE   O31 1449   3.913   7.628  13.579 -0.2102 -0.3348 -0.4864
   12DOPE   C31 1450   3.799   7.554  13.580 -0.6944 -0.3558  0.1241
   12DOPE   O32 1451   3.739   7.537  13.686  0.0508 -0.0902 -0.0628
   12DOPE   C32 1452   3.776   7.490  13.453  0.8250 -0.0568 -0.2889
   12DOPE   H2X 1453   3.848   7.406  13.445  1.3324  0.3340  0.1346
   12DOPE   H2Y 1454   3.672   7.450  13.459  1.3164 -1.3683 -0.2206
   12DOPE   C23 1455   4.253   7.607  13.403 -0.1500  0.5876  0.0253
   12DOPE   H3R 1456   4.214   7.693  13.463  1.0658  1.9710 -1.1042
   12DOPE   H3S 1457   4.171   7.585  13.332  0.3034 -1.4975  0.0676
   12DOPE   C24 1458   4.377   7.663  13.335  0.4267 -0.8059 -0.3298
   12DOPE   H4R 1459   4.384   7.595  13.247 -2.4113 -1.5893 -0.0478
   12DOPE   H4S 1460   4.467   7.648  13.398 -0.3584 -0.6022  0.8557
   12DOPE   C25 1461   4.358   7.810  13.286  0.5518 -0.3070  0.3372
   12DOPE   H5R 1462   4.347   7.890  13.361 -0.0945  0.4637 -0.5525
   12DOPE   H5S 1463   4.252   7.803  13.250 -0.1983 -0.6325  2.4775
   12DOPE   C26 1464   4.445   7.857  13.170 -0.1113  0.0436 -0.3379
   12DOPE   H6R 1465   4.552   7.835  13.194  0.1115  0.2194 -1.1261
   12DOPE   H6S 1466   4.431   7.966  13.154 -1.0015  0.5240  2.9418
   12DOPE   C27 1467   4.420   7.792  13.038  0.6417  0.3731  0.4928
   12DOPE   H7R 1468   4.311   7.789  13.012  0.5970  1.1745  0.5801
   12DOPE   H7S 1469   4.452   7.687  13.053 -0.2332  0.2186  1.4131
   12DOPE   C28 1470   4.502   7.841  12.922  0.0831  0.0078 -0.3624
   12DOPE   H8R 1471   4.605   7.868  12.954 -0.9944  1.3183  2.2450
   12DOPE   H8S 1472   4.472   7.943  12.888  0.5874  0.0143 -0.8115
   12DOPE   C29 1473   4.508   7.735  12.810 -0.0671 -0.1612 -0.3447
   12DOPE   H9R 1474   4.550   7.634  12.823 -0.4408 -0.3963 -0.8876
   12DOPE  C210 1475   4.461   7.759  12.689  0.2875  0.1182 -0.2805
   12DOPE  H10R 1476   4.465   7.681  12.611 -0.0060  1.6240 -1.8644
   12DOPE  C211 1477   4.372   7.874  12.660  0.9955  0.3613 -0.5720
   12DOPE  H11R 1478   4.309   7.895  12.749 -0.1030  0.2729 -1.3038
   12DOPE  H11S 1479   4.292   7.847  12.588 -0.7806  2.1608  0.6143
   12DOPE  C212 1480   4.449   7.999  12.617 -0.0058  0.3855  0.0359
   12DOPE  H12R 1481   4.546   7.975  12.568 -0.1563  0.2682 -0.2109
   12DOPE  H12S 1482   4.461   8.058  12.710  0.7773  1.7867 -0.9204
   12DOPE  C213 1483   4.370   8.080  12.513  0.3060 -0.0652  0.2994
   12DOPE  H13R 1484   4.270   8.105  12.553  0.9050  0.0727  1.7648
   12DOPE  H13S 1485   4.354   8.010  12.428  0.5919  1.2828 -0.9095
   12DOPE  C214 1486   4.438   8.211  12.474 -0.2586 -0.0386  0.2007
   12DOPE  H14R 1487   4.543   8.188  12.445  0.6382  3.0226  0.6385
   12DOPE  H14S 1488   4.448   8.261  12.572  1.8195 -1.0976  0.5883
   12DOPE  C215 1489   4.357   8.303  12.383  0.0805  0.0946 -0.0707
   12DOPE  H15R 1490   4.261   8.342  12.423  0.7218  1.9527 -0.2680
   12DOPE  H15S 1491   4.334   8.248  12.289  0.2287 -0.5867  0.2909
   12DOPE  C216 1492   4.432   8.433  12.355 -0.2657  0.0047 -0.8852
   12DOPE  H16R 1493   4.537   8.419  12.388 -0.7195 -2.7145 -0.3050
   12DOPE  H16S 1494   4.382   8.507  12.421 -2.5104 -1.3397 -0.9563
   12DOPE  C217 1495   4.426   8.473  12.205 -0.1631  0.5811 -0.2757
   12DOPE  H17R 1496   4.319   8.487  12.178 -1.3620 -3.1215  1.8489
   12DOPE  H17S 1497   4.466   8.386  12.148  0.9288  0.0575  1.2452
   12DOPE  C218 1498   4.506   8.597  12.175 -0.4561 -0.4486 -0.6630
   12DOPE  H18R 1499   4.615   8.590  12.192 -0.7777 -4.0011  0.8678
   12DOPE  H18S 1500   4.472   8.685  12.233 -0.9353 -0.8774 -0.2755
   12DOPE  H18T 1501   4.483   8.623  12.069 -1.0820  1.1947 -0.1594
   12DOPE   C33 1502   3.790   7.577  13.327  0.7979 -0.2871  0.3127
   12DOPE   H3X 1503   3.773   7.534  13.226  1.4030  1.2038 -0.4580
   12DOPE   H3Y 1504   3.890   7.626  13.318  0.0381  1.1594 -0.7391
   12DOPE   C34 1505   3.696   7.698  13.340 -0.4550  0.3302  0.2913
   12DOPE   H4X 1506   3.604   7.648  13.378  0.6774 -1.4053  0.8308
   12DOPE   H4Y 1507   3.738   7.767  13.416  1.0858  0.1293 -0.3488
   12DOPE   C35 1508   3.679   7.781  13.209 -0.7409  0.4362  0.2118
   12DOPE   H5X 1509   3.632   7.717  13.131 -1.0985 -0.3419  1.0463
   12DOPE   H5Y 1510   3.778   7.814  13.171 -0.5528  0.0300  0.3400
   12DOPE   C36 1511   3.590   7.901  13.227  0.4302 -0.3223 -0.0133
   12DOPE   H6X 1512   3.586   7.949  13.126  0.5185  1.0045  0.5978
   12DOPE   H6Y 1513   3.634   7.973  13.299  2.6126 -0.1737 -1.3942
   12DOPE   C37 1514   3.445   7.882  13.276  0.1883 -0.0148 -0.0658
   12DOPE   H7X 1515   3.446   7.845  13.381  0.6733  0.2724  0.0367
   12DOPE   H7Y 1516   3.385   7.976  13.274  1.9016  1.1128 -0.9641
   12DOPE   C38 1517   3.367   7.780  13.202  0.0024  0.4400 -0.3727
   12DOPE   H8X 1518   3.436   7.693  13.194  2.0027  1.9579 -0.6186
   12DOPE   H8Y 1519   3.363   7.809  13.095  0.2599 -0.5363 -0.6608
   12DOPE   C39 1520   3.230   7.735  13.253  0.4192  0.3524 -0.0718
   12DOPE   H9X 1521   3.206   7.753  13.358  0.7500  3.4564 -0.4318
   12DOPE  C310 1522   3.134   7.676  13.184  0.2924 -1.0569 -0.1648
   12DOPE  H10X 1523   3.040   7.652  13.237  1.9392 -1.4053  2.7554
   12DOPE  C311 1524   3.136   7.645  13.037  0.0174  0.1781  0.0442
   12DOPE  H11X 1525   3.232   7.610  12.993 -0.4811 -0.2532 -0.7173
   12DOPE  H11Y 1526   3.061   7.564  13.023  0.5261 -0.2536 -0.2442
   12DOPE  C312 1527   3.101   7.762  12.946  0.7038 -0.6492  0.1812
   12DOPE  H12X 1528   3.160   7.850  12.977 -2.2913  0.9173  1.9455
   12DOPE  H12Y 1529   2.997   7.791  12.974  1.1628 -0.6256  1.9617
   12DOPE  C313 1530   3.102   7.719  12.795 -0.3501  0.1841 -0.7365
   12DOPE  H13X 1531   3.207   7.692  12.771  0.1976  1.3169  0.2701
   12DOPE  H13Y 1532   3.041   7.629  12.774  0.6972 -0.9334  0.7999
   12DOPE  C314 1533   3.052   7.835  12.705  0.0519 -0.7394  0.3611
   12DOPE  H14X 1534   3.124   7.919  12.719  1.6694 -1.9074 -0.5769
   12DOPE  H14Y 1535   2.953   7.876  12.734 -0.9053 -1.6549 -1.4321
   12DOPE  C315 1536   3.042   7.814  12.556 -0.4454 -0.8935  0.0899
   12DOPE  H15X 1537   2.979   7.895  12.514  1.9913  0.5454 -1.0541
   12DOPE  H15Y 1538   2.980   7.724  12.537 -1.4566 -0.4812  1.3326
   12DOPE  C316 1539   3.177   7.796  12.474 -1.1687 -0.2103 -0.1847
   12DOPE  H16X 1540   3.245   7.881  12.497 -1.1450 -0.4312  0.5765
   12DOPE  H16Y 1541   3.161   7.805  12.364  0.3065  0.1253 -0.3918
   12DOPE  C317 1542   3.259   7.668  12.504  0.3692 -0.9500  0.3831
   12DOPE  H17X 1543   3.303   7.679  12.605 -1.0525 -0.0971  0.9465
   12DOPE  H17Y 1544   3.186   7.585  12.490 -1.4633  0.9935 -3.0200
   12DOPE  C318 1545   3.364   7.645  12.397 -0.4889  0.5976  0.1776
   12DOPE  H18X 1546   3.450   7.714  12.391 -1.1878  1.7219  2.0714
   12DOPE  H18Y 1547   3.407   7.544  12.416 -2.4680 -0.1987  0.7096
   12DOPE  H18Z 1548   3.313   7.643  12.298  1.2190 -2.2876 -0.7521
   13DOPE     N 1549   2.857   2.397  13.781  0.0047 -0.5650 -0.3161
   13DOPE   HN1 1550   2.893   2.453  13.701 -0.9858 -0.5421 -0.7600
   13DOPE   HN2 1551   2.802   2.457  13.845  0.3749  2.2136 -2.4228
   13DOPE   HN3 1552   2.936   2.348  13.829 -0.0882 -4.2808 -3.4258
   13DOPE   C12 1553   2.771   2.298  13.721  0.2185 -0.3046  0.5125
   13DOPE  H12A 1554   2.719   2.347  13.636  2.1054 -1.8892 -1.6967
   13DOPE  H12B 1555   2.706   2.245  13.794 -1.0229  1.5511  0.8394
   13DOPE   C11 1556   2.860   2.203  13.637 -0.4235  0.3324  0.2875
   13DOPE  H11A 1557   2.933   2.258  13.575  1.7526 -0.7704  1.7306
   13DOPE  H11B 1558   2.796   2.139  13.573 -2.0648  1.8050  0.3711
   13DOPE     P 1559   2.884   1.984  13.792  0.1782 -0.2270 -0.1696
   13DOPE   O13 1560   2.774   2.015  13.887 -0.2247 -0.2629  0.2859
   13DOPE   O14 1561   3.002   1.913  13.844 -1.0473  0.2764  0.0780
   13DOPE   O11 1562   2.817   1.909  13.664 -0.7170 -0.3502 -0.0901
   13DOPE   O12 1563   2.929   2.118  13.733  0.3035  0.1585  0.3018
   13DOPE    C1 1564   2.822   1.764  13.677 -0.0435 -0.5259  0.2527
   13DOPE    HA 1565   2.774   1.734  13.773 -1.2225  2.7423  0.7917
   13DOPE    HB 1566   2.926   1.726  13.676 -0.0447 -0.6115 -1.9559
   13DOPE    C2 1567   2.735   1.684  13.574 -0.2187 -0.3486 -0.8837
   13DOPE    HS 1568   2.792   1.593  13.547  1.5930  0.4350  0.1465
   13DOPE   O21 1569   2.726   1.765  13.453 -0.3468  0.0062  0.0250
   13DOPE   C21 1570   2.842   1.798  13.400  0.9558 -0.4898  0.3227
   13DOPE   O22 1571   2.935   1.718  13.403  0.6020 -0.3589  0.3365
   13DOPE   C22 1572   2.837   1.928  13.333  0.9229 -0.2869 -0.9368
   13DOPE   H2R 1573   2.877   2.001  13.406 -2.4567  1.5740 -0.7640
   13DOPE   H2S 1574   2.736   1.971  13.319  0.8878  0.1125  0.4031
   13DOPE    C3 1575   2.596   1.650  13.624  0.1228  0.4795  0.1001
   13DOPE    HX 1576   2.547   1.744  13.657 -0.5218  0.2143 -0.0981
   13DOPE    HY 1577   2.612   1.587  13.714 -0.0766  1.4526  0.8314
   13DOPE   O31 1578   2.511   1.581  13.527  0.1048  0.3532 -0.1777
   13DOPE   C31 1579   2.413   1.644  13.468 -0.2184  0.2292 -0.6937
   13DOPE   O32 1580   2.386   1.763  13.489 -0.1949 -0.1014 -0.2641
   13DOPE   C32 1581   2.332   1.553  13.372 -0.0285  0.0670  0.7994
   13DOPE   H2X 1582   2.399   1.466  13.357  1.8098  1.4383  0.7222
   13DOPE   H2Y 1583   2.235   1.523  13.419 -0.8632  0.6430 -0.4884
   13DOPE   C23 1584   2.937   1.929  13.220 -0.0576 -0.2457  0.1693
   13DOPE   H3R 1585   3.030   1.871  13.239  0.4549 -0.3286 -2.2424
   13DOPE   H3S 1586   2.966   2.036  13.207 -0.4216  0.0301  1.5158
   13DOPE   C24 1587   2.880   1.868  13.090 -0.0955  0.1201 -0.6380
   13DOPE   H4R 1588   2.800   1.934  13.053 -0.3681 -0.0243 -0.3115
   13DOPE   H4S 1589   2.831   1.773  13.120  0.2234  0.5618  1.4163
   13DOPE   C25 1590   2.989   1.849  12.986  0.2136  0.5303 -0.1790
   13DOPE   H5R 1591   3.066   1.928  12.998 -0.9100  1.3277  2.4155
   13DOPE   H5S 1592   2.951   1.843  12.882 -0.3720 -0.1096  0.0627
   13DOPE   C26 1593   3.060   1.720  13.020 -0.1424  0.3452 -0.1074
   13DOPE   H6R 1594   2.986   1.638  13.006  0.6879 -0.5145  0.4447
   13DOPE   H6S 1595   3.088   1.714  13.127 -0.3755  2.4568  0.1217
   13DOPE   C27 1596   3.182   1.709  12.928 -0.4845  0.3987  0.1304
   13DOPE   H7R 1597   3.230   1.808  12.936  0.1718  0.2566 -1.7145
   13DOPE   H7S 1598   3.152   1.690  12.823 -0.2256 -1.1730  0.3093
   13DOPE   C28 1599   3.271   1.596  12.978 -0.1471 -0.3003  0.3681
   13DOPE   H8R 1600   3.219   1.497  12.973 -0.4855 -0.0530 -2.1713
   13DOPE   H8S 1601   3.295   1.620  13.084 -0.5977  2.5704 -0.1148
   13DOPE   C29 1602   3.393   1.600  12.887 -0.6461 -0.3163 -0.1139
   13DOPE   H9R 1603   3.484   1.623  12.944  0.5668  1.1567 -2.4582
   13DOPE  C210 1604   3.401   1.582  12.756  0.2777  0.7040 -0.2888
   13DOPE  H10R 1605   3.497   1.596  12.704  2.0054 -2.3739  1.7275
   13DOPE  C211 1606   3.289   1.522  12.671 -0.3542  0.1871  0.4710
   13DOPE  H11R 1607   3.194   1.507  12.727 -0.6013 -5.4886 -0.8904
   13DOPE  H11S 1608   3.314   1.416  12.649 -2.2525  0.1862 -2.1428
   13DOPE  C212 1609   3.263   1.602  12.540  0.0971  0.0203 -0.3450
   13DOPE  H12R 1610   3.265   1.711  12.557 -2.5990  0.0357  0.2511
   13DOPE  H12S 1611   3.155   1.596  12.514  0.0176 -0.2512  0.0248
   13DOPE  C213 1612   3.330   1.544  12.417  0.1774 -0.4100 -0.4074
   13DOPE  H13R 1613   3.316   1.434  12.428  1.8733 -0.5550  0.6079
   13DOPE  H13S 1614   3.436   1.576  12.428  0.2122 -0.5385 -0.3612
   13DOPE  C214 1615   3.269   1.579  12.281 -0.1289  0.3570 -0.0849
   13DOPE  H14R 1616   3.323   1.666  12.238  1.9331 -1.3033 -1.0124
   13DOPE  H14S 1617   3.163   1.609  12.296 -0.0580 -0.0947  1.5558
   13DOPE  C215 1618   3.281   1.470  12.170  0.6925 -0.0949 -0.3623
   13DOPE  H15R 1619   3.388   1.462  12.142  0.5191 -2.5735 -0.5041
   13DOPE  H15S 1620   3.232   1.515  12.080 -2.5866  0.6403  1.5994
   13DOPE  C216 1621   3.224   1.338  12.195  0.3115  0.7185  1.2598
   13DOPE  H16R 1622   3.130   1.339  12.255  0.4015 -0.6979  1.4445
   13DOPE  H16S 1623   3.287   1.271  12.256 -1.6650 -0.0839  2.5161
   13DOPE  C217 1624   3.180   1.269  12.065  0.0303  0.9563  0.0664
   13DOPE  H17R 1625   3.264   1.266  11.992  1.0958 -0.2113  1.2779
   13DOPE  H17S 1626   3.095   1.322  12.017  0.2694 -0.8274 -2.5903
   13DOPE  C218 1627   3.141   1.121  12.073 -0.8283 -0.6776 -0.0827
   13DOPE  H18R 1628   3.056   1.103  12.142  1.0142 -0.4326  2.3872
   13DOPE  H18S 1629   3.227   1.064  12.113  0.1008  0.3570 -0.5564
   13DOPE  H18T 1630   3.130   1.083  11.969 -0.6413  2.6907 -1.5023
   13DOPE   C33 1631   2.301   1.622  13.236 -0.1766 -0.4244 -0.4622
   13DOPE   H3X 1632   2.271   1.729  13.245 -0.9828 -0.4634 -2.2479
   13DOPE   H3Y 1633   2.219   1.563  13.189 -1.7991 -0.6330  2.3848
   13DOPE   C34 1634   2.423   1.624  13.142  0.7279 -0.2651  0.8368
   13DOPE   H4X 1635   2.516   1.654  13.195  1.7536  0.1040 -1.0786
   13DOPE   H4Y 1636   2.445   1.522  13.104 -3.4836 -0.1927 -2.4254
   13DOPE   C35 1637   2.413   1.722  13.017  0.3633 -0.3425 -0.8807
   13DOPE   H5X 1638   2.408   1.821  13.066  3.3849 -0.4870 -0.0593
   13DOPE   H5Y 1639   2.319   1.718  12.958 -0.0929  0.6304 -0.2325
   13DOPE   C36 1640   2.541   1.722  12.938 -0.2062 -0.6409  0.0859
   13DOPE   H6X 1641   2.552   1.623  12.888 -0.5217  0.0999 -1.5047
   13DOPE   H6Y 1642   2.627   1.740  13.006 -0.5578  1.5599  0.0328
   13DOPE   C37 1643   2.544   1.832  12.827 -0.0425 -0.2316  0.2027
   13DOPE   H7X 1644   2.449   1.817  12.772  1.1837 -1.1733 -1.7722
   13DOPE   H7Y 1645   2.542   1.934  12.871  0.4297 -0.1290 -0.0059
   13DOPE   C38 1646   2.661   1.819  12.741  0.8439 -0.0381  0.3629
   13DOPE   H8X 1647   2.658   1.717  12.699  0.8001  0.2031 -0.2243
   13DOPE   H8Y 1648   2.751   1.820  12.806  0.2049  1.7323  1.3084
   13DOPE   C39 1649   2.659   1.932  12.642  0.4282 -0.1502 -0.2634
   13DOPE   H9X 1650   2.586   1.912  12.562  1.7732  1.5331 -2.0258
   13DOPE  C310 1651   2.739   2.039  12.638  0.0054  0.5271 -0.3143
   13DOPE  H10X 1652   2.711   2.116  12.565  2.5599 -1.1313 -3.2370
   13DOPE  C311 1653   2.855   2.075  12.729 -0.1962  0.7581 -0.6055
   13DOPE  H11X 1654   2.848   2.183  12.755  1.1610  0.7681 -0.1860
   13DOPE  H11Y 1655   2.837   2.014  12.819  0.1117 -1.9386 -2.2585
   13DOPE  C312 1656   2.992   2.069  12.660 -0.6549  0.2278  0.4633
   13DOPE  H12X 1657   2.986   2.116  12.560 -0.7843  1.9709  1.2380
   13DOPE  H12Y 1658   3.008   1.961  12.644  1.0982  0.2332  1.8288
   13DOPE  C313 1659   3.106   2.133  12.744 -0.3601 -0.2363 -0.2376
   13DOPE  H13X 1660   3.095   2.243  12.747 -0.4084 -0.2548  0.3030
   13DOPE  H13Y 1661   3.111   2.083  12.843  1.7351 -0.6451 -0.5009
   13DOPE  C314 1662   3.239   2.105  12.670 -0.3693 -0.2131  0.1461
   13DOPE  H14X 1663   3.216   2.136  12.566 -0.1155 -0.9084 -0.1168
   13DOPE  H14Y 1664   3.262   1.999  12.649  2.6561  0.5540 -0.8774
   13DOPE  C315 1665   3.354   2.193  12.723  0.3142 -0.4851 -0.2128
   13DOPE  H15X 1666   3.440   2.177  12.654 -0.4180  3.7350 -2.4565
   13DOPE  H15Y 1667   3.380   2.160  12.826 -0.1668 -0.8330 -0.2022
   13DOPE  C316 1668   3.330   2.345  12.709 -0.2235 -0.2601 -1.0003
   13DOPE  H16X 1669   3.271   2.365  12.801  2.6107  0.7555  0.7536
   13DOPE  H16Y 1670   3.267   2.361  12.619  1.2985 -1.1178 -2.2723
   13DOPE  C317 1671   3.455   2.438  12.716 -0.7730 -0.0189  0.1935
   13DOPE  H17X 1672   3.505   2.435  12.616 -2.6315  1.1395 -0.8422
   13DOPE  H17Y 1673   3.444   2.548  12.723  2.8733  0.4307  1.1435
   13DOPE  C318 1674   3.551   2.404  12.839 -0.5212  0.0613  0.3639
   13DOPE  H18X 1675   3.640   2.469  12.827  0.5194 -1.3784 -0.0005
   13DOPE  H18Y 1676   3.499   2.426  12.934 -0.1189 -3.6694  1.5936
   13DOPE  H18Z 1677   3.576   2.297  12.854 -0.8944  0.1358  1.6353
   14DOPE     N 1678   6.645   5.340  14.187  0.3767  0.4836  0.4492
   14DOPE   HN1 1679   6.654   5.440  14.158  1.6638  0.1644 -0.3212
   14DOPE   HN2 1680   6.674   5.323  14.285  3.5285 -0.1783 -0.4807
   14DOPE   HN3 1681   6.702   5.282  14.123  0.4068  1.9243 -0.9054
   14DOPE   C12 1682   6.499   5.296  14.172 -0.7128 -0.0375 -0.5532
   14DOPE  H12A 1683   6.439   5.346  14.251  0.8414 -1.2718  1.5129
   14DOPE  H12B 1684   6.494   5.186  14.190 -2.9527  0.0868 -0.1891
   14DOPE   C11 1685   6.447   5.313  14.034  0.5672 -0.0703  0.0731
   14DOPE  H11A 1686   6.340   5.289  14.048  0.6826 -0.6327  0.0352
   14DOPE  H11B 1687   6.496   5.243  13.963  0.5770 -1.5538  1.4786
   14DOPE     P 1688   6.361   5.561  13.988 -0.2949  0.0008 -0.4063
   14DOPE   O13 1689   6.414   5.675  13.912 -0.0484 -0.2097  0.6169
   14DOPE   O14 1690   6.335   5.584  14.131  0.0050 -0.3094 -0.8234
   14DOPE   O11 1691   6.230   5.510  13.914  0.4385  0.4670 -0.4880
   14DOPE   O12 1692   6.468   5.444  13.982  0.3819 -0.3410  0.0785
   14DOPE    C1 1693   6.257   5.459  13.780  0.0533 -0.0159  0.0314
   14DOPE    HA 1694   6.180   5.385  13.750  2.2651 -1.6689 -2.0721
   14DOPE    HB 1695   6.351   5.400  13.767 -0.6539 -0.7774 -2.0806
   14DOPE    C2 1696   6.242   5.565  13.665  0.5658 -0.1011  0.0975
   14DOPE    HS 1697   6.303   5.655  13.688  0.6259 -0.1320  0.0562
   14DOPE   O21 1698   6.103   5.616  13.671 -0.4048  0.0494 -0.0731
   14DOPE   C21 1699   6.072   5.723  13.604 -0.8025 -0.7171  0.0203
   14DOPE   O22 1700   6.154   5.794  13.541 -0.1495 -0.1653  0.4387
   14DOPE   C22 1701   5.927   5.754  13.618  0.6205 -0.3824 -0.3057
   14DOPE   H2R 1702   5.912   5.773  13.726  0.4163  0.3158 -0.4555
   14DOPE   H2S 1703   5.873   5.663  13.586 -2.2060  1.3840 -0.8541
   14DOPE    C3 1704   6.285   5.517  13.524  0.9601  0.1319  0.3572
   14DOPE    HX 1705   6.387   5.473  13.527  0.1759 -2.5382 -3.9721
   14DOPE    HY 1706   6.285   5.606  13.459 -1.0963 -0.7503 -0.9707
   14DOPE   O31 1707   6.193   5.426  13.461  0.1546  0.1556  0.2899
   14DOPE   C31 1708   6.207   5.301  13.471  0.5453  0.3147 -0.3573
   14DOPE   O32 1709   6.298   5.242  13.531  1.2165 -0.2384 -0.2860
   14DOPE   C32 1710   6.082   5.233  13.396 -0.2015 -0.2621 -0.9581
   14DOPE   H2X 1711   5.998   5.247  13.467  1.5010 -0.1214  1.1211
   14DOPE   H2Y 1712   6.051   5.279  13.299  2.0182 -0.8350 -2.0098
   14DOPE   C23 1713   5.884   5.876  13.533  0.7897  0.7679 -0.6517
   14DOPE   H3R 1714   5.893   5.856  13.424  1.2670  1.1164 -0.6807
   14DOPE   H3S 1715   5.943   5.967  13.556 -1.4519  1.4234  3.4505
   14DOPE   C24 1716   5.735   5.914  13.559 -0.3670 -0.2448  0.1793
   14DOPE   H4R 1717   5.725   5.945  13.665  0.7307  3.7612 -0.6970
   14DOPE   H4S 1718   5.669   5.832  13.524  0.0514 -0.4281 -0.1968
   14DOPE   C25 1719   5.693   6.034  13.466  0.8518 -0.4565  0.1209
   14DOPE   H5R 1720   5.733   6.134  13.494  0.5663 -0.1241 -0.6356
   14DOPE   H5S 1721   5.583   6.043  13.483  0.3129 -2.3896 -1.9679
   14DOPE   C26 1722   5.715   6.005  13.315  0.6451 -0.3250 -0.2800
   14DOPE   H6R 1723   5.715   5.896  13.292  0.6799 -1.0232  2.5731
   14DOPE   H6S 1724   5.818   6.040  13.290  1.1547 -1.6026 -0.1041
   14DOPE   C27 1725   5.632   6.091  13.228 -0.0867  0.5319  0.2420
   14DOPE   H7R 1726   5.656   6.198  13.247 -1.2697  0.7025  0.8996
   14DOPE   H7S 1727   5.525   6.076  13.255  0.0297 -0.9547 -0.0419
   14DOPE   C28 1728   5.651   6.053  13.077  0.3509  0.2620 -0.8456
   14DOPE   H8R 1729   5.671   5.944  13.084  1.4363  0.5418  1.0973
   14DOPE   H8S 1730   5.748   6.092  13.039  0.7220  0.3883  0.2178
   14DOPE   C29 1731   5.532   6.089  12.991 -0.7647 -0.1908  0.0035
   14DOPE   H9R 1732   5.458   6.163  13.025  0.9685  2.9553 -2.5077
   14DOPE  C210 1733   5.512   6.027  12.871 -0.4581  0.2617  0.3974
   14DOPE  H10R 1734   5.426   6.058  12.811  0.2154 -0.0303 -0.7462
   14DOPE  C211 1735   5.585   5.918  12.796 -0.4898 -0.0130  0.3756
   14DOPE  H11R 1736   5.693   5.915  12.823 -0.6805  1.2345  1.3308
   14DOPE  H11S 1737   5.586   5.948  12.688 -0.0109 -0.7865  0.1574
   14DOPE  C212 1738   5.513   5.780  12.785 -0.1281  1.1204 -0.4947
   14DOPE  H12R 1739   5.581   5.712  12.729 -1.5424  0.6681 -1.7508
   14DOPE  H12S 1740   5.416   5.782  12.729  0.2124  0.3836 -1.1317
   14DOPE  C213 1741   5.476   5.729  12.927  0.2512  0.3449  0.0008
   14DOPE  H13R 1742   5.398   5.789  12.978  0.4779 -0.9156  1.9150
   14DOPE  H13S 1743   5.563   5.764  12.987 -0.2424  1.0035  0.3420
   14DOPE  C214 1744   5.467   5.575  12.923 -0.0963 -0.2832 -0.6625
   14DOPE  H14R 1745   5.453   5.542  13.028  0.9702  0.4723 -0.2657
   14DOPE  H14S 1746   5.563   5.536  12.883  0.5760 -0.2003  0.7977
   14DOPE  C215 1747   5.346   5.517  12.846 -0.2169  0.4543  0.5170
   14DOPE  H15R 1748   5.334   5.410  12.877 -1.7688  0.9228  1.6686
   14DOPE  H15S 1749   5.372   5.526  12.739 -1.7647 -0.6199  0.0205
   14DOPE  C216 1750   5.213   5.590  12.848 -0.7082 -0.3289  0.5031
   14DOPE  H16R 1751   5.235   5.692  12.809  0.0217 -0.9802 -0.8724
   14DOPE  H16S 1752   5.185   5.602  12.954 -2.3479 -0.6834  0.1305
   14DOPE  C217 1753   5.102   5.517  12.774  0.3191  0.1827  0.3536
   14DOPE  H17R 1754   5.005   5.563  12.804 -0.4745 -2.1635  1.5593
   14DOPE  H17S 1755   5.103   5.413  12.811  1.3587  0.5244  1.3307
   14DOPE  C218 1756   5.102   5.517  12.618  0.4350  0.8745  0.8179
   14DOPE  H18R 1757   5.050   5.427  12.576 -1.2063  2.7180 -1.3798
   14DOPE  H18S 1758   5.210   5.512  12.595  0.0242  3.6494 -2.4507
   14DOPE  H18T 1759   5.064   5.613  12.576  0.8357  0.9970  0.7344
   14DOPE   C33 1760   6.094   5.083  13.369  0.0984 -0.7622  0.1208
   14DOPE   H3X 1761   6.187   5.072  13.308 -0.2176  0.3201 -0.5833
   14DOPE   H3Y 1762   6.014   5.045  13.302  1.2365 -1.4340 -0.9226
   14DOPE   C34 1763   6.083   4.996  13.495 -0.0772  0.2410 -0.2562
   14DOPE   H4X 1764   6.174   5.010  13.557  0.3641 -1.5067 -0.4723
   14DOPE   H4Y 1765   5.988   5.022  13.548  0.1603  0.2658  0.1587
   14DOPE   C35 1766   6.078   4.846  13.468 -0.0040  0.1174 -0.0085
   14DOPE   H5X 1767   5.995   4.832  13.395 -0.3676 -0.5616  0.5202
   14DOPE   H5Y 1768   6.047   4.785  13.556  0.1595 -0.2766 -0.2225
   14DOPE   C36 1769   6.214   4.785  13.419  0.3301 -0.1106 -0.8214
   14DOPE   H6X 1770   6.279   4.782  13.509 -2.1465  3.7055  1.4297
   14DOPE   H6Y 1771   6.259   4.853  13.343  1.5728  0.7549  0.6336
   14DOPE   C37 1772   6.194   4.643  13.359  0.5606 -0.4724  0.9316
   14DOPE   H7X 1773   6.138   4.574  13.426 -0.5073 -0.1537  0.4074
   14DOPE   H7Y 1774   6.121   4.669  13.278  1.5558  0.8537  0.4174
   14DOPE   C38 1775   6.319   4.572  13.313 -0.1162  0.3374 -0.4904
   14DOPE   H8X 1776   6.374   4.641  13.245  1.6657  0.4169  0.9702
   14DOPE   H8Y 1777   6.289   4.478  13.261  1.5147 -1.8245  2.2472
   14DOPE   C39 1778   6.412   4.529  13.428 -0.2688 -0.0360  0.3166
   14DOPE   H9X 1779   6.459   4.616  13.476  0.8425  0.2944 -1.2972
   14DOPE  C310 1780   6.444   4.407  13.476 -0.7185  0.1622  0.4001
   14DOPE  H10X 1781   6.512   4.412  13.563 -0.1809  1.4753 -0.0718
   14DOPE  C311 1782   6.401   4.270  13.423 -0.3750 -0.2475 -0.2888
   14DOPE  H11X 1783   6.370   4.297  13.320  0.3739  2.9678  0.1986
   14DOPE  H11Y 1784   6.491   4.206  13.415  0.1207  0.2277  1.1523
   14DOPE  C312 1785   6.287   4.193  13.498 -0.9207 -0.8324 -0.3762
   14DOPE  H12X 1786   6.200   4.257  13.523 -1.3237 -1.0800 -1.1381
   14DOPE  H12Y 1787   6.327   4.141  13.588 -1.0918 -0.7875 -0.2742
   14DOPE  C313 1788   6.235   4.092  13.399 -0.5509 -0.0231 -0.0075
   14DOPE  H13X 1789   6.214   4.139  13.300  1.3068  0.5592 -0.1628
   14DOPE  H13Y 1790   6.305   4.008  13.381  0.8395  0.4294  2.7481
   14DOPE  C314 1791   6.098   4.037  13.441  0.4953 -0.2311 -0.0445
   14DOPE  H14X 1792   6.037   4.118  13.487  0.2585 -1.8483  2.6729
   14DOPE  H14Y 1793   6.124   3.959  13.515  0.8019  1.1569  1.3588
   14DOPE  C315 1794   6.017   3.971  13.335  0.5101 -0.0439  0.3457
   14DOPE  H15X 1795   5.995   4.049  13.259 -2.4370 -0.4989  0.5969
   14DOPE  H15Y 1796   5.922   3.942  13.385 -0.6366  2.3584 -0.3159
   14DOPE  C316 1797   6.081   3.842  13.279  0.3619  0.2285  0.6445
   14DOPE  H16X 1798   6.109   3.776  13.364  0.2471 -1.2513 -0.4171
   14DOPE  H16Y 1799   6.168   3.860  13.211  0.1561 -0.9168  0.0529
   14DOPE  C317 1800   5.971   3.779  13.197  0.2692 -1.0189 -0.0155
   14DOPE  H17X 1801   6.010   3.676  13.209  0.9965 -0.4676  4.0150
   14DOPE  H17Y 1802   5.865   3.771  13.229  0.2453  0.0308  0.2357
   14DOPE  C318 1803   5.987   3.818  13.052  0.5448  0.1016 -0.4109
   14DOPE  H18X 1804   6.093   3.814  13.017  0.2613  0.7377 -1.3780
   14DOPE  H18Y 1805   5.946   3.735  12.990  1.5462 -1.0257  0.3923
   14DOPE  H18Z 1806   5.950   3.917  13.017  2.4422  0.5200 -1.3779
   15DOPE     N 1807   0.411   3.814  14.445  0.2267 -0.7199  0.5677
   15DOPE   HN1 1808   0.465   3.741  14.393  2.8277  1.7832 -0.5099
   15DOPE   HN2 1809   0.473   3.844  14.522  1.6185  1.0963 -1.1503
   15DOPE   HN3 1810   0.323   3.775  14.485 -0.4710 -0.8318 -0.9790
   15DOPE   C12 1811   0.385   3.939  14.366  0.0777  0.0474  0.3386
   15DOPE  H12A 1812   0.324   4.000  14.436 -0.9080 -2.5914  1.8953
   15DOPE  H12B 1813   0.326   3.916  14.275  1.5572  1.2116 -0.9777
   15DOPE   C11 1814   0.518   4.000  14.333 -0.2971  0.2942  0.5690
   15DOPE  H11A 1815   0.570   4.032  14.426 -0.5652  0.0395  0.8074
   15DOPE  H11B 1816   0.497   4.089  14.270  0.5677  0.8585  1.0620
   15DOPE     P 1817   0.677   3.922  14.127  0.2557 -0.3488 -0.1298
   15DOPE   O13 1818   0.775   3.800  14.116  0.2055 -0.6601 -0.2710
   15DOPE   O14 1819   0.735   4.052  14.090 -0.3695 -0.2312  0.1272
   15DOPE   O11 1820   0.536   3.902  14.049 -0.2882 -0.5511  0.0042
   15DOPE   O12 1821   0.617   3.916  14.275 -0.2793  0.5020 -0.5593
   15DOPE    C1 1822   0.484   3.775  14.040 -0.9885 -0.4125 -0.5433
   15DOPE    HA 1823   0.373   3.787  14.042 -0.9906 -0.4192 -0.6247
   15DOPE    HB 1824   0.501   3.714  14.131  1.0224  0.7078 -0.1034
   15DOPE    C2 1825   0.525   3.695  13.922  0.7083 -0.4990  0.2266
   15DOPE    HS 1826   0.636   3.681  13.925  1.3941  3.6798  1.3981
   15DOPE   O21 1827   0.475   3.748  13.801 -0.3822  0.0183  0.4154
   15DOPE   C21 1828   0.562   3.766  13.702  0.5386  0.4380  0.0804
   15DOPE   O22 1829   0.685   3.744  13.705 -0.1509 -0.7122  0.7475
   15DOPE   C22 1830   0.478   3.810  13.581 -0.5163 -0.3299  0.0906
   15DOPE   H2R 1831   0.493   3.920  13.575 -0.7697 -0.2337  1.0182
   15DOPE   H2S 1832   0.372   3.792  13.610 -0.1976 -1.4058  0.6563
   15DOPE    C3 1833   0.460   3.551  13.937 -0.2439 -0.6443  0.5380
   15DOPE    HX 1834   0.349   3.558  13.927 -0.1811 -1.3388 -0.9776
   15DOPE    HY 1835   0.498   3.519  14.036  1.6432  0.1474  0.1155
   15DOPE   O31 1836   0.499   3.457  13.842 -0.4071  0.4362  0.2849
   15DOPE   C31 1837   0.624   3.415  13.843  0.2712  0.1501  1.1479
   15DOPE   O32 1838   0.710   3.451  13.923 -0.5920  0.1670  0.1694
   15DOPE   C32 1839   0.654   3.324  13.713 -0.3486  0.1062  0.0515
   15DOPE   H2X 1840   0.623   3.223  13.748 -1.7648  0.2876 -0.5896
   15DOPE   H2Y 1841   0.593   3.361  13.628 -0.0612 -0.7516 -0.5298
   15DOPE   C23 1842   0.518   3.750  13.447  0.4962 -0.6100 -0.8839
   15DOPE   H3R 1843   0.513   3.639  13.453  0.7430 -0.6270  4.4340
   15DOPE   H3S 1844   0.619   3.785  13.418 -0.5336  2.5684 -1.0172
   15DOPE   C24 1845   0.420   3.808  13.343  0.1143  0.3049 -0.1301
   15DOPE   H4R 1846   0.426   3.918  13.351  0.1868  0.1673  2.8893
   15DOPE   H4S 1847   0.319   3.768  13.367  1.0409 -2.3959 -0.3942
   15DOPE   C25 1848   0.468   3.753  13.207 -0.3452 -0.1407 -0.4407
   15DOPE   H5R 1849   0.464   3.642  13.203 -0.2049 -0.1395 -0.6429
   15DOPE   H5S 1850   0.572   3.792  13.196  0.7323 -2.3812  1.0506
   15DOPE   C26 1851   0.396   3.805  13.086 -0.4699  0.1329 -0.1402
   15DOPE   H6R 1852   0.404   3.916  13.082 -2.2445  0.3293  0.6998
   15DOPE   H6S 1853   0.289   3.782  13.103 -0.1739 -0.3966  1.1149
   15DOPE   C27 1854   0.447   3.729  12.958 -0.0468  0.0298  0.2309
   15DOPE   H7R 1855   0.429   3.622  12.980 -1.7569  0.4109  0.8166
   15DOPE   H7S 1856   0.556   3.750  12.954 -0.1326  0.5035  0.3381
   15DOPE   C28 1857   0.359   3.756  12.830 -0.0200  0.1971  0.1742
   15DOPE   H8R 1858   0.252   3.766  12.860 -0.7022  2.2536 -2.4978
   15DOPE   H8S 1859   0.358   3.674  12.755 -1.4690  1.0419 -0.7678
   15DOPE   C29 1860   0.395   3.893  12.770  0.1645 -0.4215  0.4204
   15DOPE   H9R 1861   0.383   3.977  12.840  1.5586 -0.5863  0.8882
   15DOPE  C210 1862   0.448   3.913  12.648 -0.1740 -0.1380  0.3738
   15DOPE  H10R 1863   0.456   4.018  12.615  0.5946 -0.6625 -1.1892
   15DOPE  C211 1864   0.476   3.814  12.544 -0.2848 -0.5117  0.7288
   15DOPE  H11R 1865   0.406   3.828  12.459  1.1612 -0.4265 -0.4948
   15DOPE  H11S 1866   0.450   3.710  12.574 -1.9466 -0.5638 -0.7817
   15DOPE  C212 1867   0.620   3.821  12.483  0.4156 -0.1508  0.2211
   15DOPE  H12R 1868   0.636   3.741  12.407  0.3568 -0.9407  1.0130
   15DOPE  H12S 1869   0.699   3.820  12.561 -0.9315  2.3572  1.7663
   15DOPE  C213 1870   0.644   3.954  12.409 -0.6427  0.4034  0.0906
   15DOPE  H13R 1871   0.753   3.976  12.412 -0.1368 -1.5362 -1.5962
   15DOPE  H13S 1872   0.596   4.035  12.466  0.9593  0.1631  1.8722
   15DOPE  C214 1873   0.583   3.959  12.266 -0.2424  0.3506 -0.2190
   15DOPE  H14R 1874   0.577   4.063  12.227  0.7844  0.1979 -0.8441
   15DOPE  H14S 1875   0.481   3.918  12.271 -0.6530  1.2134 -1.0285
   15DOPE  C215 1876   0.649   3.869  12.161 -0.5649  0.6632 -0.4846
   15DOPE  H15R 1877   0.598   3.894  12.065  0.0911 -0.1700 -1.0744
   15DOPE  H15S 1878   0.631   3.760  12.177 -0.3810  0.6392 -0.4431
   15DOPE  C216 1879   0.802   3.888  12.147  0.0207 -0.3539 -0.1989
   15DOPE  H16R 1880   0.844   3.843  12.240 -0.4699  0.4353  0.4195
   15DOPE  H16S 1881   0.828   3.996  12.155  0.7237 -0.3241 -2.2579
   15DOPE  C217 1882   0.862   3.839  12.014  0.3248  0.3580 -0.1927
   15DOPE  H17R 1883   0.830   3.735  11.988  0.1225  0.6152 -1.0029
   15DOPE  H17S 1884   0.972   3.837  12.024  0.4686  2.6080 -0.8194
   15DOPE  C218 1885   0.833   3.925  11.888  0.5461 -0.2489  0.6406
   15DOPE  H18R 1886   0.856   4.032  11.907 -0.7941  0.0439  0.7229
   15DOPE  H18S 1887   0.731   3.915  11.846  0.8070 -1.5226  0.2668
   15DOPE  H18T 1888   0.901   3.891  11.807 -1.9069 -0.5436 -1.4298
   15DOPE   C33 1889   0.797   3.317  13.665 -0.3964  0.0084 -0.7124
   15DOPE   H3X 1890   0.812   3.231  13.596  1.0324  1.1455 -1.9051
   15DOPE   H3Y 1891   0.864   3.298  13.752  0.7773  1.3268 -1.2887
   15DOPE   C34 1892   0.856   3.436  13.584 -0.0688  0.2193  0.4737
   15DOPE   H4X 1893   0.874   3.521  13.653 -0.2910  1.1719 -0.6085
   15DOPE   H4Y 1894   0.951   3.392  13.545 -0.6499  0.1214 -0.9093
   15DOPE   C35 1895   0.778   3.470  13.456  0.0918 -0.0579 -0.2374
   15DOPE   H5X 1896   0.697   3.544  13.477  1.2200  1.6740 -1.6882
   15DOPE   H5Y 1897   0.724   3.385  13.409  0.1151  0.7220 -1.7431
   15DOPE   C36 1898   0.876   3.523  13.343  0.1798  0.0865  0.3396
   15DOPE   H6X 1899   0.954   3.599  13.367  0.6009 -0.4088  0.5695
   15DOPE   H6Y 1900   0.812   3.568  13.265  0.2057 -0.9350 -0.2836
   15DOPE   C37 1901   0.960   3.414  13.278  0.0661 -0.1333 -0.2521
   15DOPE   H7X 1902   1.026   3.365  13.353 -0.9273 -1.6578 -0.3436
   15DOPE   H7Y 1903   0.885   3.337  13.252  0.0970 -1.0228  2.0616
   15DOPE   C38 1904   1.045   3.453  13.157 -0.5092  0.3200  0.2341
   15DOPE   H8X 1905   1.099   3.546  13.186 -1.3163  0.2213  2.1945
   15DOPE   H8Y 1906   0.972   3.465  13.074 -0.3274 -1.6057 -0.2481
   15DOPE   C39 1907   1.157   3.355  13.126  0.2185  0.3697 -0.2697
   15DOPE   H9X 1908   1.209   3.323  13.217 -1.9474  0.9384  1.2510
   15DOPE  C310 1909   1.176   3.296  13.008  0.1935  0.1350  0.2823
   15DOPE  H10X 1910   1.262   3.229  12.994 -0.1058 -0.2239  0.1174
   15DOPE  C311 1911   1.103   3.326  12.881  0.3371  0.0788  0.0970
   15DOPE  H11X 1912   1.026   3.247  12.868 -0.6280  0.6809  1.8287
   15DOPE  H11Y 1913   1.037   3.416  12.875  0.2587 -0.0603 -2.6834
   15DOPE  C312 1914   1.200   3.318  12.763 -0.0309  0.3598 -0.2156
   15DOPE  H12X 1915   1.289   3.378  12.792 -0.6929  1.0215  0.4834
   15DOPE  H12Y 1916   1.148   3.372  12.681  0.4415 -0.7799 -1.3155
   15DOPE  C313 1917   1.235   3.178  12.709  0.1909 -0.1805 -0.1696
   15DOPE  H13X 1918   1.319   3.186  12.636  1.5582  0.6132  1.4054
   15DOPE  H13Y 1919   1.271   3.106  12.787  2.1540  0.1700 -0.6850
   15DOPE  C314 1920   1.112   3.112  12.646  0.2124 -0.3972  0.4964
   15DOPE  H14X 1921   1.063   3.195  12.590 -1.6554 -0.7088  1.5651
   15DOPE  H14Y 1922   1.052   3.070  12.729  0.5940  0.7318  1.3715
   15DOPE  C315 1923   1.150   3.011  12.540 -0.6312  0.5572 -0.4378
   15DOPE  H15X 1924   1.229   3.049  12.472 -2.7075  1.8865 -2.2644
   15DOPE  H15Y 1925   1.057   3.003  12.479 -0.7982  0.0052 -0.1129
   15DOPE  C316 1926   1.193   2.870  12.596  0.8145 -0.7975  0.2475
   15DOPE  H16X 1927   1.139   2.843  12.689 -1.2969 -0.3783 -0.8030
   15DOPE  H16Y 1928   1.304   2.864  12.603  1.1281  1.6476 -1.4857
   15DOPE  C317 1929   1.145   2.766  12.491 -0.5835  0.5420  0.3407
   15DOPE  H17X 1930   1.166   2.666  12.534 -1.3483  0.8428  1.4790
   15DOPE  H17Y 1931   1.037   2.761  12.466 -0.5393 -2.0857  0.4324
   15DOPE  C318 1932   1.221   2.767  12.357 -0.1230 -0.0794  0.2962
   15DOPE  H18X 1933   1.179   2.701  12.278 -0.8894 -0.6904  1.1901
   15DOPE  H18Y 1934   1.210   2.867  12.310 -2.9167 -0.1521  0.6089
   15DOPE  H18Z 1935   1.328   2.748  12.380 -0.2537  0.1702  1.1577
   16DOPE     N 1936   8.365   3.543  14.368  0.8707 -0.0668 -0.0770
   16DOPE   HN1 1937   8.329   3.510  14.459  1.6359 -0.5775  0.0490
   16DOPE   HN2 1938   8.330   3.639  14.346  1.1009 -0.0903 -0.5876
   16DOPE   HN3 1939   8.320   3.482  14.296  2.4100  0.1837 -1.3245
   16DOPE   C12 1940   8.512   3.546  14.349 -0.2428  0.3065 -0.0496
   16DOPE  H12A 1941   8.545   3.441  14.330  0.3567  0.3565  0.6985
   16DOPE  H12B 1942   8.555   3.582  14.444 -0.1989  0.9375 -0.3028
   16DOPE   C11 1943   8.559   3.644  14.238 -0.4913  0.1004 -0.3275
   16DOPE  H11A 1944   8.497   3.635  14.146 -0.8295 -3.5490  0.0985
   16DOPE  H11B 1945   8.660   3.603  14.217 -0.4109 -1.7328  2.9384
   16DOPE     P 1946   8.458   3.888  14.281  0.4285  0.0932 -0.1253
   16DOPE   O13 1947   8.507   4.010  14.331  0.1875 -0.9319 -0.4690
   16DOPE   O14 1948   8.334   3.837  14.337  0.5432 -0.0677  0.1898
   16DOPE   O11 1949   8.440   3.898  14.123 -0.3492  0.1784 -1.0292
   16DOPE   O12 1950   8.573   3.776  14.295 -0.0507  0.9356  0.0733
   16DOPE    C1 1951   8.542   3.975  14.049 -0.2028 -0.8101 -0.3678
   16DOPE    HA 1952   8.639   3.921  14.044 -1.1662 -2.5246 -1.2586
   16DOPE    HB 1953   8.566   4.074  14.094  1.0213 -0.4081 -1.8216
   16DOPE    C2 1954   8.500   4.004  13.902  0.9144 -0.1663 -1.4913
   16DOPE    HS 1955   8.542   4.097  13.856  0.1678  1.5548  1.0779
   16DOPE   O21 1956   8.358   4.000  13.888 -1.0281  0.1437 -0.8213
   16DOPE   C21 1957   8.299   4.110  13.935 -0.5480  0.2991 -0.9729
   16DOPE   O22 1958   8.352   4.201  13.992  0.0613  0.4414  0.0267
   16DOPE   C22 1959   8.154   4.104  13.883  0.1111 -1.1093  0.5588
   16DOPE   H2R 1960   8.099   4.116  13.979 -1.8595  1.4339 -0.7580
   16DOPE   H2S 1961   8.129   4.008  13.834 -1.4310 -1.4286  1.8914
   16DOPE    C3 1962   8.547   3.884  13.809 -0.3517 -0.0300 -0.2270
   16DOPE    HX 1963   8.532   3.788  13.863 -0.5667  1.0363  1.7020
   16DOPE    HY 1964   8.655   3.891  13.787 -0.6062  2.5282 -0.9562
   16DOPE   O31 1965   8.494   3.885  13.673  0.1326  0.0829 -0.1127
   16DOPE   C31 1966   8.389   3.813  13.646 -0.6513 -0.5137 -0.6356
   16DOPE   O32 1967   8.329   3.752  13.736  0.1069  0.4638 -0.2742
   16DOPE   C32 1968   8.359   3.813  13.503  0.3261 -0.1717  0.4592
   16DOPE   H2X 1969   8.284   3.735  13.477  1.5765 -1.5965  1.0199
   16DOPE   H2Y 1970   8.321   3.912  13.472  1.5036  0.4273  0.8656
   16DOPE   C23 1971   8.112   4.226  13.794 -0.1413 -0.8552  0.5485
   16DOPE   H3R 1972   8.152   4.323  13.830 -3.0542 -0.1759  2.3170
   16DOPE   H3S 1973   8.001   4.218  13.805 -0.0185 -2.4652  1.0283
   16DOPE   C24 1974   8.161   4.192  13.654 -0.1901 -0.1219  0.4523
   16DOPE   H4R 1975   8.085   4.124  13.610  1.1903 -1.0009 -0.6968
   16DOPE   H4S 1976   8.261   4.144  13.660 -0.3571 -0.7721 -1.3634
   16DOPE   C25 1977   8.185   4.323  13.571  0.1099  0.3737 -0.3567
   16DOPE   H5R 1978   8.249   4.396  13.625 -1.2356  1.3093  0.0425
   16DOPE   H5S 1979   8.086   4.374  13.566 -0.3929 -0.6439 -1.0186
   16DOPE   C26 1980   8.248   4.302  13.433  0.4880 -0.1810 -0.3023
   16DOPE   H6R 1981   8.323   4.222  13.446 -0.2674 -0.8291  0.1437
   16DOPE   H6S 1982   8.296   4.402  13.419  1.5929 -0.6515  0.0510
   16DOPE   C27 1983   8.153   4.282  13.317  0.1690 -0.4154  0.1559
   16DOPE   H7R 1984   8.100   4.378  13.299  0.0942 -0.4496  0.1935
   16DOPE   H7S 1985   8.081   4.202  13.346  0.3241 -0.2909  0.9231
   16DOPE   C28 1986   8.228   4.234  13.193  0.2392  0.0655  0.4857
   16DOPE   H8R 1987   8.286   4.141  13.215 -1.7662 -1.5232 -0.5285
   16DOPE   H8S 1988   8.284   4.325  13.162 -3.0532  1.9095 -0.4636
   16DOPE   C29 1989   8.128   4.224  13.077  0.4912 -1.2232 -0.0956
   16DOPE   H9R 1990   8.090   4.319  13.036 -3.0292 -3.1040 -1.5906
   16DOPE  C210 1991   8.052   4.115  13.039 -0.5525 -0.7568  0.2932
   16DOPE  H10R 1992   7.984   4.133  12.954 -1.0008 -0.4747  0.7072
   16DOPE  C211 1993   8.066   3.969  13.072 -0.8097 -0.0402  0.3772
   16DOPE  H11R 1994   8.125   3.971  13.166 -2.6258  1.0699  1.5662
   16DOPE  H11S 1995   8.116   3.909  12.993 -1.5546  3.1889 -2.8341
   16DOPE  C212 1996   7.939   3.896  13.104  0.3093 -0.4682 -0.5675
   16DOPE  H12R 1997   7.879   3.883  13.012  0.5188 -1.3962 -0.5835
   16DOPE  H12S 1998   7.880   3.952  13.180  2.1450 -0.4749  0.9585
   16DOPE  C213 1999   7.954   3.759  13.159 -0.9666  0.3175 -0.4501
   16DOPE  H13R 2000   7.997   3.766  13.261 -2.4225  0.8239  0.1626
   16DOPE  H13S 2001   8.022   3.708  13.089 -1.9427 -2.3057  0.3885
   16DOPE  C214 2002   7.842   3.659  13.152 -0.1595 -0.5206 -0.6286
   16DOPE  H14R 2003   7.873   3.552  13.141 -0.6337 -0.6516 -0.7070
   16DOPE  H14S 2004   7.785   3.681  13.060  0.0667 -0.0842 -0.6659
   16DOPE  C215 2005   7.753   3.669  13.277  0.3954  0.1515  0.0603
   16DOPE  H15R 2006   7.715   3.773  13.288  1.2653  0.4305  0.4836
   16DOPE  H15S 2007   7.812   3.630  13.363 -0.3253 -2.0247 -0.3677
   16DOPE  C216 2008   7.633   3.569  13.258 -0.4440  0.1488 -0.3689
   16DOPE  H16R 2009   7.674   3.468  13.282  0.0100  0.2715 -0.6298
   16DOPE  H16S 2010   7.593   3.570  13.155  0.9846 -1.0230 -0.9653
   16DOPE  C217 2011   7.516   3.601  13.355 -0.2566 -0.1730  0.3117
   16DOPE  H17R 2012   7.441   3.519  13.348 -0.7027  0.2148  0.4643
   16DOPE  H17S 2013   7.460   3.685  13.307 -0.6335  0.8510  2.4059
   16DOPE  C218 2014   7.553   3.642  13.498 -0.7674  0.9442 -0.4825
   16DOPE  H18R 2015   7.635   3.716  13.508 -0.3105  0.1626  2.6587
   16DOPE  H18S 2016   7.585   3.551  13.554  0.1975  1.2806 -0.4696
   16DOPE  H18T 2017   7.464   3.686  13.548 -1.2818  1.4512 -1.8009
   16DOPE   C33 2018   8.482   3.784  13.420 -0.1640 -0.1506  0.5863
   16DOPE   H3X 2019   8.535   3.694  13.459  0.2028 -0.5602 -0.8205
   16DOPE   H3Y 2020   8.558   3.865  13.424  1.2479 -1.3886 -0.1503
   16DOPE   C34 2021   8.467   3.747  13.274  0.0769 -0.4344  0.5147
   16DOPE   H4X 2022   8.561   3.703  13.234  0.0620 -0.7307  0.8018
   16DOPE   H4Y 2023   8.376   3.684  13.260  0.3790 -1.2604  2.0708
   16DOPE   C35 2024   8.451   3.872  13.185 -0.4720 -0.2625 -0.5728
   16DOPE   H5X 2025   8.545   3.930  13.200 -1.8356  1.6106  1.2363
   16DOPE   H5Y 2026   8.355   3.926  13.192 -0.6324 -0.0509 -3.3541
   16DOPE   C36 2027   8.442   3.826  13.033 -0.6265  0.1681  0.1988
   16DOPE   H6X 2028   8.368   3.743  13.032  1.3041 -1.6592 -0.6099
   16DOPE   H6Y 2029   8.537   3.770  13.021  0.4217  0.5148  4.9237
   16DOPE   C37 2030   8.415   3.941  12.945 -0.2141 -0.2489  0.2955
   16DOPE   H7X 2031   8.344   4.016  12.986  0.7183  1.3512 -0.9073
   16DOPE   H7Y 2032   8.510   3.995  12.927 -1.7327  1.6942 -2.7883
   16DOPE   C38 2033   8.357   3.887  12.816 -0.1618 -0.3987 -0.5452
   16DOPE   H8X 2034   8.323   3.977  12.760 -1.0957 -1.3131 -1.4964
   16DOPE   H8Y 2035   8.260   3.835  12.837  0.2299 -0.6741  0.6759
   16DOPE   C39 2036   8.455   3.808  12.736 -0.1122  0.5305 -0.2120
   16DOPE   H9X 2037   8.534   3.868  12.690 -0.5978  0.9820 -0.4730
   16DOPE  C310 2038   8.449   3.676  12.706 -0.2492 -0.2545  0.1435
   16DOPE  H10X 2039   8.508   3.637  12.622 -0.0341  1.6659 -0.6410
   16DOPE  C311 2040   8.349   3.574  12.760  0.1290 -0.5629  0.3627
   16DOPE  H11X 2041   8.294   3.616  12.847 -1.8804 -1.1994 -0.5318
   16DOPE  H11Y 2042   8.270   3.570  12.681  0.3694  0.9203  0.0186
   16DOPE  C312 2043   8.415   3.442  12.799  0.5077 -0.3084  0.2803
   16DOPE  H12X 2044   8.477   3.406  12.714 -0.1983 -1.7407  0.3226
   16DOPE  H12Y 2045   8.346   3.356  12.816 -1.0432  0.5128 -1.3823
   16DOPE  C313 2046   8.505   3.453  12.927 -0.4029  0.0230  0.0190
   16DOPE  H13X 2047   8.590   3.381  12.920  0.9629  1.5546  0.2197
   16DOPE  H13Y 2048   8.551   3.554  12.926  3.0995 -1.4182 -1.4028
   16DOPE  C314 2049   8.442   3.428  13.064  0.5409 -0.4349  0.2015
   16DOPE  H14X 2050   8.342   3.477  13.069  0.6891 -0.2065  1.1133
   16DOPE  H14Y 2051   8.501   3.475  13.145 -1.4844  0.3176  1.3256
   16DOPE  C315 2052   8.433   3.275  13.087  0.2154  0.1102  0.9839
   16DOPE  H15X 2053   8.534   3.231  13.072 -0.3561 -1.6644  2.0349
   16DOPE  H15Y 2054   8.370   3.226  13.011  3.1900 -1.0099 -0.9598
   16DOPE  C316 2055   8.373   3.261  13.226 -0.1474 -0.1263 -0.5029
   16DOPE  H16X 2056   8.290   3.333  13.238  1.3738  1.3014  3.1612
   16DOPE  H16Y 2057   8.454   3.303  13.290  0.8071  1.2001 -2.5122
   16DOPE  C317 2058   8.329   3.116  13.252 -0.0482  0.1709  0.3789
   16DOPE  H17X 2059   8.250   3.122  13.330 -0.3462 -1.4119  0.2389
   16DOPE  H17Y 2060   8.275   3.066  13.169  0.2930  0.3807  0.0255
   16DOPE  C318 2061   8.440   3.021  13.286 -0.4007  0.5738 -0.5173
   16DOPE  H18X 2062   8.503   3.070  13.364 -3.3007  3.1431  0.4060
   16DOPE  H18Y 2063   8.403   2.922  13.322  0.4329  0.3212 -0.3300
   16DOPE  H18Z 2064   8.509   2.996  13.203 -0.4315  0.0390 -0.3876
   17DOPE     N 2065   2.847   1.027  14.094 -0.1505  0.3040 -0.1524
   17DOPE   HN1 2066   2.799   1.021  14.185 -1.2401 -0.3203 -0.7536
   17DOPE   HN2 2067   2.950   1.029  14.110 -0.0270 -3.5421  0.3926
   17DOPE   HN3 2068   2.802   1.104  14.040 -3.3582 -0.9292  0.5417
   17DOPE   C12 2069   2.818   0.893  14.035 -0.6165  0.2792 -0.3045
   17DOPE  H12A 2070   2.709   0.887  14.015 -0.1670 -1.4087 -2.7024
   17DOPE  H12B 2071   2.843   0.819  14.114 -1.5237  0.6615  0.3643
   17DOPE   C11 2072   2.901   0.878  13.910 -0.2967  0.0055  0.5362
   17DOPE  H11A 2073   3.009   0.902  13.919 -0.3410  0.0961  0.8136
   17DOPE  H11B 2074   2.866   0.952  13.835  1.3916 -0.1946 -0.5094
   17DOPE     P 2075   2.809   0.708  13.727  0.0990 -0.1785  0.0900
   17DOPE   O13 2076   2.674   0.736  13.766  0.0299  0.2969  0.7891
   17DOPE   O14 2077   2.843   0.570  13.685  0.5249 -0.7690  0.1145
   17DOPE   O11 2078   2.861   0.804  13.608 -0.1837  0.3789 -0.6843
   17DOPE   O12 2079   2.902   0.748  13.848 -0.3941  0.5823  0.2824
   17DOPE    C1 2080   2.995   0.836  13.594 -0.5549 -0.1984  0.3917
   17DOPE    HA 2081   3.063   0.752  13.571  2.2872  1.8171  0.8166
   17DOPE    HB 2082   3.045   0.905  13.666  0.4815  2.1850 -2.3872
   17DOPE    C2 2083   3.009   0.910  13.453  0.1645 -0.5019 -0.1868
   17DOPE    HS 2084   2.936   0.993  13.456  1.8795  1.0603  2.0652
   17DOPE   O21 2085   2.986   0.811  13.348 -0.7123 -0.0280  0.1173
   17DOPE   C21 2086   2.911   0.854  13.252 -0.1856 -0.1249  0.0471
   17DOPE   O22 2087   2.865   0.969  13.250 -0.0396 -0.4775 -0.1285
   17DOPE   C22 2088   2.900   0.756  13.139 -0.0220  0.0597 -0.5647
   17DOPE   H2R 2089   2.874   0.656  13.180 -0.2509  0.1742 -0.4297
   17DOPE   H2S 2090   2.998   0.747  13.087  0.7580 -1.3987  1.0709
   17DOPE    C3 2091   3.151   0.971  13.439 -0.1396 -0.4434  0.5439
   17DOPE    HX 2092   3.230   0.901  13.406  0.7616  1.0365 -0.6100
   17DOPE    HY 2093   3.175   1.012  13.540 -2.4238  0.6996  0.6966
   17DOPE   O31 2094   3.148   1.079  13.343  0.1805 -0.5725 -0.6661
   17DOPE   C31 2095   3.263   1.123  13.305 -1.0245  0.0397  0.5660
   17DOPE   O32 2096   3.371   1.097  13.360  0.2206 -0.1856 -0.1355
   17DOPE   C32 2097   3.261   1.208  13.178 -0.1634 -0.9390  0.0273
   17DOPE   H2X 2098   3.219   1.304  13.215  2.0923  0.5547 -1.0133
   17DOPE   H2Y 2099   3.360   1.242  13.141  0.8235 -3.6960 -0.0881
   17DOPE   C23 2100   2.791   0.783  13.031  0.2959 -0.7233  0.4488
   17DOPE   H3R 2101   2.809   0.882  12.984 -0.8573  0.0430  1.5461
   17DOPE   H3S 2102   2.700   0.805  13.092 -0.3041  0.5320 -0.8275
   17DOPE   C24 2103   2.791   0.687  12.918  0.8470  0.5871 -0.1296
   17DOPE   H4R 2104   2.878   0.689  12.849 -1.1340 -1.8843 -2.9478
   17DOPE   H4S 2105   2.701   0.698  12.854  0.7833  3.5574  0.3408
   17DOPE   C25 2106   2.778   0.535  12.960  0.4333  0.0634 -0.6468
   17DOPE   H5R 2107   2.689   0.538  13.026  0.7423  1.7632 -0.2441
   17DOPE   H5S 2108   2.866   0.494  13.015 -0.4310 -1.9681 -0.7122
   17DOPE   C26 2109   2.759   0.447  12.833 -0.4666  0.1684 -1.2128
   17DOPE   H6R 2110   2.850   0.445  12.770 -0.7728  1.6632 -1.7381
   17DOPE   H6S 2111   2.678   0.492  12.771 -0.6650  1.5832  0.0303
   17DOPE   C27 2112   2.729   0.302  12.862 -0.4443 -0.3774 -0.1282
   17DOPE   H7R 2113   2.621   0.301  12.887 -0.4952 -0.6258 -0.3519
   17DOPE   H7S 2114   2.788   0.270  12.951 -0.3540  0.3457  0.0801
   17DOPE   C28 2115   2.757   0.208  12.744 -0.7142  0.5473  0.0105
   17DOPE   H8R 2116   2.861   0.207  12.705 -0.3622 -0.3003  0.9384
   17DOPE   H8S 2117   2.700   0.231  12.651 -0.4272 -1.7609 -0.8074
   17DOPE   C29 2118   2.716   0.071  12.794  0.6321 -0.6283 -0.3520
   17DOPE   H9R 2119   2.792   0.008  12.844 -0.3010 -0.6993  1.0303
   17DOPE  C210 2120   2.600   0.011  12.763 -0.1919 -0.2545 -0.6839
   17DOPE  H10R 2121   2.579  -0.087  12.809 -1.3762 -0.6345 -1.9662
   17DOPE  C211 2122   2.476   0.075  12.697  0.4582  0.3297  0.4571
   17DOPE  H11R 2123   2.474   0.185  12.706 -1.1654  0.5179 -1.5242
   17DOPE  H11S 2124   2.380   0.042  12.743 -0.1304  0.1227 -0.8781
   17DOPE  C212 2125   2.467   0.038  12.543 -0.2406  0.2792  0.2971
   17DOPE  H12R 2126   2.471  -0.071  12.524 -1.4384  0.7776 -3.6626
   17DOPE  H12S 2127   2.548   0.088  12.485 -0.7156  1.1288  0.3554
   17DOPE  C213 2128   2.336   0.086  12.476 -0.6504 -0.1074  0.0488
   17DOPE  H13R 2129   2.329   0.197  12.474 -0.7945 -0.1127  0.1988
   17DOPE  H13S 2130   2.256   0.046  12.543 -1.1088  1.3151  0.3812
   17DOPE  C214 2131   2.304   0.027  12.340  0.3543  0.5549  1.0453
   17DOPE  H14R 2132   2.193   0.018  12.338  0.4832 -1.5408 -0.0873
   17DOPE  H14S 2133   2.346  -0.076  12.340  1.2655  0.8740  3.5684
   17DOPE  C215 2134   2.359   0.101  12.219  0.0071  0.3875  0.0681
   17DOPE  H15R 2135   2.469   0.100  12.236  0.0080  2.3800  0.4825
   17DOPE  H15S 2136   2.308   0.200  12.216 -1.1387 -0.0387  2.5839
   17DOPE  C216 2137   2.345   0.018  12.093 -0.5090 -0.3072 -0.7786
   17DOPE  H16R 2138   2.237  -0.005  12.079 -0.8618  0.1766  0.9030
   17DOPE  H16S 2139   2.402  -0.076  12.112  1.5146  1.3446  1.9281
   17DOPE  C217 2140   2.405   0.100  11.971  0.4516  0.1155  0.4038
   17DOPE  H17R 2141   2.489   0.165  12.005 -0.5899  0.9714  1.4622
   17DOPE  H17S 2142   2.329   0.166  11.923  0.7326 -0.9622 -1.6192
   17DOPE  C218 2143   2.455   0.004  11.855 -0.2586 -0.1382 -0.4140
   17DOPE  H18R 2144   2.480   0.071  11.770 -0.3638  1.1049  0.5035
   17DOPE  H18S 2145   2.377  -0.071  11.830 -2.8615  1.7662  1.3532
   17DOPE  H18T 2146   2.542  -0.054  11.890 -0.1261 -1.1846 -2.3480
   17DOPE   C33 2147   3.193   1.134  13.059  0.0867  0.2593 -0.0033
   17DOPE   H3X 2148   3.094   1.110  13.103 -1.0457  3.0752 -0.8092
   17DOPE   H3Y 2149   3.256   1.046  13.033 -2.7837 -1.7346 -0.6180
   17DOPE   C34 2150   3.153   1.213  12.939 -0.6402  0.1641 -0.1153
   17DOPE   H4X 2151   3.079   1.291  12.964  0.1873  1.2453 -0.9094
   17DOPE   H4Y 2152   3.241   1.261  12.890 -1.3365  2.0144  0.3841
   17DOPE   C35 2153   3.091   1.131  12.823  0.1694 -0.5379 -0.3047
   17DOPE   H5X 2154   3.008   1.078  12.875 -0.0314  0.5802  0.5608
   17DOPE   H5Y 2155   3.156   1.052  12.778 -1.0463 -0.2024 -2.7732
   17DOPE   C36 2156   3.041   1.212  12.703 -0.0062 -0.4556  0.3016
   17DOPE   H6X 2157   3.117   1.277  12.654 -0.5214  1.3816  1.8514
   17DOPE   H6Y 2158   2.959   1.278  12.738  1.1751  0.8489  0.6935
   17DOPE   C37 2159   2.992   1.112  12.592  0.0206  0.3354 -0.1648
   17DOPE   H7X 2160   3.075   1.039  12.577 -1.2450 -0.9199 -1.3215
   17DOPE   H7Y 2161   2.910   1.049  12.631  1.2140 -0.1377  1.7317
   17DOPE   C38 2162   2.946   1.165  12.454  0.2319  0.2237 -0.4635
   17DOPE   H8X 2163   2.944   1.080  12.382 -1.3363  1.3908 -1.8542
   17DOPE   H8Y 2164   3.029   1.226  12.413  0.8188 -0.3468 -0.1525
   17DOPE   C39 2165   2.824   1.249  12.463 -1.2931 -0.0224  0.3764
   17DOPE   H9X 2166   2.852   1.348  12.503  2.1672 -0.7712  0.1036
   17DOPE  C310 2167   2.703   1.225  12.417  0.1805  0.5831  0.9858
   17DOPE  H10X 2168   2.620   1.296  12.425  0.6755  1.2764  0.0927
   17DOPE  C311 2169   2.669   1.098  12.337  0.2362 -0.5527  0.4761
   17DOPE  H11X 2170   2.759   1.033  12.331  1.1408  0.3264  2.8885
   17DOPE  H11Y 2171   2.607   1.039  12.408 -0.4670 -0.1894  0.1703
   17DOPE  C312 2172   2.614   1.123  12.196 -0.1609  0.0804  0.0009
   17DOPE  H12X 2173   2.685   1.166  12.123  1.4075 -2.0063  0.1966
   17DOPE  H12Y 2174   2.522   1.184  12.190 -0.7199 -0.8960 -4.5911
   17DOPE  C313 2175   2.579   0.982  12.131 -0.2100  0.5184  0.2942
   17DOPE  H13X 2176   2.672   0.929  12.103 -0.7713  0.4554 -1.6236
   17DOPE  H13Y 2177   2.525   0.914  12.200  2.3413 -0.0947  1.8161
   17DOPE  C314 2178   2.495   0.998  11.996 -0.1798  0.0305 -0.5271
   17DOPE  H14X 2179   2.569   1.028  11.919 -0.9848  1.7199 -0.6846
   17DOPE  H14Y 2180   2.416   1.072  12.021  1.3025  1.0453  1.4754
   17DOPE  C315 2181   2.439   0.862  11.958 -0.2107 -0.4134  0.2981
   17DOPE  H15X 2182   2.387   0.800  12.035 -1.5809 -1.8550 -1.6885
   17DOPE  H15Y 2183   2.529   0.801  11.937  0.6969  0.0500  2.5061
   17DOPE  C316 2184   2.362   0.862  11.827 -0.6244  0.3431  0.3477
   17DOPE  H16X 2185   2.351   0.757  11.795  2.1116 -0.4460  1.7540
   17DOPE  H16Y 2186   2.418   0.916  11.748  0.1234 -0.2835  0.4463
   17DOPE  C317 2187   2.224   0.926  11.825 -0.6807  0.1848 -0.5324
   17DOPE  H17X 2188   2.224   1.028  11.868  0.1529  0.2830 -0.7576
   17DOPE  H17Y 2189   2.184   0.938  11.722 -0.4975 -1.8626 -0.8853
   17DOPE  C318 2190   2.108   0.854  11.910  0.7122 -0.3401 -0.2733
   17DOPE  H18X 2191   2.123   0.863  12.020 -0.0687  0.4315 -0.2248
   17DOPE  H18Y 2192   2.009   0.897  11.887  1.3579  0.7316 -1.1536
   17DOPE  H18Z 2193   2.105   0.745  11.889 -1.4139 -0.3854  0.0594
   18DOPE     N 2194   7.406   3.819  14.235  0.0727 -1.1684  0.0716
   18DOPE   HN1 2195   7.354   3.736  14.270 -0.8167 -0.6115  0.1114
   18DOPE   HN2 2196   7.493   3.790  14.186  0.4082  1.9283 -1.3616
   18DOPE   HN3 2197   7.436   3.889  14.306 -0.1064 -1.4892  0.4673
   18DOPE   C12 2198   7.308   3.898  14.144 -0.1571  0.1935 -0.5549
   18DOPE  H12A 2199   7.289   3.832  14.057  1.6927 -0.7308 -0.2975
   18DOPE  H12B 2200   7.356   3.994  14.114 -1.2728  0.7559 -0.6104
   18DOPE   C11 2201   7.176   3.928  14.219  0.3265 -0.0157 -0.4064
   18DOPE  H11A 2202   7.122   3.999  14.153 -0.6831 -0.2270  0.1744
   18DOPE  H11B 2203   7.195   3.974  14.318 -0.6702 -0.9232  0.2332
   18DOPE     P 2204   6.957   3.809  14.311  0.1450 -0.0489  0.4485
   18DOPE   O13 2205   6.926   3.943  14.363 -0.0724 -0.4163  0.7997
   18DOPE   O14 2206   6.960   3.693  14.405 -0.3045 -0.4506 -0.3270
   18DOPE   O11 2207   6.859   3.781  14.199  0.4381 -0.6393 -0.0406
   18DOPE   O12 2208   7.101   3.811  14.230 -0.1111  0.5501  0.2573
   18DOPE    C1 2209   6.903   3.720  14.080  0.3430 -0.2233  0.6359
   18DOPE    HA 2210   6.814   3.675  14.032  0.7683  2.2217 -2.8378
   18DOPE    HB 2211   6.982   3.644  14.095 -0.0620 -0.8020 -0.1256
   18DOPE    C2 2212   6.953   3.822  13.982  1.0484  0.4902  0.2768
   18DOPE    HS 2213   7.059   3.852  13.995  1.0772  0.4824  0.0615
   18DOPE   O21 2214   6.862   3.931  13.966 -0.1065  0.1167 -0.1718
   18DOPE   C21 2215   6.913   4.046  13.935 -0.0125 -0.3188  0.1899
   18DOPE   O22 2216   7.031   4.074  13.922 -0.1137 -0.6894 -0.6047
   18DOPE   C22 2217   6.803   4.151  13.899 -0.0020 -0.5275  0.5966
   18DOPE   H2R 2218   6.762   4.186  13.996 -1.1515  0.5350 -0.2440
   18DOPE   H2S 2219   6.725   4.086  13.852  1.5406 -0.3233 -2.4558
   18DOPE    C3 2220   6.966   3.737  13.847 -0.1786 -0.0555  0.8497
   18DOPE    HX 2221   6.874   3.683  13.817  0.3873 -0.8344  0.4896
   18DOPE    HY 2222   7.041   3.656  13.860 -0.7730 -0.6633  0.5325
   18DOPE   O31 2223   6.999   3.822  13.735  0.5067 -0.0658  0.0138
   18DOPE   C31 2224   7.121   3.856  13.727  0.0890  0.8581 -0.2990
   18DOPE   O32 2225   7.212   3.795  13.790  0.4767 -1.0060 -0.1738
   18DOPE   C32 2226   7.149   3.972  13.634  0.1516  0.5297 -0.3047
   18DOPE   H2X 2227   7.059   3.982  13.570 -1.0689 -3.6193  0.4379
   18DOPE   H2Y 2228   7.165   4.065  13.693 -1.0502 -0.0837  1.0350
   18DOPE   C23 2229   6.845   4.255  13.787 -0.7233 -0.1874  0.2555
   18DOPE   H3R 2230   6.944   4.303  13.805 -0.5492  0.1299 -1.3552
   18DOPE   H3S 2231   6.773   4.340  13.780  1.1002  1.3161 -1.8107
   18DOPE   C24 2232   6.841   4.197  13.649 -0.4463 -0.1542 -1.0463
   18DOPE   H4R 2233   6.738   4.176  13.614 -0.3975 -1.0907 -0.6424
   18DOPE   H4S 2234   6.897   4.101  13.650 -1.9150 -1.1072 -2.7760
   18DOPE   C25 2235   6.906   4.293  13.547  0.6146 -0.1937  0.2944
   18DOPE   H5R 2236   6.911   4.242  13.448 -2.7690  1.1370 -0.7206
   18DOPE   H5S 2237   7.001   4.329  13.592  1.3989 -1.4466 -0.3013
   18DOPE   C26 2238   6.821   4.418  13.507 -0.1348  0.0960  0.2797
   18DOPE   H6R 2239   6.815   4.478  13.601 -3.4244 -0.0451  0.2743
   18DOPE   H6S 2240   6.716   4.392  13.486 -0.1957  0.8564 -0.4275
   18DOPE   C27 2241   6.879   4.506  13.392  1.2762 -0.4700 -0.3708
   18DOPE   H7R 2242   6.911   4.444  13.305 -0.0683  0.0212 -1.2464
   18DOPE   H7S 2243   6.971   4.560  13.425  0.3571 -0.2212  1.9778
   18DOPE   C28 2244   6.783   4.623  13.347 -0.3370 -0.0823  0.4211
   18DOPE   H8R 2245   6.769   4.700  13.427  3.0134  3.1452 -1.7622
   18DOPE   H8S 2246   6.681   4.590  13.316 -0.3877  0.2362  0.2355
   18DOPE   C29 2247   6.858   4.692  13.235  0.3779  0.1837 -0.2424
   18DOPE   H9R 2248   6.967   4.683  13.246  0.4243  0.3222 -0.5651
   18DOPE  C210 2249   6.799   4.752  13.128 -0.8215 -0.9700 -0.2543
   18DOPE  H10R 2250   6.868   4.797  13.054  0.1541 -2.1381 -0.0823
   18DOPE  C211 2251   6.655   4.764  13.097 -0.2908  0.2794  0.1277
   18DOPE  H11R 2252   6.594   4.746  13.188 -1.0400  0.2826 -0.3685
   18DOPE  H11S 2253   6.621   4.686  13.026  1.1178 -1.0677  0.8647
   18DOPE  C212 2254   6.609   4.897  13.035  0.2970  0.2313 -0.3334
   18DOPE  H12R 2255   6.652   4.906  12.933 -0.3483  0.4187 -0.5973
   18DOPE  H12S 2256   6.645   4.985  13.093 -0.8333  0.2840  0.3251
   18DOPE  C213 2257   6.450   4.890  13.055 -0.8055 -0.7099  0.3876
   18DOPE  H13R 2258   6.429   4.876  13.163 -0.5817  0.9386  0.6780
   18DOPE  H13S 2259   6.405   4.809  12.993 -3.4847  1.0558 -0.1721
   18DOPE  C214 2260   6.387   5.025  13.015 -0.1089  0.2004 -0.1373
   18DOPE  H14R 2261   6.416   5.065  12.915 -2.4761  0.8119 -0.6453
   18DOPE  H14S 2262   6.423   5.099  13.089  0.0833 -1.1063  1.1201
   18DOPE  C215 2263   6.230   5.014  13.012 -0.4102 -0.7310  0.0633
   18DOPE  H15R 2264   6.183   4.971  13.103  1.1665  0.0375  1.2861
   18DOPE  H15S 2265   6.206   4.938  12.934 -0.2383 -0.0900 -0.6298
   18DOPE  C216 2266   6.168   5.146  12.977  0.7301 -0.4619  0.8880
   18DOPE  H16R 2267   6.212   5.184  12.882 -1.9824 -0.0127 -0.2800
   18DOPE  H16S 2268   6.190   5.222  13.055  2.6327 -0.5059  0.4368
   18DOPE  C217 2269   6.017   5.141  12.966 -0.2876 -0.0331 -0.2327
   18DOPE  H17R 2270   5.978   5.079  13.050 -1.0127  0.2616 -0.3387
   18DOPE  H17S 2271   5.998   5.091  12.868  0.7617 -0.1970 -0.3681
   18DOPE  C218 2272   5.955   5.280  12.955  0.6058  0.1753 -0.6926
   18DOPE  H18R 2273   5.847   5.259  12.942  0.2356  2.0239 -0.8647
   18DOPE  H18S 2274   6.000   5.323  12.863  0.2181 -0.8574 -1.3865
   18DOPE  H18T 2275   5.969   5.335  13.050  3.1827 -2.6520  0.7526
   18DOPE   C33 2276   7.276   3.941  13.552 -0.7791  0.7234  0.5385
   18DOPE   H3X 2277   7.271   3.845  13.496  1.5609  0.7621  0.1343
   18DOPE   H3Y 2278   7.366   3.931  13.617 -1.3958  0.4101  1.3500
   18DOPE   C34 2279   7.320   4.045  13.452 -0.0408  0.6732  0.3546
   18DOPE   H4X 2280   7.229   4.095  13.414 -0.2414  0.0095 -0.0652
   18DOPE   H4Y 2281   7.373   4.130  13.500  2.1380 -1.0618  1.1897
   18DOPE   C35 2282   7.409   3.985  13.336  0.5087  0.0945 -0.2787
   18DOPE   H5X 2283   7.356   3.894  13.298  0.9244 -0.3291  0.1385
   18DOPE   H5Y 2284   7.500   3.944  13.385 -0.8957 -1.1062  1.4828
   18DOPE   C36 2285   7.424   4.087  13.228  0.0021 -0.1162  0.8017
   18DOPE   H6X 2286   7.448   4.189  13.264 -0.0314  0.8714 -1.8000
   18DOPE   H6Y 2287   7.328   4.089  13.172  0.7047  0.0582 -0.4371
   18DOPE   C37 2288   7.539   4.042  13.127  0.0673 -0.1849 -0.0840
   18DOPE   H7X 2289   7.619   4.000  13.192  0.9831  0.5710 -0.6927
   18DOPE   H7Y 2290   7.519   3.950  13.068  1.7827 -0.5058 -0.2419
   18DOPE   C38 2291   7.577   4.154  13.031  0.2876  0.3764  0.4094
   18DOPE   H8X 2292   7.669   4.131  12.974 -0.8279 -0.4117 -1.1752
   18DOPE   H8Y 2293   7.621   4.233  13.095  1.4338 -0.9598  1.3120
   18DOPE   C39 2294   7.457   4.203  12.950 -0.0771 -0.0859  0.0195
   18DOPE   H9X 2295   7.367   4.220  13.012 -0.7308  1.4542 -1.2730
   18DOPE  C310 2296   7.453   4.205  12.812 -0.8396 -0.3648  0.1416
   18DOPE  H10X 2297   7.366   4.246  12.758  0.6894  1.2146 -1.2898
   18DOPE  C311 2298   7.559   4.178  12.715 -0.8001 -0.0260  0.8436
   18DOPE  H11X 2299   7.663   4.151  12.743 -0.1804 -0.7932 -1.9234
   18DOPE  H11Y 2300   7.531   4.102  12.639  0.9303  1.1167 -1.0417
   18DOPE  C312 2301   7.571   4.310  12.631  0.2028  0.6348  0.9041
   18DOPE  H12X 2302   7.552   4.393  12.702 -0.2236  1.2024  0.1327
   18DOPE  H12Y 2303   7.485   4.313  12.561 -0.1323 -0.2646  1.2693
   18DOPE  C313 2304   7.714   4.327  12.565 -0.7642 -0.4579  0.8807
   18DOPE  H13X 2305   7.791   4.331  12.645 -2.5360 -1.7242  2.7774
   18DOPE  H13Y 2306   7.737   4.239  12.501  0.4841  0.5119 -0.0423
   18DOPE  C314 2307   7.735   4.450  12.475  0.8073  0.1737 -0.1728
   18DOPE  H14X 2308   7.699   4.540  12.530 -4.1259 -1.2351 -0.5846
   18DOPE  H14Y 2309   7.680   4.441  12.378  2.3044  1.0205 -1.1488
   18DOPE  C315 2310   7.888   4.465  12.438  0.2443  0.4702 -0.5290
   18DOPE  H15X 2311   7.920   4.385  12.368 -1.4607 -0.3886 -0.3804
   18DOPE  H15Y 2312   7.932   4.467  12.540 -1.8235  1.0324  0.4209
   18DOPE  C316 2313   7.918   4.598  12.366  0.7762  0.1546  0.5033
   18DOPE  H16X 2314   7.877   4.676  12.433  0.9340  0.3676  0.3548
   18DOPE  H16Y 2315   7.862   4.598  12.270 -0.9686  0.2167  1.4882
   18DOPE  C317 2316   8.064   4.638  12.355 -0.1160  0.3120  0.1059
   18DOPE  H17X 2317   8.081   4.739  12.311 -0.9480  0.2581 -0.3613
   18DOPE  H17Y 2318   8.113   4.621  12.453  0.9211 -1.3058 -0.6503
   18DOPE  C318 2319   8.136   4.545  12.265  0.2177 -0.5686  0.1634
   18DOPE  H18X 2320   8.089   4.546  12.164 -0.4240  0.4668  0.4568
   18DOPE  H18Y 2321   8.238   4.579  12.237 -0.4484  0.4644 -1.1580
   18DOPE  H18Z 2322   8.145   4.439  12.296 -0.0259 -1.6574 -3.0919
   19DOPE     N 2323   6.751   5.544  13.816  0.3109 -0.0544  0.0909
   19DOPE   HN1 2324   6.733   5.555  13.918 -0.3528 -0.5499  0.0361
   19DOPE   HN2 2325   6.693   5.614  13.765 -0.8771 -0.1560  1.2402
   19DOPE   HN3 2326   6.714   5.450  13.792  0.9501 -0.0408 -0.9951
   19DOPE   C12 2327   6.898   5.573  13.793  0.0556 -0.1846  0.7118
   19DOPE  H12A 2328   6.915   5.681  13.809  0.6780  0.1799 -2.0855
   19DOPE  H12B 2329   6.925   5.543  13.690 -2.0586  1.8297 -0.5342
   19DOPE   C11 2330   6.994   5.478  13.879 -0.4292  0.0418 -0.4330
   19DOPE  H11A 2331   6.973   5.503  13.986  3.0499 -0.6925  0.5484
   19DOPE  H11B 2332   7.100   5.508  13.868 -0.5623  0.0296 -1.9053
   19DOPE     P 2333   6.944   5.227  13.942 -0.0928 -0.2131  0.1813
   19DOPE   O13 2334   6.803   5.234  13.982  0.3611 -0.5327 -0.1650
   19DOPE   O14 2335   7.043   5.235  14.050  0.5889  0.1658  0.2306
   19DOPE   O11 2336   6.965   5.093  13.852  0.3640  0.7574  0.2362
   19DOPE   O12 2337   6.975   5.344  13.847  0.0740  0.2526  0.4203
   19DOPE    C1 2338   7.087   5.015  13.853  0.4236 -0.0383  0.9164
   19DOPE    HA 2339   7.058   4.910  13.876  0.6791  0.0997  1.9114
   19DOPE    HB 2340   7.158   5.033  13.936  2.2988 -1.9127 -0.1678
   19DOPE    C2 2341   7.155   5.004  13.716  0.4587  0.5570  0.1948
   19DOPE    HS 2342   7.249   4.946  13.725  1.4398  2.1888  1.1427
   19DOPE   O21 2343   7.197   5.130  13.660 -0.4810 -0.2915 -0.0680
   19DOPE   C21 2344   7.294   5.182  13.725  0.3035  0.4735  0.5934
   19DOPE   O22 2345   7.349   5.137  13.822 -0.5119  0.3953  0.0891
   19DOPE   C22 2346   7.324   5.317  13.666 -0.5545 -0.3895  0.4895
   19DOPE   H2R 2347   7.373   5.373  13.749 -0.1808 -0.1824  0.1367
   19DOPE   H2S 2348   7.229   5.373  13.648 -0.2048 -0.1310 -0.6488
   19DOPE    C3 2349   7.067   4.938  13.607 -0.0998  0.1863 -0.8369
   19DOPE    HX 2350   6.967   4.986  13.610 -0.5987 -0.8574 -0.2180
   19DOPE    HY 2351   7.061   4.828  13.624 -2.8153  0.4723  0.5963
   19DOPE   O31 2352   7.117   4.942  13.472 -1.1573 -0.3255 -0.1439
   19DOPE   C31 2353   7.063   5.031  13.387  0.3130 -0.2176 -0.2120
   19DOPE   O32 2354   6.985   5.117  13.423  0.5328 -0.6180 -0.7972
   19DOPE   C32 2355   7.132   5.017  13.248  0.4206  0.3696 -0.1412
   19DOPE   H2X 2356   7.152   4.908  13.245 -2.2232 -0.1555 -1.6622
   19DOPE   H2Y 2357   7.053   5.037  13.173  2.1036  2.7593 -1.3969
   19DOPE   C23 2358   7.416   5.317  13.548 -0.2754 -0.0823 -0.3483
   19DOPE   H3R 2359   7.354   5.287  13.461 -0.7821  1.8268 -0.6766
   19DOPE   H3S 2360   7.503   5.248  13.563  0.2568  0.3100 -1.4694
   19DOPE   C24 2361   7.465   5.458  13.525  0.3383  0.2537  0.1624
   19DOPE   H4R 2362   7.526   5.496  13.609  1.4500  0.5252 -0.7345
   19DOPE   H4S 2363   7.377   5.521  13.503 -0.0729 -0.9683 -2.0719
   19DOPE   C25 2364   7.559   5.466  13.397  0.0583  0.1499 -0.2403
   19DOPE   H5R 2365   7.645   5.398  13.414  0.0222 -0.0053 -0.6720
   19DOPE   H5S 2366   7.590   5.572  13.385 -1.6912  0.5708 -1.3935
   19DOPE   C26 2367   7.491   5.439  13.261  0.0389 -0.2417 -0.2855
   19DOPE   H6R 2368   7.439   5.341  13.263 -2.3545  0.9042 -2.0628
   19DOPE   H6S 2369   7.582   5.433  13.197  1.0373  0.5697  0.9903
   19DOPE   C27 2370   7.390   5.547  13.225  0.5790 -0.5327  0.6689
   19DOPE   H7R 2371   7.440   5.646  13.220 -0.7495  0.1558  0.5349
   19DOPE   H7S 2372   7.297   5.552  13.286 -0.5433  0.2179 -1.0169
   19DOPE   C28 2373   7.339   5.529  13.077  0.0270 -0.4880  0.1113
   19DOPE   H8R 2374   7.271   5.442  13.068  1.7076 -1.7873 -0.6566
   19DOPE   H8S 2375   7.428   5.497  13.019 -0.5272  1.1871 -1.7873
   19DOPE   C29 2376   7.281   5.659  13.022  0.0186  0.1662  0.3899
   19DOPE   H9R 2377   7.353   5.730  12.978  0.8815 -2.3218 -2.6510
   19DOPE  C210 2378   7.156   5.690  12.996  0.6310  0.0520  0.5690
   19DOPE  H10R 2379   7.132   5.788  12.952 -0.1318  0.6876  2.3337
   19DOPE  C211 2380   7.036   5.608  13.022  0.3141 -0.1948 -0.3946
   19DOPE  H11R 2381   7.048   5.504  13.062 -0.1779 -0.3372 -0.6148
   19DOPE  H11S 2382   6.982   5.594  12.926 -0.9531 -2.6416  0.5772
   19DOPE  C212 2383   6.950   5.677  13.120  0.8131 -0.3778  0.3717
   19DOPE  H12R 2384   6.900   5.763  13.070 -2.3821 -0.7241  2.6522
   19DOPE  H12S 2385   7.000   5.718  13.210  0.1628  0.0001  0.5630
   19DOPE  C213 2386   6.841   5.590  13.174  0.0318  0.3482  0.5345
   19DOPE  H13R 2387   6.881   5.495  13.215 -4.0286 -1.7943  0.0650
   19DOPE  H13S 2388   6.780   5.565  13.084 -1.1985  1.1206  1.1293
   19DOPE  C214 2389   6.756   5.665  13.277  0.5841 -0.4703 -0.5646
   19DOPE  H14R 2390   6.694   5.744  13.229 -0.4870  0.0686  1.5707
   19DOPE  H14S 2391   6.821   5.717  13.351 -1.0934  1.5466 -0.4162
   19DOPE  C215 2392   6.645   5.588  13.357  0.5658  0.1872 -0.4519
   19DOPE  H15R 2393   6.589   5.660  13.420  1.1833 -0.5669  1.0118
   19DOPE  H15S 2394   6.699   5.521  13.427 -1.7323 -0.3554  0.9255
   19DOPE  C216 2395   6.552   5.488  13.281 -0.1009 -0.1765 -0.2704
   19DOPE  H16R 2396   6.515   5.425  13.365 -0.7774 -1.4867 -1.5117
   19DOPE  H16S 2397   6.621   5.427  13.219  0.2739 -0.8733  0.8089
   19DOPE  C217 2398   6.430   5.539  13.198  0.2939  0.0392 -0.0768
   19DOPE  H17R 2399   6.469   5.609  13.120 -1.0428 -0.0377 -0.8413
   19DOPE  H17S 2400   6.363   5.598  13.264 -0.4926 -1.7922  0.8118
   19DOPE  C218 2401   6.358   5.414  13.133  0.0781 -0.2998 -0.5980
   19DOPE  H18R 2402   6.411   5.387  13.039  0.4026 -1.3639 -0.1194
   19DOPE  H18S 2403   6.258   5.462  13.122 -0.0826 -0.2943  0.6823
   19DOPE  H18T 2404   6.364   5.327  13.202  1.9355  0.8619  0.7912
   19DOPE   C33 2405   7.261   5.087  13.229 -0.0639  0.5363  0.3068
   19DOPE   H3X 2406   7.255   5.197  13.245 -0.7845  0.4241  0.8542
   19DOPE   H3Y 2407   7.286   5.092  13.121 -0.3760 -0.2085  0.1987
   19DOPE   C34 2408   7.380   5.031  13.305 -0.8188  0.6192 -0.4003
   19DOPE   H4X 2409   7.449   5.118  13.305 -2.4794  2.0514  1.7926
   19DOPE   H4Y 2410   7.364   5.017  13.414  0.4653 -0.3903 -0.3199
   19DOPE   C35 2411   7.449   4.907  13.242 -0.3908 -0.1364 -1.0044
   19DOPE   H5X 2412   7.503   4.938  13.150  0.5416 -0.7895 -0.6960
   19DOPE   H5Y 2413   7.379   4.827  13.209 -1.3103  1.1713 -2.3001
   19DOPE   C36 2414   7.542   4.829  13.344 -0.4947 -1.6189 -0.2252
   19DOPE   H6X 2415   7.583   4.733  13.307 -1.2183 -2.3750  0.9176
   19DOPE   H6Y 2416   7.481   4.806  13.433 -1.3249 -0.7581 -0.5489
   19DOPE   C37 2417   7.668   4.912  13.390 -0.1768  0.0116  0.1109
   19DOPE   H7X 2418   7.743   4.897  13.309 -0.6110 -0.8265 -0.1463
   19DOPE   H7Y 2419   7.638   5.019  13.387 -0.3826 -0.0412 -2.6555
   19DOPE   C38 2420   7.741   4.876  13.522  0.7000  0.3225  0.8404
   19DOPE   H8X 2421   7.833   4.937  13.530 -0.4852  2.1776  1.1349
   19DOPE   H8Y 2422   7.775   4.770  13.525  0.9461  0.2162 -2.2743
   19DOPE   C39 2423   7.648   4.908  13.636  0.0335  0.3281  0.1012
   19DOPE   H9X 2424   7.574   4.830  13.657 -0.3404  1.0801  1.7016
   19DOPE  C310 2425   7.646   5.020  13.710 -0.1586 -0.0955 -0.2570
   19DOPE  H10X 2426   7.549   5.045  13.757 -0.4357 -1.0677 -0.2894
   19DOPE  C311 2427   7.729   5.141  13.683 -0.4805 -0.5893 -0.0166
   19DOPE  H11X 2428   7.758   5.158  13.577 -0.0746 -2.3790 -0.2286
   19DOPE  H11Y 2429   7.672   5.235  13.700  1.2116  1.1272 -2.9882
   19DOPE  C312 2430   7.864   5.157  13.761 -0.0621  0.2952  0.1437
   19DOPE  H12X 2431   7.936   5.084  13.717  1.1463  2.0916 -0.9816
   19DOPE  H12Y 2432   7.851   5.129  13.867  0.2299 -1.2309 -0.1924
   19DOPE  C313 2433   7.926   5.297  13.748  0.0619 -0.8747 -0.0493
   19DOPE  H13X 2434   7.846   5.367  13.782  1.0121 -0.6388  1.8166
   19DOPE  H13Y 2435   8.008   5.314  13.821 -0.7485  0.3175  0.6281
   19DOPE  C314 2436   7.973   5.327  13.607  0.5387 -0.3470 -0.3611
   19DOPE  H14X 2437   7.885   5.327  13.540 -0.4896  2.0441  0.8825
   19DOPE  H14Y 2438   8.036   5.240  13.575 -3.0524 -2.7474 -1.4962
   19DOPE  C315 2439   8.042   5.463  13.605 -0.2645 -0.2536 -0.5900
   19DOPE  H15X 2440   8.102   5.471  13.512  0.1323  2.1213 -0.2014
   19DOPE  H15Y 2441   8.115   5.465  13.690 -0.6899 -1.7676 -0.1703
   19DOPE  C316 2442   7.953   5.594  13.590 -0.2490  0.4980  0.2404
   19DOPE  H16X 2443   8.018   5.680  13.615 -0.1629 -0.0824  2.2057
   19DOPE  H16Y 2444   7.861   5.587  13.652 -1.4947 -1.0328 -1.6829
   19DOPE  C317 2445   7.910   5.615  13.438  0.6974 -0.2963 -0.3133
   19DOPE  H17X 2446   7.994   5.637  13.369  0.3346  0.8305 -0.4124
   19DOPE  H17Y 2447   7.863   5.520  13.404  1.9030 -0.6528 -1.0449
   19DOPE  C318 2448   7.802   5.725  13.416 -0.9694 -0.1518 -0.0471
   19DOPE  H18X 2449   7.846   5.822  13.448  2.5716 -1.8923  0.9292
   19DOPE  H18Y 2450   7.769   5.729  13.310 -0.6495 -0.4841 -0.1611
   19DOPE  H18Z 2451   7.719   5.716  13.489  0.2380 -0.3219  1.3476
   20DOPE     N 2452   8.149   7.918  14.274  0.6572  0.2679 -0.4397
   20DOPE   HN1 2453   8.073   7.989  14.284  0.7225  0.9464 -3.7143
   20DOPE   HN2 2454   8.232   7.957  14.226  0.9970 -1.7483 -1.6140
   20DOPE   HN3 2455   8.113   7.850  14.205 -0.3809 -1.1097  1.3586
   20DOPE   C12 2456   8.160   7.839  14.404  0.4902  0.0833 -0.4945
   20DOPE  H12A 2457   8.073   7.771  14.408 -1.8639  2.8345 -1.4564
   20DOPE  H12B 2458   8.152   7.916  14.485 -0.8276  0.6360 -1.1188
   20DOPE   C11 2459   8.298   7.762  14.422 -0.2060 -0.7136  0.0453
   20DOPE  H11A 2460   8.286   7.711  14.520 -0.3843  0.5758  0.7187
   20DOPE  H11B 2461   8.369   7.845  14.442 -1.9093  0.1736  3.0650
   20DOPE     P 2462   8.460   7.593  14.297  0.1194 -0.1586  0.2711
   20DOPE   O13 2463   8.456   7.499  14.408  0.3619 -0.5252 -0.3578
   20DOPE   O14 2464   8.574   7.691  14.294 -0.0753  0.4310  0.7030
   20DOPE   O11 2465   8.443   7.521  14.154  0.6218  0.4347  0.0734
   20DOPE   O12 2466   8.322   7.681  14.310 -0.3997  0.1064 -0.4926
   20DOPE    C1 2467   8.456   7.585  14.031  0.0563  0.0769 -0.4317
   20DOPE    HA 2468   8.556   7.563  13.987  0.9673 -2.3435  2.5117
   20DOPE    HB 2469   8.444   7.696  14.037  1.4974  0.1899  1.2266
   20DOPE    C2 2470   8.334   7.548  13.940  0.6807  0.2647 -0.2919
   20DOPE    HS 2471   8.243   7.575  13.996  0.7864 -1.6345  0.9057
   20DOPE   O21 2472   8.344   7.405  13.904  0.4185 -0.1308 -0.5074
   20DOPE   C21 2473   8.226   7.331  13.919 -0.8357  0.1822 -0.7089
   20DOPE   O22 2474   8.126   7.373  13.973 -1.1464  0.2973 -0.5315
   20DOPE   C22 2475   8.253   7.182  13.887 -0.3957  0.2469 -0.2928
   20DOPE   H2R 2476   8.303   7.128  13.971  0.0918  0.9033 -0.1591
   20DOPE   H2S 2477   8.320   7.180  13.799 -0.8881 -0.0783 -0.6644
   20DOPE    C3 2478   8.332   7.623  13.801 -0.6226  0.1668  0.8020
   20DOPE    HX 2479   8.426   7.592  13.751 -1.0305  1.7347 -1.0107
   20DOPE    HY 2480   8.344   7.732  13.816  2.0608  0.4825 -2.4968
   20DOPE   O31 2481   8.224   7.593  13.712  0.9331  0.0694  0.3788
   20DOPE   C31 2482   8.114   7.652  13.750  0.5385  0.0570  0.2244
   20DOPE   O32 2483   8.105   7.721  13.849 -0.4052 -0.6093  0.1059
   20DOPE   C32 2484   8.005   7.634  13.639 -0.0306  0.2346  0.0389
   20DOPE   H2X 2485   8.032   7.672  13.538 -0.0631  1.0091  0.3117
   20DOPE   H2Y 2486   8.007   7.523  13.632  1.3433  0.2081  0.5998
   20DOPE   C23 2487   8.128   7.104  13.857  0.4383  0.0313 -0.4766
   20DOPE   H3R 2488   8.056   7.102  13.941  1.8384 -1.1348  0.7299
   20DOPE   H3S 2489   8.150   6.999  13.827  0.1063 -0.0601 -0.3980
   20DOPE   C24 2490   8.051   7.158  13.733 -0.1965 -0.0405 -0.3883
   20DOPE   H4R 2491   8.011   7.259  13.755 -0.0246 -0.1582  0.4871
   20DOPE   H4S 2492   7.974   7.080  13.716 -1.6208  0.2033  3.8227
   20DOPE   C25 2493   8.132   7.181  13.604 -0.2762 -0.2400  0.2007
   20DOPE   H5R 2494   8.156   7.076  13.576 -0.9664 -1.2504  3.0367
   20DOPE   H5S 2495   8.225   7.236  13.629  0.2500 -0.8021 -0.4830
   20DOPE   C26 2496   8.045   7.242  13.491 -0.1768 -0.0508 -0.2486
   20DOPE   H6R 2497   8.004   7.334  13.537 -1.1725 -1.0660  0.9600
   20DOPE   H6S 2498   7.959   7.175  13.469  0.8455 -1.4495 -0.1571
   20DOPE   C27 2499   8.124   7.269  13.361 -0.1052  0.3246 -0.0214
   20DOPE   H7R 2500   8.179   7.177  13.331  0.0252 -0.0587  1.2980
   20DOPE   H7S 2501   8.197   7.351  13.375 -1.0544  1.1852  0.0151
   20DOPE   C28 2502   8.029   7.315  13.255 -0.0837 -0.3457 -0.2083
   20DOPE   H8R 2503   7.996   7.408  13.307 -0.6994 -0.5651 -0.2018
   20DOPE   H8S 2504   7.946   7.244  13.239 -3.0760  2.7544  0.4025
   20DOPE   C29 2505   8.096   7.344  13.123  0.5368  0.1414 -0.1213
   20DOPE   H9R 2506   8.123   7.249  13.076  1.3504 -0.7141  1.9201
   20DOPE  C210 2507   8.129   7.454  13.057  0.5258 -0.1163  0.4233
   20DOPE  H10R 2508   8.179   7.451  12.959  0.5130  0.2564  0.4050
   20DOPE  C211 2509   8.105   7.593  13.108  0.3746  0.0132  0.2794
   20DOPE  H11R 2510   8.071   7.597  13.214  0.4252  0.0797  0.2942
   20DOPE  H11S 2511   8.018   7.631  13.050  0.8369 -2.2623 -2.0585
   20DOPE  C212 2512   8.231   7.683  13.099 -1.2106 -0.2900  0.1724
   20DOPE  H12R 2513   8.216   7.788  13.133 -1.0144  1.1857 -3.7726
   20DOPE  H12S 2514   8.263   7.689  12.993  0.2145 -0.3159  0.5796
   20DOPE  C213 2515   8.346   7.623  13.190 -0.3088  0.4007  0.8569
   20DOPE  H13R 2516   8.440   7.673  13.157  0.9814 -1.5009  1.4942
   20DOPE  H13S 2517   8.362   7.516  13.163  0.5404 -0.1140  3.1173
   20DOPE  C214 2518   8.338   7.645  13.337  0.1650 -0.0641  0.4841
   20DOPE  H14R 2519   8.244   7.602  13.380 -0.5758  0.9177 -0.1084
   20DOPE  H14S 2520   8.342   7.754  13.356  0.4070 -0.0345  0.2641
   20DOPE  C215 2521   8.447   7.600  13.427 -0.7762  0.3597 -0.2503
   20DOPE  H15R 2522   8.411   7.596  13.532 -2.5873  0.9617 -0.8196
   20DOPE  H15S 2523   8.530   7.674  13.420 -1.7331  1.4221 -0.6668
   20DOPE  C216 2524   8.486   7.453  13.404  0.1029  0.6107 -0.1533
   20DOPE  H16R 2525   8.573   7.438  13.337  1.5902 -0.7147  1.9356
   20DOPE  H16S 2526   8.393   7.404  13.366 -1.1868  1.3649  1.8506
   20DOPE  C217 2527   8.502   7.374  13.535 -0.0363 -0.2269 -0.2283
   20DOPE  H17R 2528   8.405   7.365  13.589 -0.3001 -0.3637 -0.7188
   20DOPE  H17S 2529   8.578   7.418  13.602 -2.0402  0.5977  1.6188
   20DOPE  C218 2530   8.552   7.222  13.518  0.4282  0.4376 -0.4354
   20DOPE  H18R 2531   8.662   7.226  13.506  0.4458  0.9684 -0.0950
   20DOPE  H18S 2532   8.498   7.165  13.439  0.0605 -1.6402  1.2204
   20DOPE  H18T 2533   8.534   7.175  13.617  1.6370  0.4960 -0.1770
   20DOPE   C33 2534   7.873   7.698  13.690 -0.2929 -0.3934  0.0618
   20DOPE   H3X 2535   7.886   7.804  13.660  1.5567 -0.5997  0.0220
   20DOPE   H3Y 2536   7.855   7.686  13.800  1.2585 -0.4728  0.3298
   20DOPE   C34 2537   7.755   7.636  13.613  0.6682  0.0650 -0.3586
   20DOPE   H4X 2538   7.752   7.528  13.637  1.7280  0.5557  2.3745
   20DOPE   H4Y 2539   7.662   7.692  13.640 -1.2674 -3.0116 -0.1438
   20DOPE   C35 2540   7.762   7.638  13.457  0.1476 -0.0848 -0.3880
   20DOPE   H5X 2541   7.867   7.620  13.426 -0.0426  1.6032 -2.2218
   20DOPE   H5Y 2542   7.728   7.741  13.432  1.3527  0.4020 -0.0891
   20DOPE   C36 2543   7.674   7.531  13.386 -0.0488  0.1573  0.1861
   20DOPE   H6X 2544   7.569   7.544  13.419 -0.1542  1.3399 -0.5386
   20DOPE   H6Y 2545   7.705   7.429  13.416  0.7102  0.8964  2.0878
   20DOPE   C37 2546   7.689   7.543  13.231  0.0032  0.0256 -0.4422
   20DOPE   H7X 2547   7.641   7.633  13.187  1.2554  0.0015 -1.9435
   20DOPE   H7Y 2548   7.795   7.546  13.196 -0.4102 -1.1904 -1.8350
   20DOPE   C38 2549   7.630   7.415  13.168 -0.0013 -0.5901 -0.3433
   20DOPE   H8X 2550   7.525   7.406  13.202  0.1454 -0.2688  0.2271
   20DOPE   H8Y 2551   7.682   7.326  13.209 -1.9484 -1.9750 -0.7954
   20DOPE   C39 2552   7.655   7.406  13.020 -0.0920 -0.3143  0.5367
   20DOPE   H9X 2553   7.740   7.467  12.984 -1.5848  0.9220 -1.0499
   20DOPE  C310 2554   7.571   7.365  12.926  0.9497 -0.1399  0.4798
   20DOPE  H10X 2555   7.605   7.363  12.821  1.0019  3.2896  0.3300
   20DOPE  C311 2556   7.432   7.311  12.947  0.6623  0.0989  0.7562
   20DOPE  H11X 2557   7.412   7.221  12.885  1.1201  0.8213 -0.4703
   20DOPE  H11Y 2558   7.408   7.291  13.054  0.2472  1.4405  0.9351
   20DOPE  C312 2559   7.330   7.417  12.895 -0.6587 -0.4256 -0.1515
   20DOPE  H12X 2560   7.330   7.432  12.785  0.6634 -0.2868 -0.1592
   20DOPE  H12Y 2561   7.350   7.516  12.941 -0.9461  0.0683 -1.0571
   20DOPE  C313 2562   7.192   7.361  12.921  0.2342  0.0135  0.3798
   20DOPE  H13X 2563   7.186   7.266  12.863  0.3955  0.5774 -0.5925
   20DOPE  H13Y 2564   7.186   7.327  13.026  2.8303 -2.0954 -0.0367
   20DOPE  C314 2565   7.091   7.451  12.870  0.5843 -0.5888  0.2205
   20DOPE  H14X 2566   7.106   7.457  12.760  1.1691  0.5277  0.3344
   20DOPE  H14Y 2567   7.107   7.559  12.894  0.4970 -0.3343 -0.7867
   20DOPE  C315 2568   6.940   7.431  12.902 -0.3549  0.6799  0.5436
   20DOPE  H15X 2569   6.924   7.330  12.858 -0.0374  0.8623 -0.0067
   20DOPE  H15Y 2570   6.880   7.502  12.843  0.4172 -0.5858 -1.9179
   20DOPE  C316 2571   6.904   7.446  13.048  0.1723 -0.0501 -0.4534
   20DOPE  H16X 2572   6.897   7.556  13.063  1.4396 -0.0092 -0.0543
   20DOPE  H16Y 2573   6.980   7.393  13.109 -1.5867 -3.1833 -0.7769
   20DOPE  C317 2574   6.768   7.384  13.075 -0.4490 -0.0342  0.0250
   20DOPE  H17X 2575   6.727   7.414  13.173 -2.6250  2.4518 -1.5224
   20DOPE  H17Y 2576   6.695   7.424  13.002  0.7730  1.8889 -0.2408
   20DOPE  C318 2577   6.777   7.227  13.068 -0.2082 -0.2959 -0.5981
   20DOPE  H18X 2578   6.682   7.175  13.094 -0.0521 -0.6351 -0.7105
   20DOPE  H18Y 2579   6.815   7.181  12.975  0.8851 -1.4898  0.3947
   20DOPE  H18Z 2580   6.847   7.192  13.147 -0.4129 -1.3379 -0.8658
   21DOPE     N 2581   3.295   0.619  14.592 -0.0622 -0.1115  0.4005
   21DOPE   HN1 2582   3.212   0.652  14.538 -0.0155 -1.6759 -0.6770
   21DOPE   HN2 2583   3.265   0.533  14.641  0.2833  0.1607  1.0912
   21DOPE   HN3 2584   3.339   0.694  14.649  0.9539 -0.8717  0.6231
   21DOPE   C12 2585   3.397   0.577  14.489  0.0684 -0.2575  0.0966
   21DOPE  H12A 2586   3.376   0.473  14.456 -1.0414 -0.9249  2.6032
   21DOPE  H12B 2587   3.492   0.583  14.546  0.6130  0.8732 -0.9109
   21DOPE   C11 2588   3.409   0.679  14.375  0.3005  0.1107  0.7080
   21DOPE  H11A 2589   3.487   0.657  14.299  0.3130 -0.7082  0.9498
   21DOPE  H11B 2590   3.436   0.778  14.417  0.1424 -0.2634  1.7276
   21DOPE     P 2591   3.240   0.601  14.198 -0.1036  0.7348  0.1890
   21DOPE   O13 2592   3.117   0.657  14.139 -0.7465  0.0579  0.2948
   21DOPE   O14 2593   3.219   0.466  14.251 -0.7641 -0.3014  0.0582
   21DOPE   O11 2594   3.354   0.594  14.090 -0.3831 -0.8579 -0.8141
   21DOPE   O12 2595   3.281   0.698  14.315 -0.4965  0.5794  0.0728
   21DOPE    C1 2596   3.425   0.707  14.046  0.0152 -0.5111  0.6204
   21DOPE    HA 2597   3.484   0.752  14.129 -0.2602 -0.3224  0.7155
   21DOPE    HB 2598   3.356   0.785  14.009  1.6027  0.7195  0.1095
   21DOPE    C2 2599   3.527   0.679  13.927 -0.1755 -0.0931  0.9503
   21DOPE    HS 2600   3.580   0.774  13.903 -2.2327  1.3178  1.6656
   21DOPE   O21 2601   3.464   0.626  13.808  0.1280 -0.0201 -0.5360
   21DOPE   C21 2602   3.418   0.722  13.730 -0.6934  0.7439 -0.4530
   21DOPE   O22 2603   3.418   0.843  13.758  0.0082 -0.0700  0.2501
   21DOPE   C22 2604   3.380   0.663  13.595 -0.2635  0.1066  0.3203
   21DOPE   H2R 2605   3.327   0.742  13.538 -1.5210  0.9330  2.5124
   21DOPE   H2S 2606   3.297   0.592  13.612  0.1908 -0.5541 -0.1614
   21DOPE    C3 2607   3.631   0.577  13.971 -0.0715 -0.3903 -0.5330
   21DOPE    HX 2608   3.578   0.483  14.001  0.1771 -0.8702 -1.5564
   21DOPE    HY 2609   3.690   0.633  14.047 -1.8202  1.7682 -0.6692
   21DOPE   O31 2610   3.720   0.560  13.863  0.5088  0.0241 -0.2767
   21DOPE   C31 2611   3.813   0.470  13.884  0.7579 -0.0312 -0.0273
   21DOPE   O32 2612   3.822   0.409  13.991 -0.5154  0.0287  0.5616
   21DOPE   C32 2613   3.903   0.451  13.760 -0.5266  0.1367  0.3957
   21DOPE   H2X 2614   3.891   0.351  13.715  0.4771  0.7277 -1.2581
   21DOPE   H2Y 2615   3.873   0.519  13.677  0.5102  1.2167  0.8749
   21DOPE   C23 2616   3.489   0.587  13.526  0.4886  0.2245 -0.0460
   21DOPE   H3R 2617   3.495   0.479  13.553 -0.5382  0.3575  0.7927
   21DOPE   H3S 2618   3.587   0.631  13.555  0.3444 -0.9467  2.5423
   21DOPE   C24 2619   3.463   0.582  13.375  0.1440 -0.3116  0.0925
   21DOPE   H4R 2620   3.356   0.558  13.356  0.0059  0.4176 -0.0747
   21DOPE   H4S 2621   3.516   0.496  13.330 -1.8462 -0.5434 -2.0023
   21DOPE   C25 2622   3.503   0.710  13.299  0.0786  0.5034 -0.8500
   21DOPE   H5R 2623   3.594   0.748  13.352 -0.5337  0.3755  0.3260
   21DOPE   H5S 2624   3.423   0.787  13.305 -0.5343 -0.1953  0.3191
   21DOPE   C26 2625   3.521   0.681  13.150  0.1679 -0.0280  0.1777
   21DOPE   H6R 2626   3.463   0.590  13.124 -1.6304  1.0282  0.3288
   21DOPE   H6S 2627   3.623   0.637  13.147  0.3288  0.2685  0.9220
   21DOPE   C27 2628   3.500   0.801  13.056 -0.3312  0.1424  0.3811
   21DOPE   H7R 2629   3.570   0.884  13.079 -0.5281  0.1046  1.1330
   21DOPE   H7S 2630   3.399   0.846  13.067  0.0272  1.2421 -0.5646
   21DOPE   C28 2631   3.516   0.758  12.911 -0.0466 -0.2185  0.0881
   21DOPE   H8R 2632   3.463   0.666  12.877  0.4442  0.1569 -1.8050
   21DOPE   H8S 2633   3.625   0.736  12.903  0.2230  0.7131  1.0411
   21DOPE   C29 2634   3.480   0.860  12.809 -0.0430  0.1358  0.2313
   21DOPE   H9R 2635   3.561   0.934  12.818  2.5304 -2.3951 -0.4158
   21DOPE  C210 2636   3.376   0.874  12.724 -0.3318  0.6565  1.4423
   21DOPE  H10R 2637   3.381   0.954  12.650 -0.8146 -0.7044 -0.1251
   21DOPE  C211 2638   3.260   0.779  12.691 -0.5704 -0.7408  0.0171
   21DOPE  H11R 2639   3.165   0.835  12.706 -1.1552 -0.8739 -2.7293
   21DOPE  H11S 2640   3.268   0.687  12.753  1.1848 -1.4610 -1.1929
   21DOPE  C212 2641   3.259   0.709  12.553 -0.7099  0.4337 -0.7227
   21DOPE  H12R 2642   3.351   0.647  12.544 -0.5704  0.3227  1.1043
   21DOPE  H12S 2643   3.274   0.783  12.472 -1.0568  2.7965  1.2432
   21DOPE  C213 2644   3.138   0.618  12.532  0.4176  0.5451  0.3246
   21DOPE  H13R 2645   3.046   0.680  12.542  0.4165  0.8212 -1.1493
   21DOPE  H13S 2646   3.136   0.544  12.615  1.4691  1.3621  1.1167
   21DOPE  C214 2647   3.140   0.546  12.400  0.4313  0.2330  0.0532
   21DOPE  H14R 2648   3.223   0.474  12.383 -2.4087 -2.8271 -1.9921
   21DOPE  H14S 2649   3.147   0.620  12.317  0.3567  1.1999  0.8913
   21DOPE  C215 2650   3.013   0.467  12.356  0.2410  0.7533 -0.1174
   21DOPE  H15R 2651   3.045   0.401  12.272  1.5652  0.0719  0.8909
   21DOPE  H15S 2652   2.936   0.536  12.315 -1.8702 -0.5645  1.4343
   21DOPE  C216 2653   2.930   0.385  12.459  0.3601  0.3728 -0.4870
   21DOPE  H16R 2654   2.857   0.448  12.515  3.5809  2.9427  1.2132
   21DOPE  H16S 2655   3.002   0.348  12.535 -0.5036 -2.2240 -0.8532
   21DOPE  C217 2656   2.861   0.266  12.393 -0.6407  0.1586  0.0497
   21DOPE  H17R 2657   2.806   0.209  12.471  1.1735  0.2566  1.5015
   21DOPE  H17S 2658   2.942   0.198  12.357 -0.3068  0.3360  0.4449
   21DOPE  C218 2659   2.760   0.294  12.286 -0.2125 -0.1017  0.1430
   21DOPE  H18R 2660   2.747   0.216  12.208 -0.1184  1.1368 -1.1647
   21DOPE  H18S 2661   2.791   0.382  12.225  1.3689 -0.7868 -0.0920
   21DOPE  H18T 2662   2.661   0.310  12.333 -0.6001 -1.2976 -0.2192
   21DOPE   C33 2663   4.052   0.470  13.785  0.1148 -0.5854  0.0489
   21DOPE   H3X 2664   4.069   0.440  13.891  0.3031 -0.2670  0.1093
   21DOPE   H3Y 2665   4.074   0.578  13.770  1.3606 -0.2211  3.5907
   21DOPE   C34 2666   4.141   0.387  13.688  0.6712 -0.0674 -0.6061
   21DOPE   H4X 2667   4.244   0.406  13.725 -0.0835  0.9760  1.0932
   21DOPE   H4Y 2668   4.107   0.283  13.708  2.4355 -0.3535  1.2606
   21DOPE   C35 2669   4.134   0.426  13.543  0.4442 -0.2905 -0.2650
   21DOPE   H5X 2670   4.187   0.523  13.534 -1.3147  0.7376  0.1059
   21DOPE   H5Y 2671   4.030   0.455  13.515 -0.8167 -1.4911  2.7082
   21DOPE   C36 2672   4.216   0.333  13.457 -0.8728  0.0887 -0.1235
   21DOPE   H6X 2673   4.214   0.369  13.352  2.8964 -1.1820 -0.7947
   21DOPE   H6Y 2674   4.165   0.234  13.450 -0.3951 -0.3101  1.5608
   21DOPE   C37 2675   4.362   0.308  13.491  0.0346  0.8057  0.3092
   21DOPE   H7X 2676   4.371   0.271  13.595 -0.1589  0.2191  0.1193
   21DOPE   H7Y 2677   4.400   0.226  13.427 -2.5375 -1.5099  1.5297
   21DOPE   C38 2678   4.450   0.437  13.467  0.2525 -0.1807  0.2991
   21DOPE   H8X 2679   4.420   0.513  13.543  3.8054  0.5827  1.1078
   21DOPE   H8Y 2680   4.433   0.466  13.362  1.9487 -0.7394 -0.1559
   21DOPE   C39 2681   4.600   0.428  13.469 -0.3812 -0.2958 -1.0164
   21DOPE   H9X 2682   4.649   0.453  13.563 -1.0682  1.0877 -1.0060
   21DOPE  C310 2683   4.677   0.407  13.357 -0.4415  0.2129  0.1204
   21DOPE  H10X 2684   4.786   0.410  13.369 -0.3703  0.5795 -0.6015
   21DOPE  C311 2685   4.635   0.367  13.217 -0.6004 -0.6875  0.0827
   21DOPE  H11X 2686   4.667   0.262  13.197 -0.5413 -0.8386  0.9402
   21DOPE  H11Y 2687   4.526   0.375  13.197 -0.7916  0.1476  1.3798
   21DOPE  C312 2688   4.696   0.449  13.092 -0.3102  0.4585  0.1916
   21DOPE  H12X 2689   4.712   0.377  13.010 -3.2450 -1.1916  0.9265
   21DOPE  H12Y 2690   4.794   0.496  13.115 -0.2391 -0.6621  2.4660
   21DOPE  C313 2691   4.595   0.556  13.048  0.3871  0.4749 -0.2644
   21DOPE  H13X 2692   4.502   0.496  13.049  0.6963 -0.1229 -2.3055
   21DOPE  H13Y 2693   4.592   0.633  13.128  1.7928  0.8752 -0.5663
   21DOPE  C314 2694   4.631   0.630  12.921 -0.1352  0.2054  0.1562
   21DOPE  H14X 2695   4.642   0.565  12.831 -1.0112  0.3737 -0.0851
   21DOPE  H14Y 2696   4.729   0.676  12.943  0.4264 -1.1315  0.5899
   21DOPE  C315 2697   4.520   0.726  12.870 -0.6727  0.3194 -0.4421
   21DOPE  H15X 2698   4.494   0.806  12.943 -0.2280  0.0860 -0.0242
   21DOPE  H15Y 2699   4.438   0.655  12.844 -0.3062  0.6315 -2.6723
   21DOPE  C316 2700   4.562   0.803  12.742  0.3345  0.0146 -0.0488
   21DOPE  H16X 2701   4.561   0.730  12.658  0.0518  0.2113 -0.2153
   21DOPE  H16Y 2702   4.668   0.836  12.745  0.5894 -0.7735 -0.0232
   21DOPE  C317 2703   4.464   0.917  12.715  0.5586  0.2690 -0.2723
   21DOPE  H17X 2704   4.470   0.991  12.797 -1.9502  1.1711 -0.7899
   21DOPE  H17Y 2705   4.503   0.969  12.626 -0.6083 -1.9322 -2.1814
   21DOPE  C318 2706   4.320   0.860  12.689 -0.6169 -0.6697 -0.3895
   21DOPE  H18X 2707   4.327   0.764  12.634  1.4504  1.4300 -4.1694
   21DOPE  H18Y 2708   4.269   0.829  12.783  0.1665 -1.3157 -0.1670
   21DOPE  H18Z 2709   4.253   0.926  12.630  1.1126  2.0170  0.4751
   22DOPE     N 2710   7.753   4.731  14.730  0.5007 -0.5172 -0.5986
   22DOPE   HN1 2711   7.679   4.681  14.784  1.4435  0.0736  1.3181
   22DOPE   HN2 2712   7.810   4.799  14.783 -1.4757  1.8197 -1.3123
   22DOPE   HN3 2713   7.704   4.781  14.653 -1.1575 -1.1176  0.0114
   22DOPE   C12 2714   7.849   4.625  14.667 -0.7741  0.5669  0.4680
   22DOPE  H12A 2715   7.889   4.561  14.748 -1.6829 -2.3342 -1.2010
   22DOPE  H12B 2716   7.935   4.678  14.622  0.6901 -2.4004 -0.4841
   22DOPE   C11 2717   7.769   4.545  14.556  0.8218 -0.5948 -0.1924
   22DOPE  H11A 2718   7.694   4.484  14.610  0.9841 -1.3281 -0.7709
   22DOPE  H11B 2719   7.840   4.474  14.510  0.5851 -0.0464 -1.4490
   22DOPE     P 2720   7.682   4.595  14.318  0.0889  0.6173  0.1695
   22DOPE   O13 2721   7.586   4.480  14.318 -0.7270 -0.5185 -0.5647
   22DOPE   O14 2722   7.821   4.572  14.267  0.4100  0.3337  0.1837
   22DOPE   O11 2723   7.618   4.722  14.242 -0.0116  0.1270  0.0173
   22DOPE   O12 2724   7.701   4.640  14.467 -0.0956  0.7557  0.2884
   22DOPE    C1 2725   7.486   4.719  14.185 -0.6301 -0.5767 -0.1857
   22DOPE    HA 2726   7.439   4.819  14.171 -3.7190 -1.9232 -0.4483
   22DOPE    HB 2727   7.418   4.674  14.260 -0.5781  0.3051  0.4002
   22DOPE    C2 2728   7.505   4.652  14.046 -0.4274 -0.0142 -0.5128
   22DOPE    HS 2729   7.530   4.548  14.074 -1.8853 -0.1356  0.4619
   22DOPE   O21 2730   7.617   4.723  13.980  0.4494  0.1266 -0.7732
   22DOPE   C21 2731   7.695   4.648  13.901  0.1591 -0.4020 -0.7186
   22DOPE   O22 2732   7.688   4.531  13.876  0.6598  0.4700 -0.0550
   22DOPE   C22 2733   7.806   4.732  13.846  0.1243 -0.0615 -0.1040
   22DOPE   H2R 2734   7.786   4.839  13.868  0.6381  0.3279 -1.3947
   22DOPE   H2S 2735   7.811   4.733  13.735 -0.2452  0.0869 -0.1212
   22DOPE    C3 2736   7.373   4.650  13.962 -0.5135  0.0078 -0.3754
   22DOPE    HX 2737   7.337   4.755  13.950 -0.8601 -0.2905 -2.3118
   22DOPE    HY 2738   7.298   4.583  14.009  1.1095 -0.6526  1.4030
   22DOPE   O31 2739   7.403   4.606  13.831 -0.2667  0.8132  0.0944
   22DOPE   C31 2740   7.294   4.617  13.746 -0.7585 -0.3003 -0.2336
   22DOPE   O32 2741   7.193   4.675  13.773 -0.1920 -0.4135  0.2159
   22DOPE   C32 2742   7.335   4.570  13.607 -0.0450 -0.8351 -0.3114
   22DOPE   H2X 2743   7.338   4.660  13.541 -1.0012 -1.2024 -0.8696
   22DOPE   H2Y 2744   7.441   4.535  13.607  0.3929  0.3881 -1.4954
   22DOPE   C23 2745   7.943   4.683  13.892 -0.2967 -0.7951 -0.6350
   22DOPE   H3R 2746   7.961   4.574  13.877  0.3819 -0.9173  0.8508
   22DOPE   H3S 2747   7.965   4.685  14.001 -0.3713 -0.8887 -0.6176
   22DOPE   C24 2748   8.062   4.757  13.822  0.1304  0.3504  0.4485
   22DOPE   H4R 2749   8.151   4.726  13.882 -1.6978 -1.7613  2.2732
   22DOPE   H4S 2750   8.038   4.863  13.847  0.9503  0.2799  1.6397
   22DOPE   C25 2751   8.083   4.725  13.680  0.2325  0.4894  0.4274
   22DOPE   H5R 2752   7.988   4.763  13.636 -0.7649 -0.6727  1.4737
   22DOPE   H5S 2753   8.096   4.615  13.671  1.5706  0.6889 -0.4852
   22DOPE   C26 2754   8.206   4.796  13.623 -0.4006 -0.9068  0.0699
   22DOPE   H6R 2755   8.289   4.798  13.698 -0.0621 -1.2351 -0.2913
   22DOPE   H6S 2756   8.171   4.901  13.620 -0.8910 -1.0309  1.0450
   22DOPE   C27 2757   8.251   4.744  13.485  0.6553  0.6339  0.2882
   22DOPE   H7R 2758   8.278   4.637  13.500 -0.3162  0.4518  0.8124
   22DOPE   H7S 2759   8.335   4.806  13.444  0.8483  0.9769  1.1917
   22DOPE   C28 2760   8.129   4.767  13.390  0.6202 -0.3677  0.4134
   22DOPE   H8R 2761   8.099   4.873  13.402  1.3477 -0.3249  2.1447
   22DOPE   H8S 2762   8.047   4.700  13.422  0.6243 -1.1474 -1.1243
   22DOPE   C29 2763   8.144   4.732  13.247  0.0818 -0.6314  0.3957
   22DOPE   H9R 2764   8.108   4.631  13.219 -2.4985  0.4700 -0.5427
   22DOPE  C210 2765   8.168   4.819  13.144  0.1378  0.0475  0.0679
   22DOPE  H10R 2766   8.175   4.769  13.046  3.7504  0.6823 -0.1294
   22DOPE  C211 2767   8.201   4.967  13.158 -0.7754 -0.2498 -0.1162
   22DOPE  H11R 2768   8.289   4.998  13.097 -1.9040 -0.1635 -1.7714
   22DOPE  H11S 2769   8.240   4.986  13.260 -0.4763 -1.8670  0.0973
   22DOPE  C212 2770   8.098   5.073  13.134 -0.1165 -0.5927 -0.1012
   22DOPE  H12R 2771   8.017   5.045  13.205 -0.3607 -2.3735 -1.0423
   22DOPE  H12S 2772   8.067   5.073  13.028  1.6132 -1.2815 -0.6468
   22DOPE  C213 2773   8.165   5.214  13.163 -0.2118 -0.2996 -0.2311
   22DOPE  H13R 2774   8.225   5.244  13.073 -0.6638 -1.0325 -0.7868
   22DOPE  H13S 2775   8.231   5.209  13.252 -1.3828 -1.1250  0.6100
   22DOPE  C214 2776   8.054   5.319  13.197 -0.2942 -0.0904  0.0839
   22DOPE  H14R 2777   8.105   5.409  13.237  0.0256  0.2595 -1.0741
   22DOPE  H14S 2778   7.993   5.285  13.283 -0.8709  1.0286  0.1374
   22DOPE  C215 2779   7.952   5.359  13.088 -0.3446  0.2700 -0.6303
   22DOPE  H15R 2780   7.890   5.443  13.125 -1.7606 -0.6543 -0.8459
   22DOPE  H15S 2781   7.887   5.273  13.063  1.9833 -1.7322 -0.2702
   22DOPE  C216 2782   8.016   5.416  12.956 -0.1245  0.4987 -0.3980
   22DOPE  H16R 2783   8.085   5.339  12.915  0.9665  0.0367  2.0752
   22DOPE  H16S 2784   8.082   5.502  12.981  0.5731  0.3507 -1.6786
   22DOPE  C217 2785   7.919   5.466  12.847 -0.2645  0.3631 -0.4925
   22DOPE  H17R 2786   7.861   5.380  12.806 -0.7396  0.1235  0.6286
   22DOPE  H17S 2787   7.980   5.505  12.763 -1.2962 -0.3156 -1.5917
   22DOPE  C218 2788   7.827   5.578  12.900 -0.5826  0.8967  0.2553
   22DOPE  H18R 2789   7.777   5.541  12.992  2.1025 -0.1503  1.3878
   22DOPE  H18S 2790   7.766   5.611  12.813 -0.5564 -3.2393 -1.5668
   22DOPE  H18T 2791   7.894   5.657  12.939 -2.0068  2.2208  0.1179
   22DOPE   C33 2792   7.242   4.463  13.547  0.7216  0.4309 -1.0277
   22DOPE   H3X 2793   7.137   4.497  13.534  0.4719 -1.0113 -3.4954
   22DOPE   H3Y 2794   7.250   4.375  13.614 -1.2606 -0.0534 -1.3504
   22DOPE   C34 2795   7.296   4.413  13.417  0.2940 -0.7944  0.5084
   22DOPE   H4X 2796   7.407   4.405  13.423  0.4564  1.0975  0.7796
   22DOPE   H4Y 2797   7.267   4.309  13.392  0.5214 -0.8499  0.4690
   22DOPE   C35 2798   7.242   4.500  13.302 -0.1635 -0.0144  0.4169
   22DOPE   H5X 2799   7.268   4.607  13.319 -1.1969  0.4148 -0.5449
   22DOPE   H5Y 2800   7.132   4.506  13.311 -0.0247 -0.8438  4.3940
   22DOPE   C36 2801   7.282   4.455  13.162 -0.5587  0.2260  0.2153
   22DOPE   H6X 2802   7.237   4.357  13.133  0.9006  0.5540 -3.8068
   22DOPE   H6Y 2803   7.391   4.436  13.154 -0.3377  1.5744 -0.1975
   22DOPE   C37 2804   7.233   4.558  13.054  0.2811 -0.3263  0.1157
   22DOPE   H7X 2805   7.122   4.572  13.059  0.2017 -0.9160  0.0916
   22DOPE   H7Y 2806   7.286   4.653  13.072 -4.3904  2.3119  1.6690
   22DOPE   C38 2807   7.265   4.504  12.916  0.1452  0.2146 -0.2949
   22DOPE   H8X 2808   7.224   4.401  12.905  0.8856 -0.2307  0.9595
   22DOPE   H8Y 2809   7.373   4.506  12.888 -0.2642  1.0611 -1.9177
   22DOPE   C39 2810   7.209   4.610  12.822  0.1470 -0.5475  0.5058
   22DOPE   H9X 2811   7.261   4.705  12.803 -1.0358  0.2927  1.2853
   22DOPE  C310 2812   7.099   4.596  12.745  1.3665 -0.0984 -0.4911
   22DOPE  H10X 2813   7.073   4.679  12.678  0.3718 -0.4859 -0.6009
   22DOPE  C311 2814   6.999   4.479  12.743  0.1367 -0.4631  0.0521
   22DOPE  H11X 2815   6.968   4.438  12.644 -0.7967 -0.4543  0.3250
   22DOPE  H11Y 2816   7.047   4.400  12.804  1.8162 -0.1548 -0.8264
   22DOPE  C312 2817   6.866   4.528  12.814 -0.3649  0.0993  0.5821
   22DOPE  H12X 2818   6.886   4.555  12.920  0.6580 -0.5336  0.5596
   22DOPE  H12Y 2819   6.793   4.445  12.815 -0.0376 -0.1880  0.5263
   22DOPE  C313 2820   6.793   4.652  12.753  0.0572  0.5329 -0.5896
   22DOPE  H13X 2821   6.703   4.684  12.810  0.4967  0.5309  0.1142
   22DOPE  H13Y 2822   6.866   4.736  12.748 -0.9777  1.4488 -0.7998
   22DOPE  C314 2823   6.727   4.618  12.615  0.0292  0.2211 -0.5202
   22DOPE  H14X 2824   6.640   4.550  12.628 -0.4061  1.0631  1.2422
   22DOPE  H14Y 2825   6.796   4.563  12.547 -1.8215  0.7810 -3.0205
   22DOPE  C315 2826   6.684   4.748  12.539  0.3220  0.3455  0.1014
   22DOPE  H15X 2827   6.661   4.706  12.439 -0.1125 -0.6571  0.6065
   22DOPE  H15Y 2828   6.769   4.820  12.536 -0.1363  1.0522  2.3749
   22DOPE  C316 2829   6.564   4.821  12.591 -0.7710 -0.0411 -0.9278
   22DOPE  H16X 2830   6.584   4.843  12.698 -1.7850 -2.6484 -0.1204
   22DOPE  H16Y 2831   6.482   4.748  12.576 -0.5933 -0.4158 -0.1383
   22DOPE  C317 2832   6.532   4.947  12.510  0.5402 -0.0851  0.3188
   22DOPE  H17X 2833   6.439   4.994  12.550 -0.0925  0.3247 -1.5378
   22DOPE  H17Y 2834   6.613   5.022  12.528 -2.7090  3.8950 -0.1167
   22DOPE  C318 2835   6.514   4.934  12.358  0.6574  0.0292  0.5354
   22DOPE  H18X 2836   6.477   4.833  12.332 -1.3292  0.7759  0.2221
   22DOPE  H18Y 2837   6.433   5.004  12.325  0.1400 -1.4316 -1.4540
   22DOPE  H18Z 2838   6.608   4.958  12.304 -0.1022 -1.7723 -1.7571
   23DOPE     N 2839   6.391   8.223  14.472  0.3193  0.1416  0.1364
   23DOPE   HN1 2840   6.368   8.123  14.490 -1.2764  0.1969 -1.4019
   23DOPE   HN2 2841   6.493   8.229  14.453  0.1032  1.1402 -0.7948
   23DOPE   HN3 2842   6.383   8.255  14.571 -1.2931 -0.3490  0.1836
   23DOPE   C12 2843   6.301   8.292  14.373 -0.1660 -0.3390  0.0300
   23DOPE  H12A 2844   6.201   8.295  14.422 -1.0835  2.2536 -1.8254
   23DOPE  H12B 2845   6.306   8.230  14.281  1.4811 -0.2881  0.0710
   23DOPE   C11 2846   6.339   8.440  14.353 -0.5988 -0.2987 -0.3225
   23DOPE  H11A 2847   6.327   8.488  14.453 -2.9380 -3.8013  1.2690
   23DOPE  H11B 2848   6.269   8.491  14.283  0.9300  2.5685  0.0867
   23DOPE     P 2849   6.550   8.579  14.266  0.4502  0.1139  0.0947
   23DOPE   O13 2850   6.677   8.552  14.201 -0.5170  0.0548  0.1947
   23DOPE   O14 2851   6.553   8.676  14.378 -0.4106 -0.7132  0.4522
   23DOPE   O11 2852   6.437   8.623  14.166  0.0942 -0.1915 -0.0366
   23DOPE   O12 2853   6.476   8.442  14.303  0.1333 -0.2686 -0.0883
   23DOPE    C1 2854   6.442   8.581  14.029  0.4688  0.1010  0.3184
   23DOPE    HA 2855   6.359   8.508  14.015  0.5325  0.2331 -0.8343
   23DOPE    HB 2856   6.537   8.527  14.007  0.8778  1.6659 -2.1016
   23DOPE    C2 2857   6.422   8.687  13.929  1.1151  0.0004  0.1915
   23DOPE    HS 2858   6.311   8.695  13.918  1.0072  2.0106  2.1324
   23DOPE   O21 2859   6.483   8.628  13.817 -0.1204  0.4619  0.3317
   23DOPE   C21 2860   6.419   8.656  13.700  1.1108  0.3559  0.5797
   23DOPE   O22 2861   6.317   8.724  13.695  0.8404  0.0163 -0.2483
   23DOPE   C22 2862   6.496   8.584  13.584 -0.2833  0.7896 -0.1884
   23DOPE   H2R 2863   6.418   8.523  13.535  0.0349  0.3963 -0.2119
   23DOPE   H2S 2864   6.584   8.528  13.623  0.6919  1.7954 -0.8662
   23DOPE    C3 2865   6.490   8.816  13.973  0.0432  0.0033 -0.2192
   23DOPE    HX 2866   6.593   8.784  14.000 -0.5125 -1.6297  0.1069
   23DOPE    HY 2867   6.433   8.860  14.057  1.0089  2.0473 -0.5831
   23DOPE   O31 2868   6.488   8.916  13.864 -0.1697 -0.2320  1.0305
   23DOPE   C31 2869   6.570   9.019  13.898  0.0471 -0.5012 -0.9868
   23DOPE   O32 2870   6.638   9.025  14.004  0.1537 -0.2795 -0.1892
   23DOPE   C32 2871   6.575   9.128  13.797 -0.7930  0.0950  0.7964
   23DOPE   H2X 2872   6.473   9.144  13.754 -0.6285  0.6601  0.6093
   23DOPE   H2Y 2873   6.617   9.220  13.844  1.6799  1.3291 -3.2958
   23DOPE   C23 2874   6.571   8.688  13.497  0.1200 -0.5601  0.3290
   23DOPE   H3R 2875   6.637   8.737  13.571  0.6087  0.1095 -0.5384
   23DOPE   H3S 2876   6.503   8.766  13.457 -0.4053 -1.0963  0.1692
   23DOPE   C24 2877   6.658   8.647  13.375 -0.8560 -0.4553  0.6492
   23DOPE   H4R 2878   6.598   8.623  13.284 -0.8417  0.7942  0.2843
   23DOPE   H4S 2879   6.722   8.561  13.400  1.5225 -0.0373 -3.1560
   23DOPE   C25 2880   6.753   8.761  13.334  0.4880 -0.4167 -0.0063
   23DOPE   H5R 2881   6.825   8.719  13.261  2.2359 -0.7644  1.8247
   23DOPE   H5S 2882   6.808   8.796  13.424 -0.7955 -1.0381  1.0668
   23DOPE   C26 2883   6.678   8.878  13.255 -0.2847 -0.7863  0.1816
   23DOPE   H6R 2884   6.755   8.947  13.215 -2.4061  1.1279 -0.8243
   23DOPE   H6S 2885   6.594   8.921  13.314 -0.9808  1.0065 -1.9779
   23DOPE   C27 2886   6.609   8.817  13.125  0.7987  0.4748 -0.0314
   23DOPE   H7R 2887   6.519   8.761  13.157  0.5482  0.5248 -0.6412
   23DOPE   H7S 2888   6.688   8.751  13.082  0.7796 -0.7604  1.7027
   23DOPE   C28 2889   6.571   8.922  13.026 -0.4117  0.1910  0.4373
   23DOPE   H8R 2890   6.646   9.004  13.028  0.9443 -1.0106  0.9051
   23DOPE   H8S 2891   6.469   8.962  13.043  0.3235  2.1293  0.5051
   23DOPE   C29 2892   6.561   8.852  12.889 -0.1983  0.4596 -0.0238
   23DOPE   H9R 2893   6.502   8.759  12.887 -1.9185  1.5017  0.4350
   23DOPE  C210 2894   6.593   8.896  12.764 -0.5016 -0.4360  0.1531
   23DOPE  H10R 2895   6.578   8.830  12.678 -1.6185  1.6667 -1.3556
   23DOPE  C211 2896   6.648   9.038  12.727 -0.1338  0.7308 -0.3990
   23DOPE  H11R 2897   6.729   9.039  12.652  1.5658  0.1355  1.3312
   23DOPE  H11S 2898   6.696   9.082  12.817  1.4581 -0.7163 -0.4926
   23DOPE  C212 2899   6.537   9.136  12.681 -0.6754 -0.3461 -0.0431
   23DOPE  H12R 2900   6.593   9.229  12.657 -2.1870  0.5582 -0.2001
   23DOPE  H12S 2901   6.453   9.161  12.750  0.4251 -1.2160  1.6746
   23DOPE  C213 2902   6.480   9.102  12.541 -0.6166  0.0716 -0.6832
   23DOPE  H13R 2903   6.438   9.003  12.566 -2.0279  1.2720  2.1297
   23DOPE  H13S 2904   6.557   9.096  12.461 -1.0372  0.6754 -1.1386
   23DOPE  C214 2905   6.362   9.191  12.498 -0.4788 -0.1837 -0.1310
   23DOPE  H14R 2906   6.302   9.214  12.589  1.8554 -0.5583  1.5808
   23DOPE  H14S 2907   6.302   9.132  12.425  0.0561 -1.6674  0.6148
   23DOPE  C215 2908   6.394   9.326  12.444 -0.8485 -0.4841  1.0410
   23DOPE  H15R 2909   6.487   9.320  12.383  0.9218 -0.8358  3.6063
   23DOPE  H15S 2910   6.422   9.392  12.530 -0.8595  0.5526  0.2736
   23DOPE  C216 2911   6.270   9.387  12.374  0.1620  0.4017 -0.5808
   23DOPE  H16R 2912   6.185   9.382  12.445  0.2766 -1.2030 -0.5290
   23DOPE  H16S 2913   6.254   9.311  12.295  2.2610  0.5541 -1.2187
   23DOPE  C217 2914   6.302   9.520  12.306 -0.2871 -0.0137  0.1731
   23DOPE  H17R 2915   6.404   9.524  12.264  0.2379 -2.5127  1.0475
   23DOPE  H17S 2916   6.294   9.600  12.383 -0.0236  1.9399 -1.7169
   23DOPE  C218 2917   6.206   9.576  12.197  1.0139  0.4301  0.2267
   23DOPE  H18R 2918   6.107   9.527  12.195  2.2094 -2.1580  0.0842
   23DOPE  H18S 2919   6.237   9.545  12.094 -0.3204 -3.1736  0.7548
   23DOPE  H18T 2920   6.187   9.685  12.191 -1.1827  0.0264 -1.1366
   23DOPE   C33 2921   6.667   9.086  13.677 -0.6741  0.2556 -0.3429
   23DOPE   H3X 2922   6.664   9.176  13.612  0.1240  0.8978  0.4807
   23DOPE   H3Y 2923   6.619   9.006  13.617  0.9639 -1.4403  0.5241
   23DOPE   C34 2924   6.816   9.057  13.703  0.1814  0.8706 -0.9380
   23DOPE   H4X 2925   6.831   8.963  13.759 -3.0220  1.2228  0.7145
   23DOPE   H4Y 2926   6.855   9.037  13.601 -0.0027 -0.7546 -0.7119
   23DOPE   C35 2927   6.893   9.168  13.774 -0.2472 -0.4375  0.8227
   23DOPE   H5X 2928   6.988   9.118  13.802  0.4624  0.8371  0.7909
   23DOPE   H5Y 2929   6.833   9.190  13.865  0.8489 -0.1702  1.5028
   23DOPE   C36 2930   6.915   9.293  13.683 -0.6432 -0.4392  0.0884
   23DOPE   H6X 2931   6.828   9.360  13.667 -0.0811  0.3719  0.3989
   23DOPE   H6Y 2932   6.954   9.259  13.584 -0.5389  3.2021 -1.2800
   23DOPE   C37 2933   7.007   9.391  13.758 -0.0052 -0.0975  0.3779
   23DOPE   H7X 2934   6.947   9.418  13.847  0.6997  3.2934 -0.0518
   23DOPE   H7Y 2935   7.096   9.350  13.809  0.9712  1.5318  0.0489
   23DOPE   C38 2936   7.043   9.521  13.680  0.1546 -0.0698 -0.2695
   23DOPE   H8X 2937   6.957   9.538  13.611 -1.9081 -0.9111  1.9542
   23DOPE   H8Y 2938   7.140   9.504  13.629  0.3533 -0.6116  0.2788
   23DOPE   C39 2939   7.051   9.647  13.764  0.2072 -0.1787 -0.4699
   23DOPE   H9X 2940   7.151   9.678  13.798  0.1966  0.3147 -0.8663
   23DOPE  C310 2941   6.959   9.739  13.772 -0.8999 -0.0535 -0.1729
   23DOPE  H10X 2942   6.986   9.824  13.837 -3.0480 -0.6801  1.6787
   23DOPE  C311 2943   6.817   9.732  13.717 -0.4803 -0.1803 -0.5486
   23DOPE  H11X 2944   6.787   9.626  13.709 -2.0669 -0.0962  2.6867
   23DOPE  H11Y 2945   6.760   9.787  13.795 -1.0434 -0.0638 -1.0387
   23DOPE  C312 2946   6.804   9.814  13.585  0.3609  0.3380 -0.7705
   23DOPE  H12X 2947   6.878   9.777  13.510  0.9130  1.1894 -0.6612
   23DOPE  H12Y 2948   6.833   9.919  13.608 -1.3979  0.0985  3.4148
   23DOPE  C313 2949   6.658   9.812  13.522 -0.0040  0.3388  0.0717
   23DOPE  H13X 2950   6.629   9.710  13.487 -2.1865  0.4079  1.4694
   23DOPE  H13Y 2951   6.589   9.832  13.607  2.1761  2.5937  1.4211
   23DOPE  C314 2952   6.625   9.930  13.433 -0.6879  0.6874 -0.2845
   23DOPE  H14X 2953   6.709   9.952  13.363  0.3223  0.3980  0.7970
   23DOPE  H14Y 2954   6.610  10.025  13.487 -0.7625  1.1912 -1.1653
   23DOPE  C315 2955   6.499   9.918  13.353 -0.1939  0.4593  0.2900
   23DOPE  H15X 2956   6.518   9.839  13.278  0.6806  0.4254  0.5443
   23DOPE  H15Y 2957   6.478  10.015  13.302 -0.7249 -0.2323 -0.8272
   23DOPE  C316 2958   6.370   9.885  13.431  0.5129  0.2092  0.3727
   23DOPE  H16X 2959   6.388   9.792  13.489  0.2226  0.6582  1.1985
   23DOPE  H16Y 2960   6.285   9.867  13.362  0.1242  2.9442 -0.0061
   23DOPE  C317 2961   6.337   9.996  13.525 -0.2219  0.2315 -0.5671
   23DOPE  H17X 2962   6.412   9.996  13.607 -1.6448 -1.0395  0.7886
   23DOPE  H17Y 2963   6.345  10.093  13.471 -1.1085 -0.5171 -2.1053
   23DOPE  C318 2964   6.202   9.984  13.578  0.7081  0.2356 -0.2936
   23DOPE  H18X 2965   6.178  10.067  13.648  2.9013 -0.7152  1.7014
   23DOPE  H18Y 2966   6.123   9.977  13.500  1.5447 -0.4669 -1.0994
   23DOPE  H18Z 2967   6.189   9.887  13.630  1.5255 -0.9171 -2.1584
   24DOPE     N 2968   6.382   5.797  14.291 -0.3727  0.0254  0.1657
   24DOPE   HN1 2969   6.417   5.730  14.362  1.6385 -2.0848 -2.5677
   24DOPE   HN2 2970   6.282   5.818  14.309 -0.2711  0.9076 -0.2552
   24DOPE   HN3 2971   6.396   5.739  14.205  0.3613  1.0451 -0.4208
   24DOPE   C12 2972   6.469   5.919  14.280  0.4946  0.1483 -0.0013
   24DOPE  H12A 2973   6.458   5.980  14.372  0.7102 -1.0196  0.8261
   24DOPE  H12B 2974   6.440   5.989  14.199  0.9960 -0.0652 -0.3757
   24DOPE   C11 2975   6.612   5.869  14.268  0.4371 -0.4674 -0.5969
   24DOPE  H11A 2976   6.648   5.835  14.367 -1.8472 -0.3261  0.3439
   24DOPE  H11B 2977   6.669   5.959  14.236 -1.7656  1.6821  1.1882
   24DOPE     P 2978   6.773   5.715  14.128  0.2449 -0.2667 -0.5679
   24DOPE   O13 2979   6.766   5.574  14.092  0.3626  0.9630 -0.1202
   24DOPE   O14 2980   6.879   5.749  14.226 -0.3408  0.6160  0.0807
   24DOPE   O11 2981   6.778   5.808  14.005  0.2397  0.0930  0.0018
   24DOPE   O12 2982   6.633   5.752  14.189  0.5942 -0.7100  0.2822
   24DOPE    C1 2983   6.798   5.946  14.005  0.3784 -0.1038 -0.1378
   24DOPE    HA 2984   6.847   5.984  14.097  1.9588 -1.1845 -0.5052
   24DOPE    HB 2985   6.702   5.999  13.987 -0.6181 -1.0206  2.0730
   24DOPE    C2 2986   6.894   5.990  13.893  0.0605 -0.1719  0.6402
   24DOPE    HS 2987   6.916   6.098  13.906 -0.3017 -0.1202  0.8313
   24DOPE   O21 2988   6.844   5.951  13.759  0.1019 -0.0293 -0.0757
   24DOPE   C21 2989   6.770   6.056  13.714  0.1586 -0.1445  0.6894
   24DOPE   O22 2990   6.740   6.155  13.776  1.1192 -0.3718  0.2126
   24DOPE   C22 2991   6.724   6.013  13.578  0.5244 -0.1609 -0.3302
   24DOPE   H2R 2992   6.670   5.915  13.583  0.5234 -0.1189  0.7405
   24DOPE   H2S 2993   6.816   5.988  13.521  0.0676  1.7205 -2.0170
   24DOPE    C3 2994   7.030   5.925  13.912 -0.2215 -0.0231  0.2201
   24DOPE    HX 2995   7.019   5.817  13.935 -0.7892 -0.1197 -0.4774
   24DOPE    HY 2996   7.074   5.975  14.001 -0.6128  1.8434 -0.6078
   24DOPE   O31 2997   7.120   5.951  13.801  0.1284  0.1216 -0.3462
   24DOPE   C31 2998   7.201   5.850  13.762  0.6700 -0.1477  0.0400
   24DOPE   O32 2999   7.195   5.735  13.800  0.5266  0.5236 -0.1193
   24DOPE   C32 3000   7.307   5.902  13.666 -0.0970 -0.7697  0.9368
   24DOPE   H2X 3001   7.312   6.013  13.665 -0.3052 -0.7384 -0.9721
   24DOPE   H2Y 3002   7.407   5.876  13.707  0.9860  2.4057  0.5876
   24DOPE   C23 3003   6.646   6.120  13.491 -0.8352  0.2253  0.0433
   24DOPE   H3R 3004   6.701   6.215  13.503  0.8879 -0.6916 -0.3384
   24DOPE   H3S 3005   6.544   6.132  13.534 -1.8147  0.2144 -2.1685
   24DOPE   C24 3006   6.645   6.083  13.341 -0.6148 -0.0049  1.2203
   24DOPE   H4R 3007   6.576   6.159  13.297 -1.0010 -1.3558 -0.6059
   24DOPE   H4S 3008   6.600   5.982  13.331 -1.6478  0.5905 -0.6217
   24DOPE   C25 3009   6.784   6.081  13.268 -0.3461  0.5965 -0.0654
   24DOPE   H5R 3010   6.816   5.974  13.268 -1.3574  0.2410  2.2558
   24DOPE   H5S 3011   6.860   6.137  13.326  2.4805 -3.2721  0.3829
   24DOPE   C26 3012   6.779   6.115  13.119 -0.1823 -0.2831 -0.2761
   24DOPE   H6R 3013   6.769   6.226  13.121  1.0144 -0.1794  0.2478
   24DOPE   H6S 3014   6.687   6.068  13.077 -1.2316  1.6307 -0.2586
   24DOPE   C27 3015   6.910   6.078  13.045  0.2244  0.4815  0.9201
   24DOPE   H7R 3016   6.909   5.972  13.014 -0.1702  0.9585 -0.8370
   24DOPE   H7S 3017   6.994   6.108  13.112  1.1689 -0.5854  0.2382
   24DOPE   C28 3018   6.920   6.157  12.909  0.5544 -0.7463 -0.7743
   24DOPE   H8R 3019   6.938   6.264  12.934 -0.9968 -0.9104  1.3186
   24DOPE   H8S 3020   6.821   6.162  12.861  0.3260 -0.3614 -0.2771
   24DOPE   C29 3021   7.024   6.087  12.819 -0.2431  0.5081  0.1505
   24DOPE   H9R 3022   7.007   5.984  12.785  0.7325  0.1726  0.6512
   24DOPE  C210 3023   7.146   6.135  12.794 -0.5310 -0.2052 -0.0531
   24DOPE  H10R 3024   7.214   6.078  12.729  0.8990  1.1571  0.1931
   24DOPE  C211 3025   7.204   6.259  12.859 -0.0581  0.3816 -0.3899
   24DOPE  H11R 3026   7.311   6.234  12.876 -0.3838 -0.9930 -0.2601
   24DOPE  H11S 3027   7.168   6.279  12.963  3.5864 -0.0721  1.1192
   24DOPE  C212 3028   7.182   6.386  12.777  0.3324 -0.0517 -0.0072
   24DOPE  H12R 3029   7.196   6.476  12.841 -0.3867  0.6680 -0.8306
   24DOPE  H12S 3030   7.073   6.386  12.753  0.3682  0.6557 -0.2009
   24DOPE  C213 3031   7.267   6.397  12.657 -0.4084  0.1804 -0.5933
   24DOPE  H13R 3032   7.211   6.461  12.587  0.9331  0.4657 -1.4461
   24DOPE  H13S 3033   7.275   6.307  12.592  2.2611  0.5175 -0.8413
   24DOPE  C214 3034   7.407   6.464  12.670 -0.4383 -0.2771  0.2648
   24DOPE  H14R 3035   7.475   6.416  12.744  1.4810  1.7577 -0.1047
   24DOPE  H14S 3036   7.393   6.570  12.699  2.9726 -0.0049  1.4107
   24DOPE  C215 3037   7.470   6.464  12.530  0.0249 -0.0224  0.2707
   24DOPE  H15R 3038   7.399   6.517  12.462 -0.8870 -1.1750  0.3005
   24DOPE  H15S 3039   7.487   6.365  12.485  0.8655  0.5175 -0.6330
   24DOPE  C216 3040   7.602   6.549  12.533 -0.1493 -0.2052 -0.8716
   24DOPE  H16R 3041   7.676   6.507  12.605 -2.1933 -2.7732 -0.0594
   24DOPE  H16S 3042   7.571   6.647  12.576  0.5806 -0.4450  0.2550
   24DOPE  C217 3043   7.671   6.573  12.397 -0.1141 -0.5503  1.1896
   24DOPE  H17R 3044   7.607   6.649  12.347  0.3958 -0.7536  0.2071
   24DOPE  H17S 3045   7.659   6.479  12.339  1.4851  0.4923 -0.9689
   24DOPE  C218 3046   7.819   6.620  12.401 -0.5092 -0.1043 -0.2833
   24DOPE  H18R 3047   7.852   6.653  12.300  0.8095 -3.9426 -1.3113
   24DOPE  H18S 3048   7.889   6.542  12.439  1.1063  1.3003 -0.2826
   24DOPE  H18T 3049   7.820   6.712  12.462 -1.5360  0.5947 -1.2766
   24DOPE   C33 3050   7.295   5.850  13.519 -0.2765  0.1718  0.3049
   24DOPE   H3X 3051   7.309   5.740  13.525 -0.4994  0.2088  3.5805
   24DOPE   H3Y 3052   7.368   5.898  13.452 -0.7273  0.4610  0.0154
   24DOPE   C34 3053   7.164   5.886  13.451 -0.2837 -0.0556  0.0294
   24DOPE   H4X 3054   7.173   5.845  13.348  0.1793  0.2012 -0.0320
   24DOPE   H4Y 3055   7.078   5.831  13.495  0.1005  1.0399  2.2458
   24DOPE   C35 3056   7.116   6.036  13.455 -0.9997  0.3140  0.1057
   24DOPE   H5X 3057   7.096   6.060  13.561  1.1849 -1.0752  0.8960
   24DOPE   H5Y 3058   7.026   6.042  13.389  0.5952 -0.3065 -2.2461
   24DOPE   C36 3059   7.216   6.136  13.411 -0.2721  0.3566  0.3772
   24DOPE   H6X 3060   7.240   6.125  13.303 -1.7422 -0.0939  0.0779
   24DOPE   H6Y 3061   7.311   6.121  13.466  0.4051 -1.8128 -1.2620
   24DOPE   C37 3062   7.153   6.276  13.412 -0.1767  0.1893 -0.9518
   24DOPE   H7X 3063   7.209   6.350  13.351  1.8327 -0.5957 -0.1144
   24DOPE   H7Y 3064   7.052   6.257  13.368  0.0990 -2.6907 -0.5132
   24DOPE   C38 3065   7.143   6.340  13.558  0.3088  0.0693  0.4737
   24DOPE   H8X 3066   7.064   6.290  13.618 -0.0787 -1.9774 -1.6127
   24DOPE   H8Y 3067   7.098   6.440  13.536 -2.4601 -1.6193 -2.3863
   24DOPE   C39 3068   7.274   6.351  13.624 -0.1100  0.4033  0.7909
   24DOPE   H9X 3069   7.279   6.298  13.720 -1.0650 -0.8246  0.1852
   24DOPE  C310 3070   7.370   6.445  13.593 -0.1784  1.1766 -0.4655
   24DOPE  H10X 3071   7.469   6.441  13.642  0.6774  1.7099 -2.0892
   24DOPE  C311 3072   7.371   6.544  13.477 -0.0535  0.8756 -0.6268
   24DOPE  H11X 3073   7.467   6.540  13.420 -0.8851  0.9749 -2.0915
   24DOPE  H11Y 3074   7.295   6.519  13.400  0.3493 -2.8258 -0.0069
   24DOPE  C312 3075   7.360   6.686  13.527 -0.8139 -0.3684 -0.2400
   24DOPE  H12X 3076   7.256   6.703  13.561 -0.1813  1.3107  0.9999
   24DOPE  H12Y 3077   7.371   6.749  13.436 -1.4973  1.8487  1.1492
   24DOPE  C313 3078   7.472   6.727  13.629  0.3525  0.1344 -0.7698
   24DOPE  H13X 3079   7.457   6.682  13.729 -1.4809  0.8114 -0.7000
   24DOPE  H13Y 3080   7.572   6.707  13.586  0.3121  3.1199 -2.6256
   24DOPE  C314 3081   7.462   6.868  13.658 -0.2458 -0.7497 -0.4925
   24DOPE  H14X 3082   7.361   6.895  13.696  0.2350 -1.8960  1.7608
   24DOPE  H14Y 3083   7.478   6.936  13.572 -0.4975 -1.2387 -0.9290
   24DOPE  C315 3084   7.554   6.903  13.773 -0.0380 -0.1308 -0.1728
   24DOPE  H15X 3085   7.651   6.854  13.749 -0.0761 -1.4482  2.0116
   24DOPE  H15Y 3086   7.510   6.855  13.863 -0.4006  1.8669  0.7719
   24DOPE  C316 3087   7.566   7.057  13.782  0.3388  0.1109 -0.3466
   24DOPE  H16X 3088   7.616   7.100  13.692  0.9262 -0.4384 -0.2911
   24DOPE  H16Y 3089   7.627   7.081  13.871  0.5553 -1.2157 -0.1227
   24DOPE  C317 3090   7.430   7.118  13.813 -0.2045 -0.2783  0.0748
   24DOPE  H17X 3091   7.374   7.137  13.719 -0.7664 -1.3915  0.1787
   24DOPE  H17Y 3092   7.365   7.061  13.882  1.9371  0.8676  3.3095
   24DOPE  C318 3093   7.436   7.264  13.874  0.6545 -0.3547 -0.3549
   24DOPE  H18X 3094   7.338   7.298  13.915  1.8865  0.4364  2.1339
   24DOPE  H18Y 3095   7.518   7.274  13.948 -0.5376 -0.8270  1.0865
   24DOPE  H18Z 3096   7.457   7.340  13.795  0.4819 -0.4750 -0.5156
   25DOPE     N 3097   1.347   5.727  14.099 -0.4398 -0.7461  0.2662
   25DOPE   HN1 3098   1.412   5.741  14.179 -0.5213  0.3918  0.1484
   25DOPE   HN2 3099   1.260   5.683  14.137 -1.1942  1.5388  1.3507
   25DOPE   HN3 3100   1.395   5.653  14.044 -0.2955 -0.6913  0.3190
   25DOPE   C12 3101   1.331   5.848  14.023 -0.4307 -0.3560  0.0573
   25DOPE  H12A 3102   1.428   5.879  13.978 -0.5587 -0.0137  0.0156
   25DOPE  H12B 3103   1.306   5.919  14.104  0.2484 -1.4709  1.2667
   25DOPE   C11 3104   1.237   5.826  13.901 -0.4717  0.0072  0.1128
   25DOPE  H11A 3105   1.279   5.748  13.835 -0.6246  0.6729 -0.7849
   25DOPE  H11B 3106   1.244   5.920  13.842 -0.1124  0.1942  0.4485
   25DOPE     P 3107   1.035   5.658  13.927 -0.1389 -0.2918 -0.2229
   25DOPE   O13 3108   0.910   5.668  14.011  0.3468  0.2861 -0.6079
   25DOPE   O14 3109   1.137   5.556  13.973  0.4461  0.1629  0.0560
   25DOPE   O11 3110   1.001   5.639  13.773 -0.0323  0.5966 -0.2992
   25DOPE   O12 3111   1.099   5.807  13.935 -0.2512  0.0508 -0.2760
   25DOPE    C1 3112   0.952   5.740  13.685  0.0284 -0.5031 -0.4033
   25DOPE    HA 3113   0.959   5.705  13.579 -2.0587  0.7716 -1.0105
   25DOPE    HB 3114   1.011   5.833  13.693 -0.1145 -0.3744 -0.7919
   25DOPE    C2 3115   0.795   5.777  13.703 -0.5502  0.3370  0.2243
   25DOPE    HS 3116   0.778   5.803  13.810 -1.3345 -2.1146  0.7653
   25DOPE   O21 3117   0.726   5.650  13.690 -0.1157  0.3274  0.2452
   25DOPE   C21 3118   0.605   5.622  13.743  0.3416 -0.2955 -0.3126
   25DOPE   O22 3119   0.538   5.714  13.791 -0.3787  0.0524  0.0581
   25DOPE   C22 3120   0.547   5.482  13.724  0.0123 -0.6414 -0.0752
   25DOPE   H2R 3121   0.568   5.429  13.819  1.4232  2.4270  1.4759
   25DOPE   H2S 3122   0.600   5.429  13.641  0.8297 -0.0850  0.0840
   25DOPE    C3 3123   0.742   5.887  13.608  0.6518  0.7432 -0.5059
   25DOPE    HX 3124   0.633   5.900  13.622  1.0221  1.5811  2.1113
   25DOPE    HY 3125   0.753   5.861  13.500 -0.0901  0.0222 -0.4166
   25DOPE   O31 3126   0.821   6.004  13.638 -0.1061  0.1050 -0.0589
   25DOPE   C31 3127   0.760   6.113  13.680 -0.1844  0.6950  0.5506
   25DOPE   O32 3128   0.644   6.125  13.710  0.0267  0.5763  0.0308
   25DOPE   C32 3129   0.865   6.229  13.688 -0.2526  0.1690 -0.8324
   25DOPE   H2X 3130   0.863   6.260  13.795 -0.7573 -1.5299 -0.3322
   25DOPE   H2Y 3131   0.968   6.196  13.661  0.7856  0.3401  2.4554
   25DOPE   C23 3132   0.400   5.491  13.687  0.2252  0.1996  0.1277
   25DOPE   H3R 3133   0.340   5.542  13.766  2.3638 -0.2149  2.1219
   25DOPE   H3S 3134   0.372   5.384  13.682  0.6749  0.1342 -3.3514
   25DOPE   C24 3135   0.375   5.548  13.538  0.2815 -0.1513 -0.0143
   25DOPE   H4R 3136   0.424   5.647  13.543  4.5425 -2.0668  1.3344
   25DOPE   H4S 3137   0.267   5.562  13.518  0.8799  1.4762 -2.4947
   25DOPE   C25 3138   0.422   5.460  13.421 -0.5655  0.3757  0.6506
   25DOPE   H5R 3139   0.361   5.367  13.427 -1.1364  0.7504  0.7913
   25DOPE   H5S 3140   0.524   5.420  13.432 -0.4019  0.9433  1.3366
   25DOPE   C26 3141   0.421   5.532  13.289 -0.7458  0.1417 -0.5316
   25DOPE   H6R 3142   0.499   5.611  13.289 -0.5982  0.0061 -1.3205
   25DOPE   H6S 3143   0.324   5.579  13.265 -1.1152 -0.0915  0.4553
   25DOPE   C27 3144   0.457   5.442  13.173 -1.0623 -0.7105  0.7835
   25DOPE   H7R 3145   0.386   5.357  13.165 -0.7598 -1.1137  2.0482
   25DOPE   H7S 3146   0.554   5.396  13.202  0.6770  2.1624 -0.0646
   25DOPE   C28 3147   0.473   5.508  13.037  0.0255 -0.6545  0.2893
   25DOPE   H8R 3148   0.538   5.598  13.034 -0.2699 -0.4655 -1.8853
   25DOPE   H8S 3149   0.376   5.556  13.013  0.6526  0.8820  0.7328
   25DOPE   C29 3150   0.500   5.416  12.921 -0.5158  0.1667  0.7594
   25DOPE   H9R 3151   0.458   5.315  12.932  0.3673 -0.0512  2.4484
   25DOPE  C210 3152   0.587   5.442  12.818 -0.1201 -0.3710 -0.2876
   25DOPE  H10R 3153   0.617   5.366  12.745  1.2624  0.2365 -0.3728
   25DOPE  C211 3154   0.677   5.561  12.811  0.0054  0.3053  0.1476
   25DOPE  H11R 3155   0.683   5.613  12.909  0.0681  1.0517 -0.2456
   25DOPE  H11S 3156   0.633   5.636  12.742  0.0837  0.6272  0.4470
   25DOPE  C212 3157   0.821   5.524  12.771 -0.5462 -0.2195 -0.1129
   25DOPE  H12R 3158   0.813   5.471  12.673 -1.1975  0.3618 -0.3858
   25DOPE  H12S 3159   0.860   5.452  12.846  0.6142 -0.7625 -1.2017
   25DOPE  C213 3160   0.919   5.639  12.755 -0.1814  0.0480  0.2864
   25DOPE  H13R 3161   0.933   5.681  12.857 -2.6466 -1.0171  1.1310
   25DOPE  H13S 3162   0.880   5.723  12.693  0.0212 -0.6862 -0.8570
   25DOPE  C214 3163   1.057   5.598  12.693  0.0369 -0.1620 -0.1347
   25DOPE  H14R 3164   1.043   5.566  12.588  0.2839 -1.3360  0.1704
   25DOPE  H14S 3165   1.091   5.509  12.751  0.2242  0.6945  1.0996
   25DOPE  C215 3166   1.164   5.708  12.695  0.2003 -0.3598 -0.5992
   25DOPE  H15R 3167   1.158   5.753  12.797  0.8931  1.5314 -1.3410
   25DOPE  H15S 3168   1.138   5.776  12.611 -0.2797 -2.5264 -2.2924
   25DOPE  C216 3169   1.316   5.668  12.697  0.3351  0.7763 -0.0655
   25DOPE  H16R 3170   1.387   5.754  12.701 -0.1252  1.1136  1.9782
   25DOPE  H16S 3171   1.340   5.625  12.598  0.2366 -0.7072  0.5263
   25DOPE  C217 3172   1.353   5.563  12.809  0.2480 -0.1005  0.2724
   25DOPE  H17R 3173   1.318   5.463  12.774  2.9456 -0.7792 -0.7507
   25DOPE  H17S 3174   1.318   5.600  12.908  1.3677 -0.1937  0.7189
   25DOPE  C218 3175   1.505   5.559  12.801 -0.2371 -0.0255 -0.6392
   25DOPE  H18R 3176   1.541   5.657  12.839 -0.4354 -0.2897  0.2481
   25DOPE  H18S 3177   1.551   5.556  12.700  1.0252  0.7728 -0.1228
   25DOPE  H18T 3178   1.548   5.475  12.860 -0.3042  1.7491  2.1071
   25DOPE   C33 3179   0.818   6.356  13.600 -0.4846  0.2871  0.6832
   25DOPE   H3X 3180   0.862   6.448  13.643 -0.1217  0.5160 -0.1597
   25DOPE   H3Y 3181   0.709   6.378  13.604 -0.1695  1.9651  0.7987
   25DOPE   C34 3182   0.870   6.349  13.454 -0.0735 -0.1786 -0.3731
   25DOPE   H4X 3183   0.980   6.364  13.449  0.1808 -1.3255  0.9901
   25DOPE   H4Y 3184   0.845   6.248  13.413 -2.6575  0.1741  0.1385
   25DOPE   C35 3185   0.813   6.465  13.374 -0.4530 -0.2724 -0.0494
   25DOPE   H5X 3186   0.837   6.562  13.423 -0.9912 -0.2811  0.2417
   25DOPE   H5Y 3187   0.702   6.463  13.373 -0.5133 -0.2574  1.7910
   25DOPE   C36 3188   0.864   6.463  13.234 -0.1383 -0.0610  0.2175
   25DOPE   H6X 3189   0.824   6.377  13.176  0.5740  0.8778 -1.7435
   25DOPE   H6Y 3190   0.974   6.454  13.248  0.1695  0.4342 -1.6315
   25DOPE   C37 3191   0.820   6.586  13.151  0.0262 -0.5436 -0.2909
   25DOPE   H7X 3192   0.730   6.561  13.092  1.2457 -2.2043 -1.5233
   25DOPE   H7Y 3193   0.812   6.684  13.204 -0.0470  0.6191 -2.3545
   25DOPE   C38 3194   0.920   6.640  13.049 -0.3192 -0.4448  0.3124
   25DOPE   H8X 3195   0.998   6.708  13.090 -1.1772  1.0201 -0.4094
   25DOPE   H8Y 3196   0.855   6.710  12.993 -0.3548 -1.1558 -0.5594
   25DOPE   C39 3197   0.995   6.537  12.977  0.3533 -0.4405 -0.7533
   25DOPE   H9X 3198   1.034   6.449  13.032  0.8958 -0.6970 -1.5418
   25DOPE  C310 3199   1.008   6.534  12.841  0.9942  0.4604  0.3110
   25DOPE  H10X 3200   1.059   6.448  12.797  1.0840  0.5345  0.2704
   25DOPE  C311 3201   0.972   6.642  12.743  0.4494  1.1248 -0.0023
   25DOPE  H11X 3202   0.913   6.719  12.797 -2.7520 -1.4221  0.4267
   25DOPE  H11Y 3203   1.068   6.689  12.713  0.8299 -0.0136 -0.6112
   25DOPE  C312 3204   0.904   6.584  12.616 -1.1410  0.6336 -0.5931
   25DOPE  H12X 3205   0.964   6.501  12.571  1.1423  1.1845  1.2368
   25DOPE  H12Y 3206   0.908   6.659  12.535 -1.5410 -0.3092 -1.5167
   25DOPE  C313 3207   0.766   6.528  12.633 -0.0661  0.4099  0.6787
   25DOPE  H13X 3208   0.764   6.459  12.720 -1.3924  0.5640  0.7884
   25DOPE  H13Y 3209   0.700   6.612  12.664 -0.9163 -0.0020  0.0071
   25DOPE  C314 3210   0.707   6.457  12.514  1.0020  0.0265  0.2089
   25DOPE  H14X 3211   0.605   6.422  12.540  1.1916 -0.1036  0.7756
   25DOPE  H14Y 3212   0.766   6.374  12.470  0.9802  0.8094 -1.3682
   25DOPE  C315 3213   0.692   6.560  12.400 -0.6665 -0.0001  0.3930
   25DOPE  H15X 3214   0.793   6.577  12.357 -0.1016 -0.0862  1.6364
   25DOPE  H15Y 3215   0.661   6.659  12.439 -0.7262  0.3074 -0.4049
   25DOPE  C316 3216   0.609   6.514  12.273  0.0195  0.1588  0.1103
   25DOPE  H16X 3217   0.507   6.487  12.308 -0.9334  1.5700 -1.4663
   25DOPE  H16Y 3218   0.660   6.427  12.227  3.7490  2.1220  0.1722
   25DOPE  C317 3219   0.597   6.632  12.177 -0.0150  0.8107 -0.2457
   25DOPE  H17X 3220   0.526   6.709  12.214 -0.4563  0.6052 -0.6584
   25DOPE  H17Y 3221   0.699   6.673  12.166  0.7476 -0.7999  0.4717
   25DOPE  C318 3222   0.545   6.593  12.037 -0.0283 -0.2187  0.5674
   25DOPE  H18X 3223   0.598   6.503  11.998  0.5798  0.4650 -0.2270
   25DOPE  H18Y 3224   0.435   6.576  12.038 -0.1300  0.2940 -0.2818
   25DOPE  H18Z 3225   0.567   6.677  11.968 -2.1566  0.6238  0.8608
   26DOPE     N 3226   1.519   7.711  14.222  0.1876  0.0793 -0.0090
   26DOPE   HN1 3227   1.522   7.742  14.123 -3.0490 -0.7254 -0.4823
   26DOPE   HN2 3228   1.447   7.772  14.267  1.5100  1.0847  0.8369
   26DOPE   HN3 3229   1.616   7.712  14.260  0.5629  3.9337 -0.6429
   26DOPE   C12 3230   1.460   7.571  14.228  0.0456 -0.3477  0.1928
   26DOPE  H12A 3231   1.390   7.573  14.314  0.8455 -0.9726  0.8726
   26DOPE  H12B 3232   1.539   7.500  14.260 -0.5093  0.0437  2.6547
   26DOPE   C11 3233   1.384   7.541  14.091  0.2386 -0.2239  0.0605
   26DOPE  H11A 3234   1.324   7.447  14.099 -2.0805  1.2660  1.5098
   26DOPE  H11B 3235   1.461   7.522  14.014  0.8074 -2.4934  1.0982
   26DOPE     P 3236   1.141   7.650  14.045 -0.6058  0.4250 -0.3075
   26DOPE   O13 3237   1.111   7.793  14.054  0.2229  0.1386 -0.2270
   26DOPE   O14 3238   1.097   7.565  14.153  0.1233  0.2285 -0.0579
   26DOPE   O11 3239   1.112   7.593  13.901 -0.2674  0.2466  0.2021
   26DOPE   O12 3240   1.298   7.645  14.058  0.2322 -0.0930  0.1180
   26DOPE    C1 3241   1.211   7.599  13.797  0.4067 -0.1526  0.4460
   26DOPE    HA 3242   1.263   7.501  13.785 -1.2371 -1.0970  0.7122
   26DOPE    HB 3243   1.292   7.673  13.816 -0.1618  0.4820  0.4074
   26DOPE    C2 3244   1.142   7.633  13.660 -0.7118  0.8989  0.3621
   26DOPE    HS 3245   1.105   7.737  13.661  0.1083  1.2035 -0.1047
   26DOPE   O21 3246   1.042   7.534  13.617 -0.3194  0.7988 -0.1267
   26DOPE   C21 3247   0.916   7.576  13.640 -0.2684  0.1042 -0.1585
   26DOPE   O22 3248   0.888   7.685  13.691  0.8793  0.7011  0.7467
   26DOPE   C22 3249   0.817   7.481  13.580  0.4508 -0.1892 -0.0975
   26DOPE   H2R 3250   0.713   7.520  13.579  0.9077  1.0933 -0.0275
   26DOPE   H2S 3251   0.815   7.393  13.648  0.7905  0.2842  0.5350
   26DOPE    C3 3252   1.246   7.632  13.552 -0.3449  0.2290  0.8003
   26DOPE    HX 3253   1.281   7.528  13.534 -0.6548  0.3221 -0.4390
   26DOPE    HY 3254   1.330   7.696  13.587 -0.4423  0.1900  1.1143
   26DOPE   O31 3255   1.197   7.683  13.425 -0.5487 -0.1850  0.2245
   26DOPE   C31 3256   1.278   7.757  13.347 -0.6086 -0.2578  0.2819
   26DOPE   O32 3257   1.392   7.779  13.373 -1.1583  0.3416  0.2849
   26DOPE   C32 3258   1.206   7.820  13.222 -0.2938 -0.0904 -0.6251
   26DOPE   H2X 3259   1.105   7.773  13.219 -0.9779  0.9213  2.4614
   26DOPE   H2Y 3260   1.178   7.923  13.251 -2.9360 -1.3748  1.8711
   26DOPE   C23 3261   0.864   7.424  13.442 -0.2729  0.2124  0.5970
   26DOPE   H3R 3262   0.798   7.336  13.425 -0.8267  0.9134 -1.0031
   26DOPE   H3S 3263   0.965   7.381  13.457  0.0146  1.0562  1.1162
   26DOPE   C24 3264   0.872   7.528  13.331 -0.3456 -0.3433 -0.9420
   26DOPE   H4R 3265   0.931   7.608  13.379  1.5893 -1.7142 -0.9369
   26DOPE   H4S 3266   0.773   7.569  13.304 -0.5731  0.9937  1.6023
   26DOPE   C25 3267   0.955   7.474  13.208  0.1682  0.6532  0.5304
   26DOPE   H5R 3268   1.050   7.434  13.249 -0.5819 -1.3172  0.4741
   26DOPE   H5S 3269   0.975   7.550  13.129  1.4111 -0.5764 -0.3809
   26DOPE   C26 3270   0.880   7.370  13.126 -0.0287  0.6875  0.5909
   26DOPE   H6R 3271   0.799   7.422  13.071 -0.1323 -0.6059 -0.5245
   26DOPE   H6S 3272   0.839   7.288  13.189  1.5616 -0.2725  0.4445
   26DOPE   C27 3273   0.975   7.311  13.022 -0.0287  0.6164  0.0037
   26DOPE   H7R 3274   1.072   7.280  13.066  0.4163  1.3531 -0.4506
   26DOPE   H7S 3275   0.989   7.385  12.941 -0.3044  1.1564  0.4485
   26DOPE   C28 3276   0.918   7.190  12.956  0.9616 -0.0989 -0.1598
   26DOPE   H8R 3277   0.817   7.217  12.919  0.4504  0.2868  1.4251
   26DOPE   H8S 3278   0.899   7.116  13.036 -0.3360  0.3582 -0.0222
   26DOPE   C29 3279   1.012   7.126  12.859  0.3509 -0.5047  0.0321
   26DOPE   H9R 3280   1.067   7.040  12.898  0.4539  0.1574  1.4324
   26DOPE  C210 3281   1.038   7.174  12.730  0.5611  0.4724 -0.3188
   26DOPE  H10R 3282   1.105   7.116  12.664  1.0023  1.0604 -0.3992
   26DOPE  C211 3283   0.977   7.295  12.660 -0.1372  0.2571 -0.9375
   26DOPE  H11R 3284   0.909   7.327  12.742 -0.4207 -1.9003 -0.2641
   26DOPE  H11S 3285   0.913   7.261  12.575 -0.3450 -1.4407 -0.1484
   26DOPE  C212 3286   1.075   7.406  12.625 -0.3135 -0.2106 -0.7347
   26DOPE  H12R 3287   1.127   7.439  12.717  2.1022 -0.3722 -1.9663
   26DOPE  H12S 3288   1.018   7.492  12.585  0.9254  0.9974  0.0072
   26DOPE  C213 3289   1.169   7.369  12.506  0.4694  0.1354 -0.0018
   26DOPE  H13R 3290   1.221   7.275  12.533 -0.1743  0.2372  1.6886
   26DOPE  H13S 3291   1.248   7.442  12.479  1.3864  0.0157  2.2382
   26DOPE  C214 3292   1.091   7.348  12.378  0.9198 -0.1610 -0.0773
   26DOPE  H14R 3293   1.048   7.443  12.338 -1.8388 -1.5403 -0.6204
   26DOPE  H14S 3294   1.012   7.271  12.389  2.5985 -1.8872  0.5067
   26DOPE  C215 3295   1.175   7.291  12.266  1.2977 -0.8081  0.1330
   26DOPE  H15R 3296   1.226   7.197  12.295  1.1902 -0.8893  0.0584
   26DOPE  H15S 3297   1.261   7.356  12.238  0.4290  0.8758  1.1976
   26DOPE  C216 3298   1.092   7.252  12.144  0.3128  0.4216 -0.2950
   26DOPE  H16R 3299   1.035   7.344  12.115  0.3838  0.4885 -0.2244
   26DOPE  H16S 3300   1.001   7.191  12.162  0.2255  0.3135 -1.0682
   26DOPE  C217 3301   1.172   7.202  12.031  0.0096  0.7176  0.0975
   26DOPE  H17R 3302   1.253   7.274  12.004  0.2056 -0.0720 -1.5050
   26DOPE  H17S 3303   1.118   7.203  11.934  0.3185 -0.4051 -0.0927
   26DOPE  C218 3304   1.233   7.066  12.043  0.5813 -0.2255 -0.1725
   26DOPE  H18R 3305   1.315   7.050  11.970  0.1320  1.3628 -1.0759
   26DOPE  H18S 3306   1.152   6.990  12.036 -1.2930  1.3934  2.1969
   26DOPE  H18T 3307   1.275   7.059  12.145  1.6733 -1.3138 -0.6733
   26DOPE   C33 3308   1.274   7.810  13.088 -0.5816  0.1859 -0.2585
   26DOPE   H3X 3309   1.379   7.847  13.085 -0.8313  1.1719  1.8461
   26DOPE   H3Y 3310   1.217   7.872  13.016 -0.9056 -0.8154 -0.8942
   26DOPE   C34 3311   1.273   7.674  13.015 -0.3324  0.8062  0.2511
   26DOPE   H4X 3312   1.168   7.637  13.013  0.2240 -0.8688 -1.8323
   26DOPE   H4Y 3313   1.296   7.690  12.907 -2.4507  0.2101 -0.3431
   26DOPE   C35 3314   1.366   7.563  13.066 -0.2629 -0.0901  0.3405
   26DOPE   H5X 3315   1.329   7.538  13.167  0.3131  0.2623  0.6472
   26DOPE   H5Y 3316   1.469   7.604  13.076 -0.7019  1.2459 -0.3698
   26DOPE   C36 3317   1.357   7.432  12.989  0.1172 -0.0501  0.1584
   26DOPE   H6X 3318   1.261   7.385  13.018  0.1081 -0.9668 -1.2609
   26DOPE   H6Y 3319   1.436   7.365  13.028 -0.5129  0.1065  1.7733
   26DOPE   C37 3320   1.362   7.434  12.836  0.6663  0.6499  0.6683
   26DOPE   H7X 3321   1.305   7.344  12.804  0.0868  1.0403  0.5924
   26DOPE   H7Y 3322   1.317   7.520  12.781 -1.2998 -1.0799 -0.5841
   26DOPE   C38 3323   1.509   7.410  12.787  0.2369 -0.2153  0.4230
   26DOPE   H8X 3324   1.537   7.307  12.816 -2.2046 -1.5398 -1.4397
   26DOPE   H8Y 3325   1.575   7.492  12.823 -1.3095  1.0472  0.5306
   26DOPE   C39 3326   1.512   7.404  12.635  0.2887 -0.1400 -0.2583
   26DOPE   H9X 3327   1.414   7.375  12.593  0.9280 -3.2192  0.1149
   26DOPE  C310 3328   1.614   7.406  12.555 -0.1798  0.2953 -0.2029
   26DOPE  H10X 3329   1.602   7.375  12.450  1.7887 -0.5233 -0.2421
   26DOPE  C311 3330   1.761   7.400  12.600 -0.5719  0.3826 -0.2583
   26DOPE  H11X 3331   1.819   7.373  12.509  0.6056  0.7260  0.3573
   26DOPE  H11Y 3332   1.787   7.502  12.635  0.4187  0.0416  0.0364
   26DOPE  C312 3333   1.794   7.298  12.707 -0.3124  0.2337 -0.7650
   26DOPE  H12X 3334   1.739   7.202  12.711 -0.7491  0.4763 -0.8930
   26DOPE  H12Y 3335   1.776   7.340  12.808 -1.4238  1.7182 -1.5390
   26DOPE  C313 3336   1.941   7.271  12.710 -0.0320 -0.9443 -0.1165
   26DOPE  H13X 3337   1.994   7.369  12.711  0.1787 -1.0148 -1.7188
   26DOPE  H13Y 3338   1.981   7.220  12.799  0.9227  1.7669  1.1116
   26DOPE  C314 3339   1.991   7.196  12.588  0.6174 -0.0446  0.1145
   26DOPE  H14X 3340   1.948   7.222  12.489  0.7545 -2.2599 -0.5819
   26DOPE  H14Y 3341   1.955   7.091  12.596  2.0617 -0.6264 -0.7012
   26DOPE  C315 3342   2.145   7.201  12.570  0.4973  0.5875  0.2001
   26DOPE  H15X 3343   2.194   7.165  12.663  1.3657 -1.6749 -1.0643
   26DOPE  H15Y 3344   2.186   7.303  12.551  2.1097 -0.2837 -1.2990
   26DOPE  C316 3345   2.190   7.103  12.456 -0.3783  0.6360 -0.2853
   26DOPE  H16X 3346   2.169   7.167  12.368 -2.0378  0.4804 -0.0331
   26DOPE  H16Y 3347   2.117   7.020  12.461 -0.1089  0.2558 -2.0907
   26DOPE  C317 3348   2.330   7.043  12.465  0.1224  0.2381  0.2838
   26DOPE  H17X 3349   2.341   7.013  12.572 -0.1940 -0.5931  0.0908
   26DOPE  H17Y 3350   2.344   6.955  12.399 -0.8276 -0.5667  1.1175
   26DOPE  C318 3351   2.438   7.147  12.441 -0.2890  0.1951  0.6955
   26DOPE  H18X 3352   2.425   7.223  12.520 -1.2371 -0.1060  0.8446
   26DOPE  H18Y 3353   2.538   7.100  12.437 -0.8420 -0.9438 -1.3099
   26DOPE  H18Z 3354   2.424   7.205  12.347  0.4947  3.4355  2.4273
   27DOPE     N 3355   0.556   0.696  13.751  0.4643  0.4204  0.0268
   27DOPE   HN1 3356   0.522   0.792  13.729 -2.9272  0.3277  3.8393
   27DOPE   HN2 3357   0.537   0.636  13.668  0.8819  0.3534 -0.0258
   27DOPE   HN3 3358   0.493   0.653  13.821 -1.1600 -0.3408 -1.7990
   27DOPE   C12 3359   0.692   0.683  13.815 -0.0858 -0.6913 -0.4435
   27DOPE  H12A 3360   0.699   0.761  13.894 -2.5561 -1.3199  0.5041
   27DOPE  H12B 3361   0.764   0.688  13.731  0.1155 -1.1723 -0.3031
   27DOPE   C11 3362   0.719   0.547  13.880 -0.6939  0.3168 -0.8668
   27DOPE  H11A 3363   0.627   0.512  13.933 -1.0484 -1.4615 -2.5374
   27DOPE  H11B 3364   0.795   0.575  13.956 -0.9414  1.6026 -1.0684
   27DOPE     P 3365   0.799   0.305  13.844 -0.3191  0.0586  0.0151
   27DOPE   O13 3366   0.678   0.222  13.862 -0.1440  0.4217 -0.3417
   27DOPE   O14 3367   0.883   0.321  13.963  0.0117 -0.7846  0.2186
   27DOPE   O11 3368   0.895   0.230  13.743  0.2653 -0.3357  0.3841
   27DOPE   O12 3369   0.763   0.449  13.790 -0.2422  0.1110  0.0695
   27DOPE    C1 3370   0.990   0.286  13.658 -0.0246 -0.5937  0.5244
   27DOPE    HA 3371   1.047   0.203  13.611 -0.9175 -1.4945  0.9927
   27DOPE    HB 3372   1.050   0.357  13.718 -0.1406 -0.1580  0.1309
   27DOPE    C2 3373   0.936   0.369  13.531 -0.2391  0.5657 -0.1547
   27DOPE    HS 3374   0.859   0.432  13.581 -0.3860  0.6683 -0.5057
   27DOPE   O21 3375   0.884   0.274  13.435  0.7961  0.1644  0.0991
   27DOPE   C21 3376   0.800   0.322  13.346 -0.0159  0.2825 -0.6869
   27DOPE   O22 3377   0.761   0.436  13.344 -0.0179  0.2445  0.5748
   27DOPE   C22 3378   0.761   0.216  13.236  0.0029 -0.1768 -0.0586
   27DOPE   H2R 3379   0.653   0.205  13.259  0.2092  1.5900  2.0564
   27DOPE   H2S 3380   0.822   0.125  13.253  0.3306 -0.2319 -1.4479
   27DOPE    C3 3381   1.048   0.454  13.472 -0.5670  0.3453 -0.2879
   27DOPE    HX 3382   1.069   0.520  13.559 -1.4553 -0.3688  0.5066
   27DOPE    HY 3383   1.011   0.512  13.385 -0.7089 -1.5240 -1.5366
   27DOPE   O31 3384   1.166   0.364  13.438  0.1757  0.4421  0.1695
   27DOPE   C31 3385   1.171   0.324  13.307  0.2137 -0.7372 -0.5317
   27DOPE   O32 3386   1.083   0.348  13.227  0.9908  0.8359 -0.4297
   27DOPE   C32 3387   1.298   0.259  13.272  0.0932  0.0049 -0.6257
   27DOPE   H2X 3388   1.362   0.336  13.224  0.2581  0.1099 -0.2342
   27DOPE   H2Y 3389   1.340   0.213  13.364 -1.0703  0.0962 -0.0390
   27DOPE   C23 3390   0.780   0.240  13.081 -0.5875 -0.3016  0.4373
   27DOPE   H3R 3391   0.890   0.240  13.068 -0.5643 -0.5090  0.6355
   27DOPE   H3S 3392   0.737   0.338  13.051  0.9787  0.3936  0.3949
   27DOPE   C24 3393   0.717   0.130  12.993  0.1177 -0.4487  0.4965
   27DOPE   H4R 3394   0.619   0.100  13.036 -0.4006  0.7745  0.1841
   27DOPE   H4S 3395   0.783   0.040  12.995 -0.7075 -1.0509  1.1877
   27DOPE   C25 3396   0.693   0.181  12.849  0.8250 -0.4681 -0.0134
   27DOPE   H5R 3397   0.592   0.227  12.843  0.8146 -0.6534 -1.9652
   27DOPE   H5S 3398   0.696   0.093  12.781  1.9746 -0.1727 -0.3681
   27DOPE   C26 3399   0.803   0.269  12.797 -0.2335  0.3392  0.0155
   27DOPE   H6R 3400   0.904   0.228  12.817 -0.4317  1.0616  2.9548
   27DOPE   H6S 3401   0.805   0.367  12.849  2.5119 -0.9205  2.5723
   27DOPE   C27 3402   0.801   0.288  12.638  0.2046 -0.4643 -0.0813
   27DOPE   H7R 3403   0.702   0.328  12.606  0.2581  0.9360  1.3379
   27DOPE   H7S 3404   0.826   0.189  12.595  1.1741  0.0554 -0.7293
   27DOPE   C28 3405   0.897   0.400  12.596 -0.3339 -0.0627 -0.2240
   27DOPE   H8R 3406   0.870   0.490  12.655 -0.5593 -0.2589 -0.0242
   27DOPE   H8S 3407   0.860   0.419  12.493  1.6434 -1.5914 -1.2692
   27DOPE   C29 3408   1.051   0.380  12.595 -0.8082  0.1352  0.8394
   27DOPE   H9R 3409   1.082   0.336  12.691 -0.7167 -2.0101 -0.1233
   27DOPE  C210 3410   1.141   0.396  12.492  0.0095 -0.2223 -0.0981
   27DOPE  H10R 3411   1.240   0.348  12.499 -0.8280 -2.1791 -0.8310
   27DOPE  C211 3412   1.107   0.450  12.353  0.0913 -0.0950 -0.4837
   27DOPE  H11R 3413   1.197   0.503  12.316  0.4978 -0.4852 -0.0700
   27DOPE  H11S 3414   1.034   0.533  12.353  1.3785  1.0589 -0.3722
   27DOPE  C212 3415   1.073   0.354  12.237  0.1872 -0.3376  0.0797
   27DOPE  H12R 3416   0.975   0.303  12.254 -1.2807  1.0330 -3.3897
   27DOPE  H12S 3417   1.145   0.270  12.224  0.0187 -1.0966  3.1724
   27DOPE  C213 3418   1.056   0.438  12.106 -0.1920 -0.4432  1.0219
   27DOPE  H13R 3419   1.161   0.465  12.080 -0.9833  1.5229 -0.3546
   27DOPE  H13S 3420   1.003   0.535  12.112  0.1752 -0.2291  0.8794
   27DOPE  C214 3421   0.986   0.362  11.988 -0.4440 -0.1366 -0.4158
   27DOPE  H14R 3422   1.068   0.317  11.927  1.7830  2.8087  0.2155
   27DOPE  H14S 3423   0.935   0.433  11.920  0.0657  0.2610 -0.3911
   27DOPE  C215 3424   0.879   0.255  12.024  0.0887  0.0023 -0.3476
   27DOPE  H15R 3425   0.796   0.304  12.079 -1.8202 -2.3721 -0.9467
   27DOPE  H15S 3426   0.918   0.175  12.091  1.2084  0.3893 -0.5096
   27DOPE  C216 3427   0.826   0.181  11.906 -0.3283  0.0704  0.0913
   27DOPE  H16R 3428   0.907   0.150  11.837 -0.4962  1.5432 -0.8043
   27DOPE  H16S 3429   0.752   0.244  11.853 -0.6413  0.3355  0.8326
   27DOPE  C217 3430   0.748   0.059  11.953  0.6588 -0.4494 -0.0442
   27DOPE  H17R 3431   0.657   0.093  12.006  0.8165 -1.0445  0.6210
   27DOPE  H17S 3432   0.816  -0.002  12.016  0.7545 -0.0326  0.2614
   27DOPE  C218 3433   0.700  -0.008  11.832 -0.1190  0.1455 -0.2728
   27DOPE  H18R 3434   0.635   0.052  11.764 -0.2696 -1.5367 -1.6690
   27DOPE  H18S 3435   0.633  -0.095  11.849  0.3822 -0.4931 -1.4569
   27DOPE  H18T 3436   0.788  -0.040  11.774 -0.3690  0.3792 -0.7886
   27DOPE   C33 3437   1.278   0.155  13.162 -0.3198 -0.1549  0.3638
   27DOPE   H3X 3438   1.376   0.119  13.126  0.6357  0.5653  2.0927
   27DOPE   H3Y 3439   1.231   0.206  13.076 -0.5582 -0.0363  0.5605
   27DOPE   C34 3440   1.194   0.037  13.202  0.2626  0.3620  0.0109
   27DOPE   H4X 3441   1.242  -0.017  13.287  2.0537 -0.3692 -1.3961
   27DOPE   H4Y 3442   1.091   0.063  13.236  1.4195  2.3760  2.2969
   27DOPE   C35 3443   1.202  -0.072  13.089  0.1410  0.4894 -0.1627
   27DOPE   H5X 3444   1.197  -0.170  13.139  2.7983  0.7036  0.6898
   27DOPE   H5Y 3445   1.302  -0.063  13.041 -0.1296 -0.1465 -0.8581
   27DOPE   C36 3446   1.096  -0.056  12.982 -0.5311 -0.8474  0.1305
   27DOPE   H6X 3447   1.118   0.037  12.925 -2.1347 -1.9872 -2.5066
   27DOPE   H6Y 3448   1.000  -0.040  13.036 -0.4533 -1.3984  0.4419
   27DOPE   C37 3449   1.093  -0.170  12.881  0.2855  0.2615 -0.0337
   27DOPE   H7X 3450   1.181  -0.150  12.816  0.0984  2.3722  0.2850
   27DOPE   H7Y 3451   1.108  -0.260  12.943  2.4156  0.9019  0.4718
   27DOPE   C38 3452   0.960  -0.183  12.802 -0.5448 -0.0205  0.3882
   27DOPE   H8X 3453   0.875  -0.191  12.873 -0.8258  0.7852  0.1633
   27DOPE   H8Y 3454   0.956  -0.275  12.739  1.0408  0.1825 -0.0415
   27DOPE   C39 3455   0.956  -0.060  12.716 -0.6076 -0.4680  0.2555
   27DOPE   H9X 3456   0.958   0.040  12.763  0.7576  0.5215 -1.7753
   27DOPE  C310 3457   0.947  -0.057  12.582  0.4264 -0.7172 -0.5798
   27DOPE  H10X 3458   0.938   0.045  12.541  0.6261 -0.4620  0.0022
   27DOPE  C311 3459   0.941  -0.175  12.491  0.3547  0.3685 -0.4743
   27DOPE  H11X 3460   1.024  -0.185  12.418  0.3531 -2.0946 -0.2379
   27DOPE  H11Y 3461   0.945  -0.276  12.536  0.9973  0.2050 -0.8807
   27DOPE  C312 3462   0.814  -0.180  12.414  0.2135 -0.2555  0.1152
   27DOPE  H12X 3463   0.782  -0.088  12.361 -0.5674  0.7706  2.2183
   27DOPE  H12Y 3464   0.733  -0.184  12.491 -1.4072  0.0198 -1.5212
   27DOPE  C313 3465   0.811  -0.292  12.310  0.2354  0.5914 -0.8167
   27DOPE  H13X 3466   0.849  -0.243  12.218  2.7280  3.4797  1.5578
   27DOPE  H13Y 3467   0.878  -0.373  12.347 -1.8039  0.7447  3.8674
   27DOPE  C314 3468   0.675  -0.345  12.275 -0.1083  0.2912  0.4269
   27DOPE  H14X 3469   0.612  -0.254  12.276 -0.3358  0.1454 -0.1423
   27DOPE  H14Y 3470   0.633  -0.417  12.348 -1.7082 -1.8705 -2.4022
   27DOPE  C315 3471   0.671  -0.417  12.138 -0.1240  0.3061 -0.2895
   27DOPE  H15X 3472   0.729  -0.511  12.136  1.6854  1.4013 -1.0051
   27DOPE  H15Y 3473   0.723  -0.350  12.066  2.5755 -1.1298  0.1979
   27DOPE  C316 3474   0.530  -0.435  12.082  0.0548 -0.1540 -0.0415
   27DOPE  H16X 3475   0.474  -0.339  12.078 -0.2056 -0.3163 -0.4186
   27DOPE  H16Y 3476   0.470  -0.507  12.142  0.9592 -1.5851 -0.7906
   27DOPE  C317 3477   0.532  -0.495  11.941  0.4055  0.4036  0.1550
   27DOPE  H17X 3478   0.626  -0.553  11.930 -0.8245 -1.3042 -2.0819
   27DOPE  H17Y 3479   0.449  -0.568  11.936  0.9161 -0.1756 -0.0370
   27DOPE  C318 3480   0.519  -0.402  11.817  0.5373 -1.1457  0.1749
   27DOPE  H18X 3481   0.438  -0.327  11.832 -0.6970 -2.2689 -0.6844
   27DOPE  H18Y 3482   0.615  -0.352  11.794 -0.3160  0.2651 -0.5253
   27DOPE  H18Z 3483   0.483  -0.454  11.725 -3.5403  0.9407  0.3287
   28DOPE     N 3484   0.872   7.831  13.936 -0.5443  0.2389  0.3473
   28DOPE   HN1 3485   0.903   7.793  13.844  0.2440 -0.3214  0.8261
   28DOPE   HN2 3486   0.865   7.934  13.928 -2.0285  0.2636  1.4807
   28DOPE   HN3 3487   0.953   7.815  14.001  1.1838 -0.0958 -1.7701
   28DOPE   C12 3488   0.741   7.776  13.977  0.0578  0.1566  0.0077
   28DOPE  H12A 3489   0.691   7.750  13.882 -1.7220  0.9582  0.6707
   28DOPE  H12B 3490   0.697   7.866  14.025  0.7107  0.5839 -0.1854
   28DOPE   C11 3491   0.743   7.666  14.089  0.4118  0.3284  0.4840
   28DOPE  H11A 3492   0.641   7.637  14.121  0.5098 -0.8216 -0.1745
   28DOPE  H11B 3493   0.797   7.718  14.172  3.0655  0.7895 -1.3870
   28DOPE     P 3494   0.783   7.408  14.105 -0.2193 -0.8810  0.0193
   28DOPE   O13 3495   0.763   7.430  14.254 -0.0320  0.2637  0.2488
   28DOPE   O14 3496   0.891   7.315  14.065 -0.2473  0.0520  0.2456
   28DOPE   O11 3497   0.643   7.371  14.049  0.2953  0.0853  0.1291
   28DOPE   O12 3498   0.814   7.553  14.040  0.1522  0.7244  0.0648
   28DOPE    C1 3499   0.616   7.378  13.904 -0.1019 -0.5547  0.1937
   28DOPE    HA 3500   0.699   7.432  13.853 -0.2049  1.0114  1.5853
   28DOPE    HB 3501   0.523   7.437  13.895  0.9536  1.6994  2.5616
   28DOPE    C2 3502   0.606   7.246  13.838  0.6313  0.4640 -0.2075
   28DOPE    HS 3503   0.698   7.188  13.860 -0.2806 -0.3871  1.4884
   28DOPE   O21 3504   0.561   7.263  13.698  0.2507  0.4201 -0.2167
   28DOPE   C21 3505   0.595   7.159  13.626 -0.8037  0.2028 -0.4202
   28DOPE   O22 3506   0.652   7.058  13.666 -0.5220 -0.3358 -0.2527
   28DOPE   C22 3507   0.528   7.178  13.488  0.3497 -0.0490  0.6674
   28DOPE   H2R 3508   0.563   7.272  13.441 -1.2079  0.0572 -0.3638
   28DOPE   H2S 3509   0.419   7.180  13.507  0.2428 -0.4421  0.1294
   28DOPE    C3 3510   0.481   7.173  13.904 -0.2771  0.0507 -0.0352
   28DOPE    HX 3511   0.394   7.230  13.865  1.1796  1.9485 -0.6629
   28DOPE    HY 3512   0.481   7.198  14.012  0.1866  1.0945 -0.2614
   28DOPE   O31 3513   0.472   7.041  13.871 -0.5343  0.5225  0.3553
   28DOPE   C31 3514   0.557   6.959  13.941  0.0762  1.1815  0.4155
   28DOPE   O32 3515   0.613   6.990  14.046  0.3140  0.9658  0.0518
   28DOPE   C32 3516   0.562   6.823  13.871 -0.2715  0.7729  0.2284
   28DOPE   H2X 3517   0.654   6.827  13.809  0.4677  0.7291  1.2990
   28DOPE   H2Y 3518   0.573   6.739  13.943 -1.5780 -1.2249 -1.7138
   28DOPE   C23 3519   0.560   7.055  13.399 -0.4835 -0.1274  0.1795
   28DOPE   H3R 3520   0.557   6.962  13.460  3.6807  1.7565  3.8003
   28DOPE   H3S 3521   0.667   7.063  13.371 -0.1877 -2.2748  0.4916
   28DOPE   C24 3522   0.486   7.047  13.272  0.1935  0.1344 -0.4285
   28DOPE   H4R 3523   0.521   7.140  13.222 -0.4324  2.3402  2.8989
   28DOPE   H4S 3524   0.376   7.062  13.282  0.1186  0.2278 -1.3199
   28DOPE   C25 3525   0.535   6.920  13.198  0.2248 -0.6833  0.4893
   28DOPE   H5R 3526   0.476   6.833  13.235 -1.7946 -0.6474 -2.3438
   28DOPE   H5S 3527   0.644   6.902  13.205  0.2127 -0.5229  1.2054
   28DOPE   C26 3528   0.502   6.944  13.057 -0.7840 -0.0898 -0.1003
   28DOPE   H6R 3529   0.554   7.038  13.028  3.4433 -2.0252  0.3779
   28DOPE   H6S 3530   0.394   6.950  13.036 -0.6013 -1.5367 -1.7465
   28DOPE   C27 3531   0.551   6.826  12.966  0.1199 -0.3917 -0.8973
   28DOPE   H7R 3532   0.498   6.733  12.995 -2.9934  1.8716  1.4205
   28DOPE   H7S 3533   0.660   6.809  12.973 -0.4494 -4.0175  1.2504
   28DOPE   C28 3534   0.513   6.850  12.825  0.2023 -0.4392 -0.3437
   28DOPE   H8R 3535   0.407   6.878  12.812  0.1430 -1.0887 -1.3725
   28DOPE   H8S 3536   0.520   6.759  12.760  0.1383 -0.6521 -0.0535
   28DOPE   C29 3537   0.601   6.948  12.754  0.3712 -0.3545  0.1764
   28DOPE   H9R 3538   0.688   6.908  12.699  1.6602  2.8279 -0.3014
   28DOPE  C210 3539   0.585   7.080  12.745  0.0546 -0.0332 -0.4776
   28DOPE  H10R 3540   0.674   7.139  12.717  0.0592 -0.0402 -0.4780
   28DOPE  C211 3541   0.467   7.162  12.805 -1.3390 -0.1572 -0.2599
   28DOPE  H11R 3542   0.511   7.217  12.891 -0.4513 -1.7793  0.3825
   28DOPE  H11S 3543   0.385   7.096  12.842  1.8778 -2.4105  3.6152
   28DOPE  C212 3544   0.419   7.273  12.709  0.0116  0.0725 -0.3850
   28DOPE  H12R 3545   0.504   7.326  12.660  1.4584  0.8104  2.6700
   28DOPE  H12S 3546   0.372   7.355  12.767 -0.8586 -0.4833 -0.2888
   28DOPE  C213 3547   0.331   7.231  12.593 -0.0987  0.2970  0.0383
   28DOPE  H13R 3548   0.394   7.178  12.519  1.9907  1.9683  0.5034
   28DOPE  H13S 3549   0.293   7.318  12.536  1.0007 -0.8011 -2.5000
   28DOPE  C214 3550   0.211   7.143  12.637 -0.2675  0.3364  0.7818
   28DOPE  H14R 3551   0.238   7.041  12.671  0.8916  0.0165 -0.9440
   28DOPE  H14S 3552   0.161   7.131  12.538  1.0318 -1.8056  0.3060
   28DOPE  C215 3553   0.111   7.214  12.721  0.3452 -0.2074  0.4495
   28DOPE  H15R 3554   0.150   7.246  12.820 -0.1701  1.4970  0.1406
   28DOPE  H15S 3555   0.028   7.141  12.735 -0.4365  0.3864 -0.9384
   28DOPE  C216 3556   0.049   7.329  12.644 -0.2822 -0.1000 -0.2687
   28DOPE  H16R 3557   0.003   7.280  12.556  0.6438 -0.4715 -0.5654
   28DOPE  H16S 3558   0.130   7.403  12.626 -1.0187  0.4674 -1.3277
   28DOPE  C217 3559  -0.071   7.391  12.718 -0.7212  0.4745  0.1191
   28DOPE  H17R 3560  -0.048   7.404  12.826 -0.9832  3.2057 -0.0663
   28DOPE  H17S 3561  -0.155   7.319  12.719 -0.0678 -0.2943  0.6677
   28DOPE  C218 3562  -0.108   7.523  12.651  0.2045  0.7159  0.0853
   28DOPE  H18R 3563  -0.014   7.580  12.634 -0.6736  1.7412 -1.5892
   28DOPE  H18S 3564  -0.186   7.575  12.711 -0.3523  0.5348 -0.4648
   28DOPE  H18T 3565  -0.157   7.512  12.551 -2.5259 -0.5753  1.4626
   28DOPE   C33 3566   0.453   6.786  13.763  0.6450  0.4268  0.5219
   28DOPE   H3X 3567   0.477   6.859  13.683 -2.3342  0.9733  0.0132
   28DOPE   H3Y 3568   0.352   6.805  13.804  0.0553  1.0182 -1.1223
   28DOPE   C34 3569   0.458   6.645  13.706  0.4013  0.2507 -0.6241
   28DOPE   H4X 3570   0.557   6.627  13.659  0.5586  0.4008 -0.3569
   28DOPE   H4Y 3571   0.458   6.578  13.795  2.9744  3.7937  2.3796
   28DOPE   C35 3572   0.349   6.614  13.597 -0.3405  0.5090 -1.0211
   28DOPE   H5X 3573   0.337   6.709  13.541  2.2110  1.0795 -0.7295
   28DOPE   H5Y 3574   0.255   6.608  13.657  0.6185  1.8573  0.7220
   28DOPE   C36 3575   0.372   6.488  13.513  0.2617 -0.3464  0.4595
   28DOPE   H6X 3576   0.433   6.418  13.574 -0.8083 -0.2810  1.6716
   28DOPE   H6Y 3577   0.437   6.510  13.426  0.2522 -0.6149  0.3854
   28DOPE   C37 3578   0.249   6.422  13.462 -0.0176  0.2108  0.5052
   28DOPE   H7X 3579   0.185   6.394  13.549 -1.7172  0.7674 -0.5122
   28DOPE   H7Y 3580   0.184   6.484  13.397  1.2986 -0.6526 -1.7228
   28DOPE   C38 3581   0.271   6.286  13.388  0.1251 -0.2758  0.1457
   28DOPE   H8X 3582   0.179   6.224  13.382  0.0104 -0.1567  0.6820
   28DOPE   H8Y 3583   0.345   6.227  13.446 -0.5516 -1.6277 -0.3201
   28DOPE   C39 3584   0.326   6.317  13.247  0.9048 -0.5764  0.5375
   28DOPE   H9X 3585   0.258   6.375  13.183  1.7064 -0.1409  0.0758
   28DOPE  C310 3586   0.444   6.286  13.190  0.2964  0.8398  0.0784
   28DOPE  H10X 3587   0.468   6.316  13.087 -0.7366 -1.0575 -0.7648
   28DOPE  C311 3588   0.545   6.201  13.256 -0.2563 -0.4031 -0.4080
   28DOPE  H11X 3589   0.633   6.267  13.267  0.4438 -1.0570 -1.7419
   28DOPE  H11Y 3590   0.511   6.172  13.358  1.0551 -2.1656 -0.4176
   28DOPE  C312 3591   0.586   6.074  13.178 -0.7162 -0.5020 -0.3300
   28DOPE  H12X 3592   0.645   6.114  13.092  1.0732  3.2135  2.3812
   28DOPE  H12Y 3593   0.497   6.012  13.155 -0.2014 -2.3980  2.3361
   28DOPE  C313 3594   0.682   5.981  13.249 -0.0032  0.6265 -0.3486
   28DOPE  H13X 3595   0.746   6.037  13.320 -2.6925  1.8213  1.3107
   28DOPE  H13Y 3596   0.619   5.924  13.321  0.4056  0.2305 -0.3042
   28DOPE  C314 3597   0.760   5.878  13.165  0.0575  0.7169  0.1333
   28DOPE  H14X 3598   0.846   5.927  13.113  0.9254  0.1715  1.0106
   28DOPE  H14Y 3599   0.702   5.850  13.074  0.3894  1.0357 -0.1796
   28DOPE  C315 3600   0.809   5.763  13.252  0.1831  0.6417 -0.9557
   28DOPE  H15X 3601   0.722   5.699  13.281  0.6378 -0.3439 -1.6854
   28DOPE  H15Y 3602   0.863   5.793  13.344 -1.7048 -0.7457  0.7079
   28DOPE  C316 3603   0.917   5.666  13.187  1.0059  0.0721 -0.2461
   28DOPE  H16X 3604   1.004   5.717  13.140  1.7495  0.2874  1.2910
   28DOPE  H16Y 3605   0.879   5.608  13.100  2.3341 -2.4042  0.7168
   28DOPE  C317 3606   0.971   5.575  13.295  0.6774  0.2885  0.4014
   28DOPE  H17X 3607   1.067   5.536  13.256  0.4221  3.4678 -4.1345
   28DOPE  H17Y 3608   0.995   5.621  13.393  0.8821 -0.1741  0.5750
   28DOPE  C318 3609   0.886   5.449  13.328  0.1475  0.3742  0.2671
   28DOPE  H18X 3610   0.950   5.386  13.392 -1.1541 -1.9198 -0.5880
   28DOPE  H18Y 3611   0.800   5.465  13.396 -0.3532  0.1419 -0.3096
   28DOPE  H18Z 3612   0.838   5.399  13.241 -2.0193 -0.6997  2.0146
   29DOPE     N 3613   8.346   1.067  13.780 -0.4086 -0.5631 -0.7109
   29DOPE   HN1 3614   8.322   0.985  13.721  0.2137 -2.0338  0.9807
   29DOPE   HN2 3615   8.262   1.128  13.776  0.3806  0.7438  1.1041
   29DOPE   HN3 3616   8.430   1.121  13.750 -1.5158  2.1557  0.7484
   29DOPE   C12 3617   8.378   1.034  13.923  0.6268 -0.4021  0.4824
   29DOPE  H12A 3618   8.293   0.973  13.962  0.5821  1.1948  3.0743
   29DOPE  H12B 3619   8.383   1.128  13.981  0.8103 -0.6538  0.8765
   29DOPE   C11 3620   8.504   0.949  13.931 -0.0743 -0.5842  0.3642
   29DOPE  H11A 3621   8.493   0.855  13.872 -0.4653  1.6512 -3.4443
   29DOPE  H11B 3622   8.505   0.915  14.037 -2.2612  0.8303  0.8894
   29DOPE     P 3623   8.743   1.063  13.982  0.1029  0.0353  0.1639
   29DOPE   O13 3624   8.789   0.933  14.036 -0.4429  0.3070  0.2471
   29DOPE   O14 3625   8.713   1.168  14.077 -0.5132 -0.1613  0.3214
   29DOPE   O11 3626   8.860   1.107  13.884  0.2240  0.0293  0.5722
   29DOPE   O12 3627   8.617   1.026  13.889  0.3442  0.4513  0.1883
   29DOPE    C1 3628   8.874   1.233  13.837 -0.4191 -0.3082 -0.4050
   29DOPE    HA 3629   8.979   1.241  13.800 -0.2604  1.5150  0.3580
   29DOPE    HB 3630   8.878   1.306  13.921  0.2940 -0.7045 -0.0866
   29DOPE    C2 3631   8.770   1.268  13.733  0.6623  0.0428 -0.3775
   29DOPE    HS 3632   8.667   1.262  13.774  0.0911 -1.4343 -1.9043
   29DOPE   O21 3633   8.783   1.166  13.636 -0.1240 -0.4059 -0.2402
   29DOPE   C21 3634   8.669   1.125  13.583 -0.1002 -0.1279  0.1827
   29DOPE   O22 3635   8.553   1.149  13.619 -0.1931 -0.9499  0.0626
   29DOPE   C22 3636   8.701   1.025  13.463  0.6180  0.4578 -0.0603
   29DOPE   H2R 3637   8.703   0.921  13.500 -0.0348  0.4557 -0.0167
   29DOPE   H2S 3638   8.798   1.058  13.420 -0.6757  3.4102 -0.9915
   29DOPE    C3 3639   8.798   1.404  13.672  0.0935 -0.1028  0.1587
   29DOPE    HX 3640   8.879   1.384  13.598 -0.6919  2.6109 -1.5873
   29DOPE    HY 3641   8.841   1.485  13.735 -0.6597 -0.3209  0.9599
   29DOPE   O31 3642   8.682   1.456  13.610 -0.2435 -0.3557 -0.0381
   29DOPE   C31 3643   8.592   1.524  13.680 -0.1016  0.6808  0.3223
   29DOPE   O32 3644   8.620   1.562  13.791  0.4854  0.3691 -0.3580
   29DOPE   C32 3645   8.465   1.556  13.605  0.5190 -0.0073 -0.4816
   29DOPE   H2X 3646   8.383   1.553  13.681  0.3860  0.5908 -0.5936
   29DOPE   H2Y 3647   8.471   1.661  13.569  1.3038  0.1458  0.0697
   29DOPE   C23 3648   8.585   1.021  13.357  0.5114 -0.4438  0.1851
   29DOPE   H3R 3649   8.574   1.122  13.311 -0.9280 -0.8459 -0.4272
   29DOPE   H3S 3650   8.489   0.999  13.409  0.6674  1.8452  1.5718
   29DOPE   C24 3651   8.622   0.924  13.247 -0.5333 -0.2430 -0.0437
   29DOPE   H4R 3652   8.633   0.824  13.295  0.0441 -0.3625 -0.4132
   29DOPE   H4S 3653   8.729   0.942  13.223 -0.9791  0.3303 -1.6802
   29DOPE   C25 3654   8.522   0.920  13.133 -0.7712 -0.6010  0.6355
   29DOPE   H5R 3655   8.428   0.886  13.182 -1.9475  1.4895 -0.0184
   29DOPE   H5S 3656   8.546   0.840  13.060  0.4639 -1.0956  1.5440
   29DOPE   C26 3657   8.486   1.048  13.064 -0.2377 -0.4145 -0.2714
   29DOPE   H6R 3658   8.580   1.102  13.039 -0.8502  1.7150  1.7314
   29DOPE   H6S 3659   8.427   1.118  13.127  1.3836 -0.5711  1.5104
   29DOPE   C27 3660   8.415   1.011  12.927  0.4975 -0.0033 -0.3251
   29DOPE   H7R 3661   8.371   1.105  12.887 -0.1480 -1.1553 -2.4542
   29DOPE   H7S 3662   8.320   0.955  12.944  0.3052 -0.2006 -1.9525
   29DOPE   C28 3663   8.517   0.964  12.821 -0.6312  0.3619  0.1198
   29DOPE   H8R 3664   8.568   0.871  12.855 -2.4609 -2.1336 -3.2936
   29DOPE   H8S 3665   8.592   1.046  12.809  0.4873 -0.5875  0.4760
   29DOPE   C29 3666   8.468   0.941  12.690  0.8532 -0.4616  0.3202
   29DOPE   H9R 3667   8.462   1.037  12.637  0.3772 -0.8292 -0.3191
   29DOPE  C210 3668   8.404   0.834  12.646 -0.0952 -0.6108 -0.0406
   29DOPE  H10R 3669   8.371   0.817  12.543  0.1514  0.8372 -0.3802
   29DOPE  C211 3670   8.365   0.725  12.733  0.3755 -0.1866 -0.6988
   29DOPE  H11R 3671   8.257   0.736  12.760  0.3535  0.6301 -1.0948
   29DOPE  H11S 3672   8.428   0.726  12.824 -0.9992 -3.9381  0.5094
   29DOPE  C212 3673   8.388   0.581  12.682 -0.7315  0.5152  0.0177
   29DOPE  H12R 3674   8.494   0.573  12.650 -1.1460 -1.1759 -1.1192
   29DOPE  H12S 3675   8.337   0.575  12.583  1.7075  0.7923 -1.3397
   29DOPE  C213 3676   8.354   0.462  12.770 -0.4869  0.3120  0.3497
   29DOPE  H13R 3677   8.244   0.461  12.779 -0.5408  1.3573 -0.0297
   29DOPE  H13S 3678   8.409   0.480  12.865  2.1900  0.4647 -1.0994
   29DOPE  C214 3679   8.387   0.321  12.714 -0.0746 -0.7660 -0.5293
   29DOPE  H14R 3680   8.396   0.252  12.801  0.7577  0.8814  0.7563
   29DOPE  H14S 3681   8.484   0.337  12.661 -1.1829  0.0804 -2.4158
   29DOPE  C215 3682   8.287   0.265  12.612 -0.0213 -0.5670  0.5872
   29DOPE  H15R 3683   8.284   0.340  12.530  1.3256  0.5624  1.5235
   29DOPE  H15S 3684   8.183   0.245  12.647 -1.0822 -0.9182 -2.4266
   29DOPE  C216 3685   8.334   0.138  12.539  0.3030  0.2911  0.1490
   29DOPE  H16R 3686   8.410   0.166  12.463  1.0631  1.0939  1.1759
   29DOPE  H16S 3687   8.242   0.096  12.495  0.5030  0.0670 -0.0556
   29DOPE  C217 3688   8.388   0.024  12.628  0.4809 -0.3407  0.5732
   29DOPE  H17R 3689   8.313  -0.013  12.701  0.7617 -1.0337  0.5102
   29DOPE  H17S 3690   8.476   0.068  12.680  0.2961 -0.7329  1.2281
   29DOPE  C218 3691   8.425  -0.097  12.542  0.2622 -0.4333  0.3270
   29DOPE  H18R 3692   8.477  -0.076  12.446 -0.7621  1.4852  0.1226
   29DOPE  H18S 3693   8.329  -0.147  12.519  1.2736 -1.1061 -2.8803
   29DOPE  H18T 3694   8.495  -0.165  12.595 -0.1113 -0.9749  0.1311
   29DOPE   C33 3695   8.424   1.462  13.490  0.3649  0.1735 -0.1083
   29DOPE   H3X 3696   8.315   1.483  13.476 -0.2946 -1.3073  2.2663
   29DOPE   H3Y 3697   8.429   1.356  13.522 -0.0968  0.1176 -0.2099
   29DOPE   C34 3698   8.510   1.481  13.368 -0.1756 -0.7150  0.4873
   29DOPE   H4X 3699   8.539   1.588  13.364  4.9802 -1.8685 -2.4015
   29DOPE   H4Y 3700   8.605   1.426  13.383  0.6118  0.8577  1.5652
   29DOPE   C35 3701   8.426   1.443  13.234  0.1188 -0.1606  0.5544
   29DOPE   H5X 3702   8.332   1.502  13.237  1.1170  1.6124 -0.8371
   29DOPE   H5Y 3703   8.400   1.336  13.244 -1.6502  0.2019  0.2959
   29DOPE   C36 3704   8.503   1.463  13.098 -0.2129 -0.3763  0.5812
   29DOPE   H6X 3705   8.597   1.405  13.084 -0.4063 -0.7625  0.8785
   29DOPE   H6Y 3706   8.527   1.570  13.079  0.8814 -0.9752 -1.6643
   29DOPE   C37 3707   8.400   1.423  12.981 -0.1973 -0.3196  0.5877
   29DOPE   H7X 3708   8.368   1.318  13.000  1.0321 -0.8103 -0.0037
   29DOPE   H7Y 3709   8.307   1.483  12.992 -0.4859 -0.3437 -1.3759
   29DOPE   C38 3710   8.451   1.449  12.839  0.0003  0.7288  0.2477
   29DOPE   H8X 3711   8.552   1.406  12.826 -0.9130 -3.8087  4.7173
   29DOPE   H8Y 3712   8.458   1.559  12.824  0.8343  0.5395 -0.8752
   29DOPE   C39 3713   8.359   1.388  12.737  0.0989 -0.6810  0.2586
   29DOPE   H9X 3714   8.378   1.280  12.731  1.3365 -0.5433  1.1908
   29DOPE  C310 3715   8.249   1.440  12.676 -0.0463 -0.2813 -0.5101
   29DOPE  H10X 3716   8.189   1.371  12.615 -0.2352 -1.5077  0.9848
   29DOPE  C311 3717   8.191   1.576  12.705 -0.0469  0.1588  0.0663
   29DOPE  H11X 3718   8.230   1.614  12.802 -1.5245 -0.4416  0.9264
   29DOPE  H11Y 3719   8.220   1.640  12.619 -1.7306  0.2950 -0.4379
   29DOPE  C312 3720   8.034   1.565  12.710 -0.2019  1.0146  0.2045
   29DOPE  H12X 3721   7.987   1.531  12.615 -2.0580  3.2575  0.2078
   29DOPE  H12Y 3722   7.991   1.664  12.737  0.0940  0.8435  1.3538
   29DOPE  C313 3723   7.977   1.477  12.824  0.5878  0.0134  0.3263
   29DOPE  H13X 3724   8.028   1.380  12.808 -0.7837 -0.3815 -2.1818
   29DOPE  H13Y 3725   8.001   1.520  12.924 -1.1716  1.3054  0.2510
   29DOPE  C314 3726   7.823   1.456  12.814  0.2687  0.1817  0.2434
   29DOPE  H14X 3727   7.808   1.394  12.723 -0.0116 -1.5039  1.3907
   29DOPE  H14Y 3728   7.772   1.553  12.798  2.1894  0.7921 -3.0979
   29DOPE  C315 3729   7.766   1.367  12.920  0.0518  0.5629 -0.1001
   29DOPE  H15X 3730   7.801   1.416  13.013  1.5951 -1.0165  0.2139
   29DOPE  H15Y 3731   7.808   1.264  12.924  0.3182  0.6999  1.2225
   29DOPE  C316 3732   7.612   1.372  12.913  0.0146  0.5634  0.9650
   29DOPE  H16X 3733   7.590   1.414  12.813  0.7340  0.3193  0.6987
   29DOPE  H16Y 3734   7.570   1.438  12.992 -1.3741 -1.3052  1.8592
   29DOPE  C317 3735   7.557   1.229  12.935  0.0495 -0.0017  0.1844
   29DOPE  H17X 3736   7.599   1.153  12.865 -0.2331 -1.2831  1.3541
   29DOPE  H17Y 3737   7.601   1.193  13.030  0.8717  1.2124  0.2892
   29DOPE  C318 3738   7.408   1.210  12.934  0.1114 -0.4104 -0.2357
   29DOPE  H18X 3739   7.362   1.218  12.834  1.8667  0.4658 -1.0132
   29DOPE  H18Y 3740   7.375   1.109  12.969 -1.9644  0.2743 -0.0876
   29DOPE  H18Z 3741   7.351   1.283  12.995  0.3174  2.4913 -3.2781
   30DOPE     N 3742   1.690   7.454  13.727 -0.9355  0.0246  0.0254
   30DOPE   HN1 3743   1.711   7.373  13.666 -0.5603  1.6434 -2.0919
   30DOPE   HN2 3744   1.648   7.398  13.805 -0.3788 -3.2008 -1.7923
   30DOPE   HN3 3745   1.615   7.513  13.686  0.2101  0.7888 -1.0176
   30DOPE   C12 3746   1.816   7.526  13.766 -0.2267  0.1591  0.3354
   30DOPE  H12A 3747   1.852   7.556  13.665 -2.8765 -0.9441 -1.0416
   30DOPE  H12B 3748   1.887   7.450  13.804 -0.4687  0.2127  0.8945
   30DOPE   C11 3749   1.786   7.645  13.852  0.1649 -0.3633 -0.4488
   30DOPE  H11A 3750   1.885   7.696  13.860  0.8497 -1.6006 -0.8670
   30DOPE  H11B 3751   1.756   7.621  13.956  0.6787  2.6569  0.5031
   30DOPE     P 3752   1.608   7.844  13.846  0.1204  0.1754  0.1968
   30DOPE   O13 3753   1.588   7.818  13.985 -0.2594  0.1779  0.6561
   30DOPE   O14 3754   1.484   7.860  13.760  0.2419 -0.2872  0.0005
   30DOPE   O11 3755   1.692   7.976  13.820  0.1033 -0.0383 -0.4394
   30DOPE   O12 3756   1.694   7.731  13.783 -0.7124  0.2263  0.0766
   30DOPE    C1 3757   1.793   7.974  13.723 -0.8089  0.5346 -0.1402
   30DOPE    HA 3758   1.776   7.903  13.639  2.3326  0.2293 -0.6549
   30DOPE    HB 3759   1.888   7.937  13.766  0.0342  2.0360 -0.6336
   30DOPE    C2 3760   1.823   8.113  13.657 -0.0895 -0.2760  0.3365
   30DOPE    HS 3761   1.887   8.166  13.732  0.0536  0.7548 -0.4847
   30DOPE   O21 3762   1.700   8.195  13.632 -0.3405  0.0262 -0.2892
   30DOPE   C21 3763   1.742   8.324  13.612  0.2963 -0.0327 -0.5301
   30DOPE   O22 3764   1.855   8.363  13.649 -0.3619  0.6273  0.3415
   30DOPE   C22 3765   1.629   8.400  13.548 -0.1779  0.1921 -0.1164
   30DOPE   H2R 3766   1.550   8.419  13.625  0.4251 -0.5087  0.6914
   30DOPE   H2S 3767   1.589   8.340  13.464 -0.2059 -0.6123  0.4599
   30DOPE    C3 3768   1.911   8.098  13.531  0.4382  0.4874  0.1424
   30DOPE    HX 3769   1.917   8.201  13.490 -1.3480  1.3383  1.8501
   30DOPE    HY 3770   1.856   8.041  13.453  0.6092 -0.1283  0.4645
   30DOPE   O31 3771   2.044   8.039  13.542 -0.1003  0.7980  0.3409
   30DOPE   C31 3772   2.151   8.126  13.518  0.4032  0.0827  0.0587
   30DOPE   O32 3773   2.147   8.247  13.540 -0.2857 -0.1639 -0.8476
   30DOPE   C32 3774   2.264   8.042  13.461  0.0802  0.4726 -0.0366
   30DOPE   H2X 3775   2.336   8.022  13.543  0.5528  3.8039  0.4708
   30DOPE   H2Y 3776   2.233   7.939  13.431 -1.6365  0.4584  1.5765
   30DOPE   C23 3777   1.661   8.541  13.490 -0.3956 -0.3464  0.0263
   30DOPE   H3R 3778   1.687   8.613  13.571 -4.7353 -0.9828  2.2546
   30DOPE   H3S 3779   1.559   8.577  13.464 -1.5723 -2.7076  1.1067
   30DOPE   C24 3780   1.747   8.556  13.360  0.3505  0.1069  0.1875
   30DOPE   H4R 3781   1.690   8.531  13.268  0.2242  2.1770 -0.3537
   30DOPE   H4S 3782   1.829   8.481  13.353 -0.2259 -0.5102 -0.1182
   30DOPE   C25 3783   1.796   8.703  13.342  0.2084  0.0825 -0.3441
   30DOPE   H5R 3784   1.892   8.708  13.286  0.1250  1.3460 -0.4062
   30DOPE   H5S 3785   1.807   8.751  13.442  0.0893 -1.0212  0.2052
   30DOPE   C26 3786   1.692   8.778  13.260  0.2896  0.3047  0.5374
   30DOPE   H6R 3787   1.699   8.888  13.274 -0.5595  0.3374  0.7915
   30DOPE   H6S 3788   1.590   8.741  13.284 -0.2136 -0.9342 -2.8626
   30DOPE   C27 3789   1.719   8.759  13.109  0.0044  0.0435 -0.1697
   30DOPE   H7R 3790   1.714   8.653  13.075 -1.8421 -0.7010  2.1439
   30DOPE   H7S 3791   1.820   8.803  13.096  0.6746 -1.3972 -0.0317
   30DOPE   C28 3792   1.607   8.826  13.029 -0.4475 -0.0955 -0.5226
   30DOPE   H8R 3793   1.595   8.932  13.062  0.4887 -0.2092  0.2266
   30DOPE   H8S 3794   1.519   8.770  13.066 -0.2006 -0.0084  0.2066
   30DOPE   C29 3795   1.615   8.823  12.880  0.3771 -0.1419  0.9255
   30DOPE   H9R 3796   1.703   8.767  12.845  0.1571  1.0732 -1.7883
   30DOPE  C210 3797   1.535   8.875  12.786  0.2293  0.0025  0.6502
   30DOPE  H10R 3798   1.560   8.859  12.680  1.0401 -0.2763  0.8757
   30DOPE  C211 3799   1.412   8.956  12.823 -0.0350 -0.0518  0.1229
   30DOPE  H11R 3800   1.366   8.989  12.728  0.9109 -1.3307 -0.8167
   30DOPE  H11S 3801   1.441   9.048  12.879  0.0551 -1.6912  2.9767
   30DOPE  C212 3802   1.306   8.888  12.917 -0.5317  0.2233  0.2245
   30DOPE  H12R 3803   1.342   8.866  13.020  0.6847  0.8284 -0.0439
   30DOPE  H12S 3804   1.279   8.788  12.879  1.9241  0.3599 -2.1617
   30DOPE  C213 3805   1.179   8.968  12.924 -0.3401  0.7436 -0.2635
   30DOPE  H13R 3806   1.096   8.906  12.965  0.6817 -0.9235 -0.6159
   30DOPE  H13S 3807   1.149   8.983  12.818 -0.3170 -1.6943 -0.6656
   30DOPE  C214 3808   1.182   9.095  13.009  1.0701  0.8788  0.4410
   30DOPE  H14R 3809   1.271   9.153  12.978  1.1488  1.3454  1.5234
   30DOPE  H14S 3810   1.175   9.080  13.119 -1.0835  0.7772  0.3409
   30DOPE  C215 3811   1.063   9.194  12.968  0.5703 -0.3163  0.7273
   30DOPE  H15R 3812   0.967   9.137  12.970  0.0515  0.1426 -2.9338
   30DOPE  H15S 3813   1.073   9.233  12.864 -0.2081  0.8954  1.0970
   30DOPE  C216 3814   1.058   9.315  13.056 -0.5673 -0.1825 -0.0754
   30DOPE  H16R 3815   1.156   9.369  13.054 -1.0603  0.7786  0.7418
   30DOPE  H16S 3816   1.052   9.267  13.156  2.0689 -2.0865 -0.7288
   30DOPE  C217 3817   0.945   9.413  13.034  0.3439 -0.6193  0.1227
   30DOPE  H17R 3818   0.852   9.355  13.052 -0.1603  0.1542  0.0896
   30DOPE  H17S 3819   0.932   9.454  12.931 -0.5331  0.1783  0.5428
   30DOPE  C218 3820   0.945   9.540  13.123 -0.9039 -0.0323 -0.1507
   30DOPE  H18R 3821   1.031   9.607  13.104  0.2004 -1.1443  0.7616
   30DOPE  H18S 3822   0.959   9.510  13.229 -1.0419 -0.9817 -0.3920
   30DOPE  H18T 3823   0.853   9.602  13.110  0.1063  1.3233 -1.1153
   30DOPE   C33 3824   2.343   8.102  13.342  0.2741  0.1178  0.1155
   30DOPE   H3X 3825   2.430   8.040  13.312 -0.3555 -0.7720  0.0729
   30DOPE   H3Y 3826   2.383   8.204  13.362  0.9866 -0.0905 -0.2128
   30DOPE   C34 3827   2.255   8.115  13.219  0.2377  0.4855 -0.0996
   30DOPE   H4X 3828   2.208   8.216  13.221  1.3884  1.0370  2.3297
   30DOPE   H4Y 3829   2.320   8.118  13.129 -0.0392 -1.1548 -0.3840
   30DOPE   C35 3830   2.148   8.013  13.189  0.4502 -0.6975  0.6635
   30DOPE   H5X 3831   2.084   8.050  13.106 -0.9901  0.0399  2.0419
   30DOPE   H5Y 3832   2.072   8.010  13.270  0.4019  3.2286  0.9566
   30DOPE   C36 3833   2.209   7.877  13.152 -0.3127  0.3856  0.2986
   30DOPE   H6X 3834   2.166   7.797  13.215 -2.3572 -1.7816 -3.5067
   30DOPE   H6Y 3835   2.320   7.874  13.157 -0.1967 -1.5656 -1.9737
   30DOPE   C37 3836   2.170   7.834  13.004 -0.2975  0.6438  0.1210
   30DOPE   H7X 3837   2.069   7.870  12.977 -0.1986 -0.1125 -1.3546
   30DOPE   H7Y 3838   2.229   7.892  12.929  1.2218 -2.3283 -1.1690
   30DOPE   C38 3839   2.166   7.683  12.978 -0.3886  0.1639 -0.2725
   30DOPE   H8X 3840   2.083   7.639  13.037  1.6821 -1.2774  1.7884
   30DOPE   H8Y 3841   2.261   7.640  13.017  0.2736  0.5456 -1.4187
   30DOPE   C39 3842   2.147   7.638  12.839 -0.1643 -0.0334 -0.0173
   30DOPE   H9X 3843   2.233   7.611  12.776 -1.2260  0.9686 -1.9635
   30DOPE  C310 3844   2.023   7.641  12.779 -0.2375 -0.1605  0.1619
   30DOPE  H10X 3845   2.012   7.597  12.679  4.1489 -1.7264  0.1660
   30DOPE  C311 3846   1.899   7.678  12.845 -0.1822 -0.0037 -0.0523
   30DOPE  H11X 3847   1.824   7.596  12.839 -1.0900  0.8980 -3.3073
   30DOPE  H11Y 3848   1.908   7.694  12.954  0.3263 -0.2244 -0.0609
   30DOPE  C312 3849   1.839   7.802  12.782 -0.2191 -0.3905 -0.2882
   30DOPE  H12X 3850   1.834   7.798  12.671  1.0983 -0.0621 -0.3771
   30DOPE  H12Y 3851   1.916   7.881  12.802 -0.8139 -0.1645  1.2067
   30DOPE  C313 3852   1.697   7.841  12.830 -0.0919  0.1270  0.8447
   30DOPE  H13X 3853   1.646   7.912  12.761 -0.6219 -2.9777 -2.1954
   30DOPE  H13Y 3854   1.632   7.751  12.830 -1.6118  1.1753  2.1442
   30DOPE  C314 3855   1.676   7.900  12.969 -0.7436 -0.4334  0.6359
   30DOPE  H14X 3856   1.701   7.827  13.049  1.4719 -0.7369 -0.2589
   30DOPE  H14Y 3857   1.570   7.923  12.989 -0.3987  1.5413  0.3790
   30DOPE  C315 3858   1.738   8.035  12.987 -0.6059  0.0024  1.1087
   30DOPE  H15X 3859   1.672   8.105  12.931  0.6156 -0.5338 -1.0818
   30DOPE  H15Y 3860   1.836   8.046  12.935  0.0260  1.8371  2.5491
   30DOPE  C316 3861   1.758   8.090  13.132  0.3570 -0.3311 -0.1996
   30DOPE  H16X 3862   1.820   8.182  13.121 -0.0865  0.3119  2.1354
   30DOPE  H16Y 3863   1.810   8.011  13.190 -3.9778 -1.7569  2.1712
   30DOPE  C317 3864   1.621   8.125  13.211 -0.2062  0.2250 -0.0697
   30DOPE  H17X 3865   1.573   8.025  13.209 -0.5784  0.4092 -0.7196
   30DOPE  H17Y 3866   1.638   8.170  13.311  1.9627  0.8269 -0.6615
   30DOPE  C318 3867   1.532   8.230  13.139  0.4266 -0.6993  0.3144
   30DOPE  H18X 3868   1.510   8.190  13.037  0.2277 -2.3753  0.9864
   30DOPE  H18Y 3869   1.438   8.251  13.194 -0.1080  2.4463 -1.5738
   30DOPE  H18Z 3870   1.590   8.324  13.128 -0.3588 -0.0113  1.7401
   31DOPE     N 3871   2.014   5.046  10.885 -0.1534 -0.1548  0.0305
   31DOPE   HN1 3872   1.973   4.979  10.954 -1.4471 -1.2989 -1.7700
   31DOPE   HN2 3873   2.052   5.125  10.941 -0.6475 -0.5012  0.8858
   31DOPE   HN3 3874   1.932   5.078  10.831 -0.3010  1.6062  1.2159
   31DOPE   C12 3875   2.127   4.988  10.808 -0.2802  0.2499  0.4457
   31DOPE  H12A 3876   2.153   5.064  10.732 -0.2123 -0.5765 -0.3703
   31DOPE  H12B 3877   2.079   4.901  10.759 -0.1935 -1.2058  2.7960
   31DOPE   C11 3878   2.250   4.966  10.909  0.5340 -0.2601 -0.0422
   31DOPE  H11A 3879   2.307   4.887  10.855  0.7879 -0.4775  0.5398
   31DOPE  H11B 3880   2.211   4.923  11.004  0.3553 -1.4622 -0.6406
   31DOPE     P 3881   2.311   5.184  11.037  0.2059  0.0243  0.2456
   31DOPE   O13 3882   2.165   5.206  11.059 -0.8906  0.5428  0.7009
   31DOPE   O14 3883   2.405   5.299  11.019  0.2026  0.0107  0.2175
   31DOPE   O11 3884   2.364   5.106  11.158  0.5001 -0.2714  0.2476
   31DOPE   O12 3885   2.331   5.084  10.925  0.4561  0.1502 -0.0569
   31DOPE    C1 3886   2.503   5.094  11.186 -0.3619  0.1730 -0.0713
   31DOPE    HA 3887   2.524   5.060  11.290 -1.5429  0.0815  0.1555
   31DOPE    HB 3888   2.540   5.198  11.189 -0.7328  0.3048 -0.0597
   31DOPE    C2 3889   2.586   5.002  11.092 -0.2405  0.2997  0.5019
   31DOPE    HS 3890   2.574   5.053  10.994  2.4008 -1.4104 -0.8486
   31DOPE   O21 3891   2.530   4.871  11.074 -0.1725  0.7553 -0.0675
   31DOPE   C21 3892   2.554   4.804  10.967  0.3073  0.4898 -0.2695
   31DOPE   O22 3893   2.629   4.836  10.875  0.2909  0.0605 -0.2606
   31DOPE   C22 3894   2.481   4.668  10.963 -0.4861 -0.4017  0.2974
   31DOPE   H2R 3895   2.510   4.603  10.878  1.0121  0.3030  0.2333
   31DOPE   H2S 3896   2.373   4.694  10.958  0.0778  2.8204  2.1761
   31DOPE    C3 3897   2.736   5.000  11.137  0.3369 -0.8273 -0.0028
   31DOPE    HX 3898   2.776   5.103  11.127 -1.9969 -0.0402 -2.0914
   31DOPE    HY 3899   2.789   4.933  11.066  0.1021 -2.5501  1.3757
   31DOPE   O31 3900   2.756   4.968  11.274 -0.3927 -0.3114  0.2838
   31DOPE   C31 3901   2.778   4.849  11.312  0.2228  0.0851  1.4790
   31DOPE   O32 3902   2.804   4.749  11.242  0.0372  0.1174  0.4320
   31DOPE   C32 3903   2.777   4.842  11.465 -0.7657  0.3255 -0.0171
   31DOPE   H2X 3904   2.874   4.882  11.503  0.0599 -0.0111 -1.6404
   31DOPE   H2Y 3905   2.691   4.904  11.497  0.2403  1.6736  0.1929
   31DOPE   C23 3906   2.512   4.581  11.092 -0.2415 -0.5845 -0.0542
   31DOPE   H3R 3907   2.429   4.507  11.095 -0.5530 -0.2134  1.8722
   31DOPE   H3S 3908   2.505   4.646  11.182 -5.1378  2.3227 -2.1228
   31DOPE   C24 3909   2.646   4.508  11.079 -0.3866  0.2596  0.1662
   31DOPE   H4R 3910   2.738   4.570  11.070 -0.3818  0.3814  0.9566
   31DOPE   H4S 3911   2.639   4.463  10.978 -1.7245  2.5417 -0.8375
   31DOPE   C25 3912   2.678   4.397  11.175  0.4762 -0.3940 -0.2845
   31DOPE   H5R 3913   2.580   4.345  11.182  0.3046  0.0464  0.9859
   31DOPE   H5S 3914   2.699   4.433  11.278  1.3860 -0.6350 -0.3750
   31DOPE   C26 3915   2.792   4.300  11.135  0.1905 -0.0380  0.2888
   31DOPE   H6R 3916   2.892   4.347  11.124  0.1580  0.1150  0.6242
   31DOPE   H6S 3917   2.775   4.252  11.036  2.2626 -1.0261  0.3518
   31DOPE   C27 3918   2.795   4.172  11.228  0.7020 -0.4626 -0.0573
   31DOPE   H7R 3919   2.696   4.121  11.229  1.2673 -1.6986 -2.2324
   31DOPE   H7S 3920   2.803   4.216  11.330 -2.8972 -0.4137  0.3161
   31DOPE   C28 3921   2.911   4.077  11.196  0.2036  0.1835  0.0985
   31DOPE   H8R 3922   3.011   4.125  11.190 -0.4362  1.5021 -0.3830
   31DOPE   H8S 3923   2.899   4.042  11.091  0.8917  0.8906 -0.2244
   31DOPE   C29 3924   2.914   3.970  11.298 -0.7126 -0.6026 -0.1718
   31DOPE   H9R 3925   2.827   3.903  11.289  0.7790 -2.5019 -1.4727
   31DOPE  C210 3926   2.999   3.941  11.402  0.1385  0.0061  0.4536
   31DOPE  H10R 3927   2.999   3.844  11.453  2.1800 -0.7839 -0.9225
   31DOPE  C211 3928   3.111   4.028  11.442  0.6209 -0.4008  0.0346
   31DOPE  H11R 3929   3.073   4.084  11.529 -1.1123 -2.1675  0.4792
   31DOPE  H11S 3930   3.144   4.107  11.371  0.7175  0.3971  0.9514
   31DOPE  C212 3931   3.238   3.939  11.469 -0.2976 -0.5082  0.8870
   31DOPE  H12R 3932   3.331   3.999  11.480  1.6367 -3.4919  1.9508
   31DOPE  H12S 3933   3.268   3.856  11.401  0.8030  0.9300 -0.4867
   31DOPE  C213 3934   3.234   3.877  11.611  0.1922  0.0400  0.3594
   31DOPE  H13R 3935   3.319   3.806  11.605 -1.9819 -2.5641 -1.8760
   31DOPE  H13S 3936   3.153   3.804  11.630  0.0423  0.1739  0.2487
   31DOPE  C214 3937   3.248   3.978  11.733  0.6996  0.9859 -0.2988
   31DOPE  H14R 3938   3.163   4.048  11.741 -0.3255  0.0840 -2.5350
   31DOPE  H14S 3939   3.345   4.033  11.740  0.6684  1.2406 -1.6736
   31DOPE  C215 3940   3.243   3.896  11.864  0.5525  0.3344  0.0164
   31DOPE  H15R 3941   3.335   3.833  11.874 -0.2111 -0.9675 -0.8285
   31DOPE  H15S 3942   3.162   3.823  11.845  0.2372 -0.0351  2.4686
   31DOPE  C216 3943   3.236   3.986  11.987  0.3916 -0.2084 -0.3631
   31DOPE  H16R 3944   3.145   4.050  11.987  1.0631  0.8085  0.6554
   31DOPE  H16S 3945   3.329   4.047  11.991  0.4527 -0.3146 -0.1481
   31DOPE  C217 3946   3.214   3.914  12.120 -0.1684  0.2753 -0.2940
   31DOPE  H17R 3947   3.215   3.990  12.201 -1.7540 -0.1942  0.1936
   31DOPE  H17S 3948   3.305   3.854  12.140 -0.4475  0.0922  0.4299
   31DOPE  C218 3949   3.096   3.823  12.109  0.5198  0.1957 -0.3137
   31DOPE  H18R 3950   3.084   3.763  12.202  2.0238  1.1008  0.5065
   31DOPE  H18S 3951   3.125   3.742  12.040 -2.0327 -1.4722  0.4305
   31DOPE  H18T 3952   3.001   3.871  12.076 -1.3399 -1.1609  2.6179
   31DOPE   C33 3953   2.759   4.701  11.517 -0.2495  0.1556 -0.3064
   31DOPE   H3X 3954   2.837   4.631  11.478 -0.3351 -1.6882  2.5549
   31DOPE   H3Y 3955   2.657   4.666  11.492 -0.4759  0.8636 -0.4105
   31DOPE   C34 3956   2.782   4.696  11.667  0.3741 -0.5179 -0.0457
   31DOPE   H4X 3957   2.815   4.796  11.702  1.1573 -1.6513  2.6744
   31DOPE   H4Y 3958   2.686   4.686  11.722  0.2677 -0.3770 -0.2031
   31DOPE   C35 3959   2.879   4.593  11.720  0.1392 -0.5076 -0.5981
   31DOPE   H5X 3960   2.982   4.622  11.689 -0.3166  0.0600 -1.6315
   31DOPE   H5Y 3961   2.846   4.498  11.674  0.2836 -2.5069  3.0754
   31DOPE   C36 3962   2.863   4.578  11.874  0.4833 -0.3833 -0.2348
   31DOPE   H6X 3963   2.920   4.489  11.909  1.3719  0.7186  1.2408
   31DOPE   H6Y 3964   2.756   4.561  11.900  0.5026 -3.2232 -1.6557
   31DOPE   C37 3965   2.900   4.702  11.955  0.0466  0.6824 -0.4454
   31DOPE   H7X 3966   3.000   4.743  11.927  0.2936 -0.3556 -1.1096
   31DOPE   H7Y 3967   2.817   4.775  11.941 -0.6202 -0.1380 -0.8044
   31DOPE   C38 3968   2.885   4.676  12.112  0.7773 -0.0183 -0.3027
   31DOPE   H8X 3969   2.777   4.652  12.119  0.8781 -0.4665 -0.2820
   31DOPE   H8Y 3970   2.897   4.771  12.169  2.1102  0.1382 -0.8142
   31DOPE   C39 3971   2.976   4.572  12.175 -0.1967  0.0759  0.5889
   31DOPE   H9X 3972   2.979   4.477  12.120  3.0594 -0.4593  1.4862
   31DOPE  C310 3973   3.060   4.591  12.281  0.0859 -0.0288  0.4859
   31DOPE  H10X 3974   3.103   4.497  12.320 -0.4627 -1.4343 -2.0847
   31DOPE  C311 3975   3.081   4.716  12.365  0.1283 -0.0258 -0.7942
   31DOPE  H11X 3976   3.019   4.802  12.334 -0.4591  0.1606  0.8047
   31DOPE  H11Y 3977   3.064   4.701  12.474  2.1701  1.0923 -0.2660
   31DOPE  C312 3978   3.233   4.764  12.342 -0.0047  0.9046 -0.1848
   31DOPE  H12X 3979   3.260   4.792  12.238 -0.4151  0.2444 -0.4735
   31DOPE  H12Y 3980   3.302   4.688  12.383 -0.7141  0.5344  0.3460
   31DOPE  C313 3981   3.271   4.891  12.419 -0.0444 -0.0694  0.2573
   31DOPE  H13X 3982   3.375   4.925  12.397 -0.6444  1.8556  0.2578
   31DOPE  H13Y 3983   3.215   4.984  12.397  1.2166  1.8092  4.0559
   31DOPE  C314 3984   3.260   4.887  12.572  0.1476 -0.3774 -0.3939
   31DOPE  H14X 3985   3.343   4.832  12.621 -1.7106 -0.3266  3.1252
   31DOPE  H14Y 3986   3.166   4.842  12.609 -0.1981  1.4353  1.0642
   31DOPE  C315 3987   3.276   5.029  12.626  0.3529 -0.0894  0.2912
   31DOPE  H15X 3988   3.189   5.092  12.596  1.0040  1.2127  1.0408
   31DOPE  H15Y 3989   3.360   5.072  12.568 -0.1080  0.4852  0.0310
   31DOPE  C316 3990   3.294   5.048  12.776 -0.2322  0.1794  0.9321
   31DOPE  H16X 3991   3.193   5.020  12.813 -1.3954 -2.7214 -3.6089
   31DOPE  H16Y 3992   3.325   5.152  12.802  1.2497  0.0228 -0.0845
   31DOPE  C317 3993   3.392   4.958  12.854 -0.4481  0.1219 -0.1938
   31DOPE  H17X 3994   3.367   4.851  12.835 -1.5688  0.3497 -0.0477
   31DOPE  H17Y 3995   3.489   4.982  12.805 -1.2271  1.0952 -1.2941
   31DOPE  C318 3996   3.392   4.977  13.004  0.2929  0.5273 -0.4318
   31DOPE  H18X 3997   3.436   5.077  13.025 -1.4073  0.9767  1.3441
   31DOPE  H18Y 3998   3.289   4.982  13.045  0.6158  0.2296  0.4365
   31DOPE  H18Z 3999   3.444   4.891  13.050  0.7603  0.2476 -1.4534
   32DOPE     N 4000   4.246   4.031  10.683  0.7839 -0.2799 -0.6038
   32DOPE   HN1 4001   4.167   4.044  10.748 -0.5246 -0.7439 -2.0289
   32DOPE   HN2 4002   4.324   4.096  10.705  0.4956 -0.4494  1.0329
   32DOPE   HN3 4003   4.208   4.062  10.591  1.1697 -0.0576 -0.6905
   32DOPE   C12 4004   4.282   3.882  10.670 -0.2893 -0.8007 -0.1525
   32DOPE  H12A 4005   4.327   3.867  10.569  0.6469  0.9597 -0.0363
   32DOPE  H12B 4006   4.190   3.820  10.678  0.3225 -1.6485  0.4131
   32DOPE   C11 4007   4.376   3.851  10.783 -0.2562  1.0047 -0.7451
   32DOPE  H11A 4008   4.385   3.740  10.785 -0.4964  0.9605 -1.6181
   32DOPE  H11B 4009   4.310   3.868  10.871  0.0934 -2.6954  0.4017
   32DOPE     P 4010   4.639   3.867  10.761 -0.3014 -0.3375  0.1745
   32DOPE   O13 4011   4.733   3.947  10.830 -0.2967 -0.2473 -0.0244
   32DOPE   O14 4012   4.660   3.853  10.619  0.1596  0.1734 -0.1684
   32DOPE   O11 4013   4.631   3.726  10.830  0.1602 -0.1275  0.6127
   32DOPE   O12 4014   4.496   3.929  10.788 -0.0081 -0.4845 -0.0019
   32DOPE    C1 4015   4.592   3.698  10.964 -0.4821 -0.6114  0.0570
   32DOPE    HA 4016   4.483   3.695  10.983 -0.2086 -0.2151  1.9100
   32DOPE    HB 4017   4.628   3.777  11.033 -0.6217 -0.9448  0.5108
   32DOPE    C2 4018   4.670   3.574  11.018  0.2673 -0.0604 -0.3586
   32DOPE    HS 4019   4.624   3.487  10.966 -0.5558 -0.4566  0.9765
   32DOPE   O21 4020   4.620   3.563  11.156  0.7941 -0.0711 -0.0101
   32DOPE   C21 4021   4.637   3.451  11.222 -0.6873  0.2313 -0.5059
   32DOPE   O22 4022   4.685   3.349  11.178  0.6036  0.0556 -0.1511
   32DOPE   C22 4023   4.583   3.481  11.368 -0.5227  0.2833 -0.0129
   32DOPE   H2R 4024   4.477   3.509  11.351 -1.1665 -2.7912 -1.6745
   32DOPE   H2S 4025   4.645   3.564  11.410 -2.1106  1.4734  0.0929
   32DOPE    C3 4026   4.824   3.585  10.992  0.5288 -0.2739 -0.0189
   32DOPE    HX 4027   4.832   3.607  10.883  0.0644  3.5700  0.5723
   32DOPE    HY 4028   4.866   3.488  11.025 -1.2137 -1.7580 -1.8690
   32DOPE   O31 4029   4.881   3.695  11.071  0.1642  0.5472  0.3706
   32DOPE   C31 4030   4.999   3.724  11.026  0.3562  0.0953 -0.4085
   32DOPE   O32 4031   5.062   3.665  10.939  0.2461  0.1015  0.5829
   32DOPE   C32 4032   5.047   3.848  11.084  0.6384 -0.3952 -0.4550
   32DOPE   H2X 4033   5.107   3.895  11.003  1.6080 -0.5902  0.1314
   32DOPE   H2Y 4034   4.972   3.929  11.097  0.9447 -0.2070  0.1898
   32DOPE   C23 4035   4.579   3.357  11.453 -0.1499 -0.1079  0.1665
   32DOPE   H3R 4036   4.562   3.267  11.390 -0.0255  0.1802 -0.2810
   32DOPE   H3S 4037   4.499   3.382  11.526  0.3428  0.6837  0.4493
   32DOPE   C24 4038   4.709   3.334  11.531  0.0094  0.1202  0.2844
   32DOPE   H4R 4039   4.725   3.424  11.595 -0.5582 -0.9609  2.0259
   32DOPE   H4S 4040   4.797   3.330  11.463 -0.9434  0.6285 -1.0016
   32DOPE   C25 4041   4.695   3.202  11.615  0.5243 -0.8827  0.5519
   32DOPE   H5R 4042   4.690   3.112  11.550  0.6623 -0.0831 -0.6031
   32DOPE   H5S 4043   4.594   3.210  11.662  0.8659 -1.5575  1.4333
   32DOPE   C26 4044   4.805   3.178  11.722  0.1801  0.1814 -0.5161
   32DOPE   H6R 4045   4.800   3.258  11.799 -1.7441 -0.5190  0.1697
   32DOPE   H6S 4046   4.907   3.183  11.680  0.2068 -1.6701 -0.7581
   32DOPE   C27 4047   4.790   3.050  11.799 -0.0996  0.6095  0.7367
   32DOPE   H7R 4048   4.873   3.044  11.872  0.7152 -0.6342 -0.2531
   32DOPE   H7S 4049   4.793   2.967  11.725  1.7350  0.8748  0.4577
   32DOPE   C28 4050   4.657   3.042  11.879  0.8143  0.4863  0.6346
   32DOPE   H8R 4051   4.573   3.034  11.807  0.0319 -0.2266  1.5911
   32DOPE   H8S 4052   4.638   3.139  11.930  0.9463  0.1047  1.4304
   32DOPE   C29 4053   4.640   2.932  11.985  0.8223  0.5552  0.5384
   32DOPE   H9R 4054   4.617   2.836  11.937  2.3250  1.5108 -2.3431
   32DOPE  C210 4055   4.658   2.950  12.115 -0.7775  0.4161 -0.6418
   32DOPE  H10R 4056   4.656   2.865  12.186  1.1341 -0.8414 -2.0020
   32DOPE  C211 4057   4.722   3.073  12.172  0.1591 -0.0813  0.5068
   32DOPE  H11R 4058   4.647   3.132  12.227 -1.0325  1.2648 -2.3378
   32DOPE  H11S 4059   4.770   3.137  12.094  0.6392 -2.0608 -0.9153
   32DOPE  C212 4060   4.843   3.030  12.262  0.3741  0.3773 -0.6495
   32DOPE  H12R 4061   4.804   2.982  12.355  1.5020 -0.7997 -0.7530
   32DOPE  H12S 4062   4.885   3.123  12.306 -0.5826  1.2660 -1.5404
   32DOPE  C213 4063   4.958   2.948  12.199  0.1714  0.5585  0.4256
   32DOPE  H13R 4064   4.904   2.863  12.153 -0.5206  0.7910  0.7888
   32DOPE  H13S 4065   5.021   2.916  12.285  1.2659  4.7329  1.4147
   32DOPE  C214 4066   5.041   3.023  12.096  0.4331  0.7550  0.5665
   32DOPE  H14R 4067   4.985   3.107  12.050  0.2342 -0.3564 -1.3401
   32DOPE  H14S 4068   5.052   2.952  12.011  0.5457  0.3929  0.8820
   32DOPE  C215 4069   5.179   3.062  12.148  0.0142 -0.6351  0.5318
   32DOPE  H15R 4070   5.157   3.094  12.252  0.4532 -0.4652  0.5701
   32DOPE  H15S 4071   5.216   3.148  12.088 -2.6131  1.7186  2.0680
   32DOPE  C216 4072   5.279   2.936  12.150  0.4865 -0.4585 -0.3013
   32DOPE  H16R 4073   5.306   2.907  12.046  2.4078 -1.5038  0.4432
   32DOPE  H16S 4074   5.212   2.856  12.187 -0.4380  1.0048  1.3423
   32DOPE  C217 4075   5.396   2.960  12.233 -0.2718 -0.6525 -0.4795
   32DOPE  H17R 4076   5.375   2.986  12.340 -0.5929 -1.1577 -0.4191
   32DOPE  H17S 4077   5.450   3.042  12.182 -2.2231 -0.1244 -1.7905
   32DOPE  C218 4078   5.496   2.837  12.236  0.3229 -0.4996 -1.0366
   32DOPE  H18R 4079   5.595   2.871  12.274 -0.9260  0.5037  1.5559
   32DOPE  H18S 4080   5.499   2.798  12.132  0.0460 -1.8396 -0.5571
   32DOPE  H18T 4081   5.453   2.760  12.303 -1.4701 -0.7843 -2.4276
   32DOPE   C33 4082   5.118   3.819  11.217  0.2112 -0.0581  0.2435
   32DOPE   H3X 4083   5.211   3.764  11.194 -0.6564 -1.1248 -0.8110
   32DOPE   H3Y 4084   5.059   3.757  11.288  1.5792 -2.2774 -0.4587
   32DOPE   C34 4085   5.159   3.951  11.282  0.2320  0.3364 -0.2988
   32DOPE   H4X 4086   5.228   4.010  11.218  2.7695 -1.1840  0.9009
   32DOPE   H4Y 4087   5.063   4.006  11.293 -0.9411 -1.8700  1.0999
   32DOPE   C35 4088   5.209   3.928  11.423  0.0210  0.5300  0.5232
   32DOPE   H5X 4089   5.142   3.866  11.485  0.1530  1.9330  2.1584
   32DOPE   H5Y 4090   5.209   4.022  11.483 -0.1864  0.7598  0.1672
   32DOPE   C36 4091   5.356   3.874  11.421 -1.2619  0.0580 -0.5031
   32DOPE   H6X 4092   5.419   3.951  11.372 -1.0529  0.7941  0.8755
   32DOPE   H6Y 4093   5.358   3.783  11.358 -0.2657  1.9959 -3.4901
   32DOPE   C37 4094   5.415   3.840  11.558  0.2268 -0.0384 -0.3916
   32DOPE   H7X 4095   5.426   3.935  11.616 -0.3037  0.8862 -1.7550
   32DOPE   H7Y 4096   5.345   3.788  11.627 -2.0828  2.6164 -0.5030
   32DOPE   C38 4097   5.558   3.765  11.562 -0.2250  0.3676 -0.2189
   32DOPE   H8X 4098   5.606   3.764  11.663 -0.5107 -0.1874 -0.0854
   32DOPE   H8Y 4099   5.625   3.817  11.490  0.1052  0.2712  0.0138
   32DOPE   C39 4100   5.547   3.623  11.520  0.1984 -0.2029 -0.5336
   32DOPE   H9X 4101   5.553   3.607  11.412 -0.0732  0.6968 -0.6889
   32DOPE  C310 4102   5.505   3.524  11.599  0.2931 -0.2318 -0.0898
   32DOPE  H10X 4103   5.498   3.427  11.548 -0.4178 -0.9301  1.2852
   32DOPE  C311 4104   5.475   3.526  11.743 -0.8067  0.3774 -0.4620
   32DOPE  H11X 4105   5.511   3.620  11.789 -0.5190  0.3533 -0.6347
   32DOPE  H11Y 4106   5.366   3.524  11.763 -0.4602  2.0478  2.0193
   32DOPE  C312 4107   5.538   3.407  11.809 -0.3845  0.6529 -0.5022
   32DOPE  H12X 4108   5.647   3.404  11.786 -0.5393  0.4718 -1.2218
   32DOPE  H12Y 4109   5.496   3.314  11.765 -0.3257  0.4492 -0.1347
   32DOPE  C313 4110   5.500   3.412  11.957  0.3766  0.5522 -0.0294
   32DOPE  H13X 4111   5.537   3.504  12.008 -1.9872  2.1150 -0.9616
   32DOPE  H13Y 4112   5.390   3.413  11.968  0.5239 -0.4393  2.0008
   32DOPE  C314 4113   5.543   3.297  12.048 -0.2654  0.1287 -0.1360
   32DOPE  H14X 4114   5.492   3.203  12.020  0.2553  0.7422 -3.5056
   32DOPE  H14Y 4115   5.536   3.325  12.156 -2.1179 -1.2014  0.1445
   32DOPE  C315 4116   5.698   3.254  12.044  0.5212  0.7685  0.5321
   32DOPE  H15X 4117   5.761   3.340  12.074  0.2908  0.7958  0.9457
   32DOPE  H15Y 4118   5.707   3.220  11.938 -0.5727 -2.8198  1.4509
   32DOPE  C316 4119   5.731   3.125  12.121 -0.7754  0.0381  0.0119
   32DOPE  H16X 4120   5.670   3.039  12.084  0.0228 -0.3022 -0.5590
   32DOPE  H16Y 4121   5.708   3.151  12.226 -3.8725  0.5998 -0.6955
   32DOPE  C317 4122   5.879   3.090  12.105  0.1357  0.0201 -0.2532
   32DOPE  H17X 4123   5.919   3.076  12.003  0.7854  0.5720 -0.0766
   32DOPE  H17Y 4124   5.948   3.160  12.155  1.7180 -0.5030 -1.6305
   32DOPE  C318 4125   5.899   2.953  12.170 -0.2016 -0.0230 -0.1324
   32DOPE  H18X 4126   5.995   2.906  12.140  0.0929  0.6530 -0.2704
   32DOPE  H18Y 4127   5.900   2.957  12.281  1.2389 -1.4051 -0.0539
   32DOPE  H18Z 4128   5.819   2.883  12.136 -0.2771  0.7305 -1.5905
   33DOPE     N 4129   3.739   3.344   9.883  0.3567  0.3118 -0.1005
   33DOPE   HN1 4130   3.666   3.416   9.863  0.6862  0.2021 -1.8113
   33DOPE   HN2 4131   3.801   3.327   9.802  1.4925  0.3889  0.7369
   33DOPE   HN3 4132   3.698   3.251   9.907  0.2088  0.2757 -0.4933
   33DOPE   C12 4133   3.824   3.385  10.004 -0.1643 -0.7505 -0.3636
   33DOPE  H12A 4134   3.864   3.489   9.993  0.0660 -0.7749  0.1828
   33DOPE  H12B 4135   3.906   3.311  10.015 -0.3648 -0.8802  0.2983
   33DOPE   C11 4136   3.746   3.386  10.140  0.6207  0.1027 -0.1835
   33DOPE  H11A 4137   3.814   3.424  10.219 -0.8524  4.0785 -0.6083
   33DOPE  H11B 4138   3.713   3.281  10.158 -0.0712  0.0233 -1.7637
   33DOPE     P 4139   3.638   3.626  10.166  0.1242  0.4878 -0.0799
   33DOPE   O13 4140   3.495   3.673  10.162 -0.0434  0.3609  0.3496
   33DOPE   O14 4141   3.746   3.689  10.097  0.2996 -0.3436  0.1945
   33DOPE   O11 4142   3.679   3.605  10.315 -0.4576 -0.3482  0.2165
   33DOPE   O12 4143   3.632   3.469  10.120  0.1894 -0.1484  0.2106
   33DOPE    C1 4144   3.604   3.520  10.408  0.0201  0.4274 -0.0837
   33DOPE    HA 4145   3.591   3.420  10.360 -0.3095  0.8141 -0.8244
   33DOPE    HB 4146   3.504   3.562  10.433 -0.3057  1.3199 -2.6117
   33DOPE    C2 4147   3.683   3.503  10.546  0.0213  0.2382 -0.3142
   33DOPE    HS 4148   3.624   3.436  10.612  0.7948 -0.2239 -0.0763
   33DOPE   O21 4149   3.714   3.632  10.611 -0.9213 -0.1146 -0.1404
   33DOPE   C21 4150   3.615   3.677  10.691 -0.2896  0.4121  0.2862
   33DOPE   O22 4151   3.501   3.649  10.681  0.8619 -0.7853  0.7507
   33DOPE   C22 4152   3.682   3.765  10.793 -0.1301  0.2277  0.2750
   33DOPE   H2R 4153   3.690   3.870  10.758 -0.1305  0.6067  1.3699
   33DOPE   H2S 4154   3.786   3.733  10.816  0.2012  0.1701 -1.2058
   33DOPE    C3 4155   3.824   3.434  10.511 -0.6561 -0.8089  0.1342
   33DOPE    HX 4156   3.886   3.502  10.450 -1.2186  1.5919  2.0892
   33DOPE    HY 4157   3.800   3.340  10.456 -4.0242 -0.5876  0.9534
   33DOPE   O31 4158   3.881   3.396  10.638 -0.2424  0.0604 -0.3388
   33DOPE   C31 4159   3.958   3.490  10.690 -0.4389 -0.5162 -0.0715
   33DOPE   O32 4160   3.992   3.594  10.634 -0.2052  0.0054 -0.3379
   33DOPE   C32 4161   4.010   3.449  10.834  0.1492  0.4897  0.1680
   33DOPE   H2X 4162   3.913   3.462  10.887  0.0134  0.6061 -0.1067
   33DOPE   H2Y 4163   4.046   3.344  10.834 -1.8522 -0.2413  0.5504
   33DOPE   C23 4164   3.591   3.789  10.920 -0.0057  0.6905  0.6015
   33DOPE   H3R 4165   3.490   3.827  10.892 -0.8402  0.0457  2.5432
   33DOPE   H3S 4166   3.645   3.871  10.971 -0.9263  1.6206  0.1184
   33DOPE   C24 4167   3.588   3.669  11.016 -0.2286 -0.4656 -0.1799
   33DOPE   H4R 4168   3.695   3.645  11.034 -0.4583 -3.3945 -2.0421
   33DOPE   H4S 4169   3.527   3.581  10.986 -0.4510 -0.6949  0.9069
   33DOPE   C25 4170   3.526   3.702  11.155 -0.2968  0.2490 -0.9513
   33DOPE   H5R 4171   3.417   3.686  11.144 -1.0952  0.6664  4.0632
   33DOPE   H5S 4172   3.556   3.806  11.178  0.5717 -0.3820  0.9414
   33DOPE   C26 4173   3.589   3.625  11.282 -0.1765  0.3602  0.5784
   33DOPE   H6R 4174   3.698   3.643  11.270  0.0620 -0.9775  0.5957
   33DOPE   H6S 4175   3.598   3.516  11.265 -0.6667  0.0338  2.1938
   33DOPE   C27 4176   3.529   3.667  11.412  0.0803 -0.8834  0.5365
   33DOPE   H7R 4177   3.422   3.640  11.404  0.1876 -0.9617 -0.9636
   33DOPE   H7S 4178   3.539   3.777  11.427 -1.8586 -0.8635  1.9834
   33DOPE   C28 4179   3.598   3.610  11.532  0.5999  0.2634  0.0476
   33DOPE   H8R 4180   3.709   3.614  11.531  0.7706 -2.3769 -2.0260
   33DOPE   H8S 4181   3.570   3.503  11.530 -2.4731  0.9660  0.2723
   33DOPE   C29 4182   3.539   3.672  11.655  0.8843  0.1360  0.4906
   33DOPE   H9R 4183   3.565   3.778  11.668  2.0014 -0.4562  4.6305
   33DOPE  C210 4184   3.484   3.597  11.755 -0.0725 -0.4559 -0.2541
   33DOPE  H10R 4185   3.442   3.650  11.843  0.3321 -1.5944  0.6535
   33DOPE  C211 4186   3.445   3.452  11.766  0.1141  0.3495  0.2444
   33DOPE  H11R 4187   3.399   3.409  11.675 -2.0934 -3.9367  3.0107
   33DOPE  H11S 4188   3.361   3.440  11.838  1.3440 -2.4310  1.3780
   33DOPE  C212 4189   3.569   3.361  11.800 -0.0376  0.0669 -0.0042
   33DOPE  H12R 4190   3.659   3.383  11.738  0.9313  1.4087  1.7836
   33DOPE  H12S 4191   3.528   3.259  11.784  0.9352 -0.3577  0.1355
   33DOPE  C213 4192   3.635   3.384  11.944 -0.4097  0.0860 -0.2990
   33DOPE  H13R 4193   3.550   3.386  12.015 -0.4254 -1.4268 -0.2368
   33DOPE  H13S 4194   3.707   3.469  11.939  1.9156 -1.7274  0.5814
   33DOPE  C214 4195   3.732   3.265  11.965  0.4009  0.0616 -0.4990
   33DOPE  H14R 4196   3.794   3.239  11.876  0.7174 -0.7328 -0.0552
   33DOPE  H14S 4197   3.671   3.175  11.991  2.0577 -0.5192  1.6189
   33DOPE  C215 4198   3.816   3.295  12.091 -0.1825  0.0306  0.1573
   33DOPE  H15R 4199   3.858   3.199  12.127 -0.9718 -0.4555 -0.1879
   33DOPE  H15S 4200   3.749   3.332  12.171 -1.0737 -0.3605 -0.3888
   33DOPE  C216 4201   3.930   3.401  12.063  0.0050  0.3535 -0.0489
   33DOPE  H16R 4202   3.881   3.500  12.071  1.1984  1.0027 -0.4138
   33DOPE  H16S 4203   3.972   3.394  11.960 -0.2964 -0.6485 -0.1070
   33DOPE  C217 4204   4.051   3.394  12.164 -0.0951 -0.7675  0.2183
   33DOPE  H17R 4205   4.125   3.452  12.105 -1.9648 -1.4658 -3.0514
   33DOPE  H17S 4206   4.082   3.288  12.150  0.6728 -0.4292 -0.7455
   33DOPE  C218 4207   4.035   3.433  12.317 -0.0606 -0.0250 -0.4952
   33DOPE  H18R 4208   3.945   3.384  12.361  0.4903 -0.1453  0.5288
   33DOPE  H18S 4209   4.020   3.542  12.332 -0.2317 -0.2015  0.7763
   33DOPE  H18T 4210   4.128   3.403  12.369 -0.2402 -1.9044 -1.1916
   33DOPE   C33 4211   4.098   3.555  10.886 -0.0446  0.4297 -0.4165
   33DOPE   H3X 4212   4.059   3.659  10.890  0.8633  0.7552  0.5075
   33DOPE   H3Y 4213   4.187   3.562  10.820 -0.2998 -0.7779 -0.9079
   33DOPE   C34 4214   4.131   3.517  11.035  0.8141 -0.6899 -0.2406
   33DOPE   H4X 4215   4.184   3.421  11.051  0.5591 -0.6942  0.6394
   33DOPE   H4Y 4216   4.203   3.594  11.071  0.7218 -0.0208 -1.4303
   33DOPE   C35 4217   4.006   3.505  11.140  0.3522  0.3008  0.3738
   33DOPE   H5X 4218   3.954   3.418  11.095 -0.3364  1.6743 -1.6187
   33DOPE   H5Y 4219   3.954   3.603  11.140  0.8951  0.5989  0.7266
   33DOPE   C36 4220   4.053   3.471  11.287  0.0613  0.0494  0.3569
   33DOPE   H6X 4221   3.971   3.507  11.353 -1.0706 -0.1767 -0.8847
   33DOPE   H6Y 4222   4.149   3.524  11.301  0.2065 -0.2410  0.4556
   33DOPE   C37 4223   4.077   3.328  11.318 -0.0588  0.1365 -0.7289
   33DOPE   H7X 4224   3.991   3.261  11.299  0.4252  0.0515 -2.8622
   33DOPE   H7Y 4225   4.157   3.295  11.249  0.0682 -1.8578  0.2974
   33DOPE   C38 4226   4.136   3.310  11.462 -0.1338 -0.2006  0.1558
   33DOPE   H8X 4227   4.204   3.397  11.473 -1.7012  1.0075  0.6582
   33DOPE   H8Y 4228   4.204   3.222  11.458  0.9026  0.6093 -3.1509
   33DOPE   C39 4229   4.033   3.322  11.572 -0.7251  0.8098  0.1555
   33DOPE   H9X 4230   3.965   3.406  11.552 -0.5959  0.7230 -0.7088
   33DOPE  C310 4231   4.028   3.251  11.690 -0.1813  0.2586 -0.3529
   33DOPE  H10X 4232   3.942   3.261  11.758  0.8320 -1.1520  1.2256
   33DOPE  C311 4233   4.125   3.140  11.731  0.6026  0.5037  0.1538
   33DOPE  H11X 4234   4.081   3.043  11.700  2.6884 -0.4923  0.1326
   33DOPE  H11Y 4235   4.217   3.144  11.669  1.0531 -0.5554  0.7343
   33DOPE  C312 4236   4.151   3.151  11.880  0.4271 -0.3341  0.3946
   33DOPE  H12X 4237   4.051   3.157  11.928  0.6793 -0.3345  0.9189
   33DOPE  H12Y 4238   4.210   3.240  11.912  0.9443 -0.1038 -1.1066
   33DOPE  C313 4239   4.222   3.033  11.941  0.0030  0.0937  0.1310
   33DOPE  H13X 4240   4.165   2.945  11.905  2.1296 -2.0591  1.7112
   33DOPE  H13Y 4241   4.324   3.026  11.896  0.3489  0.6743  0.8046
   33DOPE  C314 4242   4.236   3.033  12.095 -0.5327  0.5670 -0.3519
   33DOPE  H14X 4243   4.271   3.134  12.126  0.6715  0.3719 -0.9959
   33DOPE  H14Y 4244   4.316   2.966  12.133 -1.2661 -1.8454 -2.7192
   33DOPE  C315 4245   4.106   3.014  12.161 -1.9493 -0.5408 -0.2394
   33DOPE  H15X 4246   4.058   2.920  12.125 -1.7312 -0.8759  0.3227
   33DOPE  H15Y 4247   4.032   3.092  12.131 -1.5349  0.1689  0.5487
   33DOPE  C316 4248   4.124   3.020  12.320 -0.2704 -0.7971  0.3830
   33DOPE  H16X 4249   4.032   3.072  12.355  0.5265  1.1523 -0.3045
   33DOPE  H16Y 4250   4.208   3.083  12.355 -0.6170 -0.0047 -0.1815
   33DOPE  C317 4251   4.129   2.884  12.390 -0.0850 -0.3741 -0.2613
   33DOPE  H17X 4252   4.043   2.819  12.363  0.8818 -1.0762 -1.7825
   33DOPE  H17Y 4253   4.223   2.830  12.365 -0.6648 -1.1173 -0.8999
   33DOPE  C318 4254   4.136   2.898  12.547 -0.5796  0.8794 -0.3316
   33DOPE  H18X 4255   4.156   2.798  12.591  2.8706  0.9794 -1.4231
   33DOPE  H18Y 4256   4.216   2.972  12.568  0.2733  0.2179 -1.1996
   33DOPE  H18Z 4257   4.048   2.934  12.605 -0.2217 -0.2210  0.9465
   34DOPE     N 4258   2.935   5.823  10.498 -0.2175 -0.3438  0.2710
   34DOPE   HN1 4259   2.972   5.744  10.555  1.9875  1.3460  1.3275
   34DOPE   HN2 4260   2.990   5.842  10.412 -0.9491  1.8837  0.2325
   34DOPE   HN3 4261   2.940   5.907  10.558  1.2316  0.6103 -1.0951
   34DOPE   C12 4262   2.793   5.799  10.457 -0.7944  0.4347  0.1828
   34DOPE  H12A 4263   2.787   5.738  10.365 -0.7562 -1.6045  1.4824
   34DOPE  H12B 4264   2.749   5.900  10.439  0.0522  0.9778  1.0265
   34DOPE   C11 4265   2.705   5.736  10.577  0.3231 -0.2434  0.7584
   34DOPE  H11A 4266   2.605   5.726  10.531  0.4625 -0.3104  0.4634
   34DOPE  H11B 4267   2.706   5.809  10.660 -1.2144  1.1180 -0.3796
   34DOPE     P 4268   2.714   5.523  10.738 -0.2067 -0.0418 -0.1081
   34DOPE   O13 4269   2.797   5.400  10.753 -0.2263  0.0680  0.2121
   34DOPE   O14 4270   2.572   5.503  10.719  0.4860 -0.5930  0.3351
   34DOPE   O11 4271   2.721   5.628  10.853  0.2856 -0.4317 -0.6513
   34DOPE   O12 4272   2.759   5.606  10.613  0.5650  0.1079 -0.3584
   34DOPE    C1 4273   2.848   5.696  10.885  0.6539  0.1848 -0.0959
   34DOPE    HA 4274   2.873   5.782  10.820 -3.5474  0.9288 -1.0365
   34DOPE    HB 4275   2.931   5.622  10.883 -0.6543 -1.3223 -1.6071
   34DOPE    C2 4276   2.832   5.758  11.029 -0.8509  0.9093  0.5830
   34DOPE    HS 4277   2.935   5.780  11.062 -0.1065 -1.1030 -0.2947
   34DOPE   O21 4278   2.775   5.662  11.118 -0.5169  0.5281 -0.2559
   34DOPE   C21 4279   2.836   5.545  11.129  0.0313  0.3632 -0.1455
   34DOPE   O22 4280   2.943   5.505  11.080  0.3010  0.0099  0.6289
   34DOPE   C22 4281   2.746   5.454  11.221 -0.0279 -0.2832  0.1470
   34DOPE   H2R 4282   2.698   5.396  11.139  1.0453  1.2456 -1.6560
   34DOPE   H2S 4283   2.677   5.522  11.275 -1.0656  0.9458 -2.5524
   34DOPE    C3 4284   2.728   5.877  11.029 -0.1516  0.3485  0.4520
   34DOPE    HX 4285   2.632   5.833  10.994  0.5280  0.7452 -2.1802
   34DOPE    HY 4286   2.745   5.951  10.948  1.7550  0.6882  1.1191
   34DOPE   O31 4287   2.727   5.935  11.161 -0.6071 -0.5198 -0.5596
   34DOPE   C31 4288   2.824   6.023  11.195 -0.8896 -0.1247  0.8271
   34DOPE   O32 4289   2.919   6.048  11.121 -0.0178  0.1387 -0.1155
   34DOPE   C32 4290   2.802   6.060  11.334  1.0282  0.1011  0.4662
   34DOPE   H2X 4291   2.751   6.159  11.335  2.1793  0.7153  1.5263
   34DOPE   H2Y 4292   2.727   5.998  11.388  0.9087  0.4059  0.6534
   34DOPE   C23 4293   2.823   5.353  11.303 -0.0040 -0.0698 -0.7755
   34DOPE   H3R 4294   2.906   5.315  11.241  0.4650 -1.5332  0.6764
   34DOPE   H3S 4295   2.758   5.270  11.337  0.9260 -0.1515  0.9588
   34DOPE   C24 4296   2.894   5.418  11.423 -0.6123  0.2223 -0.2554
   34DOPE   H4R 4297   2.820   5.468  11.490 -1.3271 -0.6793 -0.3427
   34DOPE   H4S 4298   2.967   5.494  11.391 -1.9209  1.9832  0.7315
   34DOPE   C25 4299   2.970   5.317  11.510  0.2724  0.6214  0.6849
   34DOPE   H5R 4300   3.023   5.372  11.590  1.3036 -1.3299  1.4087
   34DOPE   H5S 4301   3.039   5.265  11.440 -0.6021 -1.6855  1.4251
   34DOPE   C26 4302   2.878   5.206  11.567 -0.9971  0.0394 -0.1881
   34DOPE   H6R 4303   2.837   5.144  11.485  0.9357  0.1116 -1.2610
   34DOPE   H6S 4304   2.817   5.253  11.647  0.5436  0.3697  0.8438
   34DOPE   C27 4305   2.958   5.100  11.648  0.5948 -0.7302  0.5476
   34DOPE   H7R 4306   3.024   5.044  11.578 -1.8358 -1.2651 -1.4366
   34DOPE   H7S 4307   2.894   5.021  11.692  1.9565 -2.1438  0.0884
   34DOPE   C28 4308   3.042   5.164  11.764 -0.3589  0.3167  0.1813
   34DOPE   H8R 4309   2.973   5.237  11.813 -1.0245 -0.8837  1.0922
   34DOPE   H8S 4310   3.132   5.219  11.729 -0.0093  0.4406  1.2251
   34DOPE   C29 4311   3.074   5.065  11.872 -0.0072  0.3332 -0.0618
   34DOPE   H9R 4312   3.023   4.968  11.880 -2.5474  1.5209 -0.8369
   34DOPE  C210 4313   3.158   5.102  11.968  0.0828  0.2149  0.1780
   34DOPE  H10R 4314   3.195   5.023  12.035  0.6381 -1.1013 -1.5795
   34DOPE  C211 4315   3.220   5.236  11.983  0.4640 -0.1940  0.0891
   34DOPE  H11R 4316   3.238   5.294  11.890 -0.4214  1.6029  0.9853
   34DOPE  H11S 4317   3.324   5.233  12.021  1.7831 -0.7428 -3.2145
   34DOPE  C212 4318   3.144   5.333  12.076  0.2762 -0.0574 -0.0456
   34DOPE  H12R 4319   3.036   5.314  12.057  0.8436 -2.8130 -0.9517
   34DOPE  H12S 4320   3.165   5.440  12.056  0.3258 -0.2844 -1.3007
   34DOPE  C213 4321   3.170   5.308  12.227  0.5763 -1.0857  0.2643
   34DOPE  H13R 4322   3.275   5.318  12.263 -0.0624 -0.0936  1.9241
   34DOPE  H13S 4323   3.142   5.201  12.237 -1.2457 -0.9893 -2.5170
   34DOPE  C214 4324   3.092   5.409  12.306  0.3507  0.2715 -0.0258
   34DOPE  H14R 4325   2.985   5.381  12.314  0.1907  0.2233 -1.8997
   34DOPE  H14S 4326   3.090   5.512  12.264 -1.1677  0.8762  1.4082
   34DOPE  C215 4327   3.156   5.424  12.447 -0.5113  0.5038 -0.1521
   34DOPE  H15R 4328   3.150   5.323  12.493 -0.1879 -0.0878 -1.3438
   34DOPE  H15S 4329   3.097   5.497  12.507  2.3384  1.3635  1.7817
   34DOPE  C216 4330   3.293   5.487  12.451  0.4827  0.0273 -0.0351
   34DOPE  H16R 4331   3.288   5.598  12.442 -1.7726  0.0059  0.2170
   34DOPE  H16S 4332   3.368   5.457  12.375 -0.6246  0.5419 -1.3809
   34DOPE  C217 4333   3.358   5.458  12.591  0.1789  0.0481 -0.8016
   34DOPE  H17R 4334   3.387   5.352  12.606 -1.9211 -0.2999  1.5216
   34DOPE  H17S 4335   3.285   5.467  12.674  1.1822 -1.9695  0.3616
   34DOPE  C218 4336   3.475   5.556  12.621 -0.2027 -0.6856  0.1717
   34DOPE  H18R 4337   3.437   5.649  12.668 -1.7351 -1.3326  0.2781
   34DOPE  H18S 4338   3.519   5.583  12.523 -2.3509  0.7928 -0.4716
   34DOPE  H18T 4339   3.553   5.505  12.682 -1.1211 -0.7502  1.3297
   34DOPE   C33 4340   2.931   6.067  11.412  0.0156 -0.0138 -0.6256
   34DOPE   H3X 4341   2.911   6.149  11.485 -0.6567 -1.1231  0.4607
   34DOPE   H3Y 4342   3.007   6.113  11.345 -0.7497  0.7473 -0.9918
   34DOPE   C34 4343   2.980   5.941  11.487 -0.4657  0.1859 -0.3308
   34DOPE   H4X 4344   3.007   5.867  11.409 -0.7887  0.4841 -0.7301
   34DOPE   H4Y 4345   3.070   5.966  11.548 -0.9812  2.0864 -0.2720
   34DOPE   C35 4346   2.889   5.878  11.593  0.9612 -0.1562  0.5385
   34DOPE   H5X 4347   2.800   5.843  11.538  0.9760  1.0231 -0.2746
   34DOPE   H5Y 4348   2.862   5.963  11.659 -0.8297 -0.3722  0.1256
   34DOPE   C36 4349   2.955   5.769  11.676 -0.0692  0.0250  0.4478
   34DOPE   H6X 4350   3.058   5.805  11.699  0.0227 -0.2136  0.4148
   34DOPE   H6Y 4351   2.976   5.678  11.616  0.4043 -0.1332  0.8429
   34DOPE   C37 4352   2.902   5.738  11.812 -0.2701  1.2860  0.2540
   34DOPE   H7X 4353   2.904   5.837  11.862 -0.1820  3.8895 -4.3828
   34DOPE   H7Y 4354   2.795   5.708  11.803  0.2696 -0.6138 -0.4146
   34DOPE   C38 4355   2.990   5.628  11.875  0.1714 -0.0600 -0.4944
   34DOPE   H8X 4356   3.096   5.661  11.877 -0.4203  1.9865 -0.7172
   34DOPE   H8Y 4357   2.994   5.536  11.813  0.6024 -0.4360  0.0779
   34DOPE   C39 4358   2.934   5.591  12.010  0.0327  0.5229 -0.0802
   34DOPE   H9X 4359   2.997   5.631  12.091  0.4869 -0.1819 -0.0729
   34DOPE  C310 4360   2.831   5.502  12.022  0.0480 -0.1337 -0.3397
   34DOPE  H10X 4361   2.808   5.466  12.123  3.0429  1.3274  0.9833
   34DOPE  C311 4362   2.749   5.432  11.914  0.1227 -0.5139  0.0320
   34DOPE  H11X 4363   2.784   5.477  11.819  2.3010 -0.5876  0.7204
   34DOPE  H11Y 4364   2.776   5.325  11.902 -0.0463 -0.8422  2.1330
   34DOPE  C312 4365   2.603   5.469  11.931 -0.1723  0.1393 -0.4680
   34DOPE  H12X 4366   2.587   5.579  11.930  0.2787  0.2025 -1.3448
   34DOPE  H12Y 4367   2.566   5.428  12.028  0.3412 -3.1619 -1.5341
   34DOPE  C313 4368   2.512   5.396  11.834 -0.2290 -0.0008  0.6484
   34DOPE  H13X 4369   2.531   5.288  11.815 -1.6677  0.1182 -1.8263
   34DOPE  H13Y 4370   2.410   5.394  11.878 -1.2768 -1.6565 -1.6598
   34DOPE  C314 4371   2.498   5.490  11.707 -0.4565  0.1203 -0.1666
   34DOPE  H14X 4372   2.598   5.528  11.676 -0.3915 -0.5890 -0.8819
   34DOPE  H14Y 4373   2.442   5.582  11.731 -1.2312 -0.5053  0.4900
   34DOPE  C315 4374   2.428   5.426  11.585 -0.7473  0.5720 -0.1139
   34DOPE  H15X 4375   2.328   5.414  11.632 -0.4945  1.0191  0.5436
   34DOPE  H15Y 4376   2.476   5.330  11.559 -0.4025  0.4837  0.8442
   34DOPE  C316 4377   2.422   5.536  11.475  0.3940 -0.1671 -0.4252
   34DOPE  H16X 4378   2.526   5.557  11.441  0.5288  0.5994  0.4245
   34DOPE  H16Y 4379   2.376   5.625  11.522  0.9400  0.4834 -1.0760
   34DOPE  C317 4380   2.358   5.490  11.336 -0.0242  0.2190  0.1832
   34DOPE  H17X 4381   2.322   5.586  11.294  0.6895  0.3914 -0.0458
   34DOPE  H17Y 4382   2.430   5.432  11.274 -0.9133  0.1739 -0.8435
   34DOPE  C318 4383   2.237   5.407  11.362 -0.5847 -0.4481 -0.5119
   34DOPE  H18X 4384   2.149   5.464  11.325 -0.7405  1.0462  1.9427
   34DOPE  H18Y 4385   2.247   5.308  11.313 -0.6915 -0.0267 -1.3876
   34DOPE  H18Z 4386   2.213   5.393  11.470 -0.7502 -0.4379 -0.5467
   35DOPE     N 4387   4.790   3.125  11.056  0.4661  0.3214  0.0013
   35DOPE   HN1 4388   4.759   3.175  11.142  0.1733  1.3184 -0.6681
   35DOPE   HN2 4389   4.786   3.197  10.980 -1.5654 -1.0473 -1.3033
   35DOPE   HN3 4390   4.714   3.062  11.023  0.9384  0.3591 -1.2362
   35DOPE   C12 4391   4.925   3.068  11.064 -0.2908  0.8118  0.0784
   35DOPE  H12A 4392   4.913   2.997  11.149  0.8875 -0.3033 -0.6558
   35DOPE  H12B 4393   4.993   3.149  11.096  1.9309  0.0804 -2.4493
   35DOPE   C11 4394   4.975   2.998  10.938  0.1430  0.6669  0.8199
   35DOPE  H11A 4395   4.898   2.931  10.894  0.9800 -0.4978  1.0834
   35DOPE  H11B 4396   5.057   2.936  10.980 -0.8155 -0.7500  0.6794
   35DOPE     P 4397   5.134   3.193  10.850 -0.1593 -0.2862 -0.4891
   35DOPE   O13 4398   5.065   3.322  10.868  0.3552  0.1180  0.0001
   35DOPE   O14 4399   5.226   3.174  10.736  0.1187 -0.1193  0.3920
   35DOPE   O11 4400   5.216   3.153  10.983 -0.4424  0.0952  0.1392
   35DOPE   O12 4401   5.017   3.084  10.828 -0.3663  0.2966  0.1901
   35DOPE    C1 4402   5.330   3.229  11.021  0.0769  0.1705  0.1404
   35DOPE    HA 4403   5.374   3.302  10.950  0.1589 -0.4752 -0.4780
   35DOPE    HB 4404   5.414   3.159  11.039  0.5219  1.3553  3.2332
   35DOPE    C2 4405   5.301   3.301  11.152  0.4342  0.2195 -0.5953
   35DOPE    HS 4406   5.387   3.369  11.173  0.4821 -0.6638  2.6983
   35DOPE   O21 4407   5.284   3.214  11.275  0.1740 -0.0177  1.0223
   35DOPE   C21 4408   5.387   3.144  11.309 -0.1939 -0.2805 -0.6155
   35DOPE   O22 4409   5.495   3.145  11.256 -0.3100 -0.2052  0.1290
   35DOPE   C22 4410   5.358   3.056  11.439 -0.5145  0.2151  0.4084
   35DOPE   H2R 4411   5.454   3.002  11.456  0.2625  1.4730  0.1631
   35DOPE   H2S 4412   5.282   2.978  11.421 -0.5801  0.7248 -1.7287
   35DOPE    C3 4413   5.185   3.400  11.135  0.4853 -0.1217  0.0264
   35DOPE    HX 4414   5.092   3.347  11.105 -0.2487  2.4986 -2.8865
   35DOPE    HY 4415   5.206   3.463  11.047 -0.5798 -0.3992 -0.4451
   35DOPE   O31 4416   5.157   3.475  11.259 -0.5536 -0.1360 -0.7739
   35DOPE   C31 4417   5.069   3.416  11.338  0.3733  0.6068  0.1432
   35DOPE   O32 4418   5.015   3.311  11.316  0.3358  0.2165  0.2440
   35DOPE   C32 4419   5.055   3.506  11.464 -0.3173  0.3273 -0.3746
   35DOPE   H2X 4420   5.101   3.607  11.452  0.2228  0.2569  0.9414
   35DOPE   H2Y 4421   4.950   3.539  11.474 -0.2684 -0.0496  1.8378
   35DOPE   C23 4422   5.336   3.147  11.568  1.0044 -0.2827 -0.3800
   35DOPE   H3R 4423   5.277   3.234  11.533  0.4618 -0.1589  0.7926
   35DOPE   H3S 4424   5.421   3.205  11.611  1.2605 -0.8019 -0.1727
   35DOPE   C24 4425   5.261   3.080  11.683 -0.1332  0.2730 -0.3217
   35DOPE   H4R 4426   5.157   3.048  11.661 -0.1063 -0.3214  0.3638
   35DOPE   H4S 4427   5.247   3.149  11.769 -1.4167  0.0923 -0.3669
   35DOPE   C25 4428   5.336   2.953  11.742  0.5858 -0.3173  0.5647
   35DOPE   H5R 4429   5.334   2.885  11.655 -1.6117  0.6426 -0.2179
   35DOPE   H5S 4430   5.278   2.908  11.825 -0.5126  1.1030  0.6209
   35DOPE   C26 4431   5.475   2.982  11.794  0.5463  0.1646 -0.2946
   35DOPE   H6R 4432   5.466   3.023  11.897 -0.1976 -2.1055  0.5990
   35DOPE   H6S 4433   5.535   3.059  11.739  3.4220 -1.1086  0.8785
   35DOPE   C27 4434   5.565   2.860  11.790 -0.3891  0.2047  0.6144
   35DOPE   H7R 4435   5.561   2.831  11.683  1.2791  2.9894 -0.3206
   35DOPE   H7S 4436   5.523   2.790  11.865 -0.0203  0.6880  1.2863
   35DOPE   C28 4437   5.712   2.881  11.829 -0.5636 -0.1866 -0.1776
   35DOPE   H8R 4438   5.747   2.775  11.831 -1.2609 -0.4686 -1.4210
   35DOPE   H8S 4439   5.718   2.920  11.932 -1.3181 -0.9040  0.1545
   35DOPE   C29 4440   5.799   2.962  11.736 -0.2166  0.1147  0.4540
   35DOPE   H9R 4441   5.746   3.055  11.710  0.5094  0.3279 -0.2995
   35DOPE  C210 4442   5.917   2.938  11.677  0.0841  0.0965 -0.9785
   35DOPE  H10R 4443   5.947   3.003  11.593  2.3888  2.9010  1.7689
   35DOPE  C211 4444   6.008   2.820  11.700 -0.1624  0.0449 -0.2926
   35DOPE  H11R 4445   6.024   2.753  11.613 -0.4520 -1.0815  0.5018
   35DOPE  H11S 4446   5.969   2.754  11.780 -0.2424  0.9152  0.4083
   35DOPE  C212 4447   6.159   2.850  11.745 -0.0944 -0.5072 -0.1083
   35DOPE  H12R 4448   6.155   2.932  11.820 -2.1055 -1.4300  0.8622
   35DOPE  H12S 4449   6.217   2.887  11.658  0.3591 -0.8802  0.0304
   35DOPE  C213 4450   6.229   2.723  11.800 -0.7871  0.7596 -0.2524
   35DOPE  H13R 4451   6.200   2.632  11.744  1.7014 -2.1636  2.8280
   35DOPE  H13S 4452   6.186   2.703  11.900 -1.0329 -2.9435 -0.9637
   35DOPE  C214 4453   6.381   2.718  11.818 -0.3078 -0.0498  0.1875
   35DOPE  H14R 4454   6.409   2.628  11.877 -0.7465  0.1905  0.7717
   35DOPE  H14S 4455   6.414   2.807  11.876  0.3387 -0.0353 -0.1902
   35DOPE  C215 4456   6.445   2.724  11.681 -0.2715  0.3154 -0.7509
   35DOPE  H15R 4457   6.413   2.813  11.623  2.7671  1.1167 -1.3314
   35DOPE  H15S 4458   6.428   2.628  11.628  0.0138  0.2290 -0.6850
   35DOPE  C216 4459   6.601   2.726  11.699  0.1521  0.0275 -0.0461
   35DOPE  H16R 4460   6.644   2.706  11.598 -0.5039  0.8123 -0.4949
   35DOPE  H16S 4461   6.626   2.645  11.770 -0.0349 -0.5435 -0.6238
   35DOPE  C217 4462   6.653   2.864  11.752  0.1125 -0.3834  0.9736
   35DOPE  H17R 4463   6.607   2.890  11.850 -0.2937 -1.6855  1.1466
   35DOPE  H17S 4464   6.623   2.932  11.669  3.0484  0.3916  0.4480
   35DOPE  C218 4465   6.806   2.875  11.774  0.3364  0.3279  1.2087
   35DOPE  H18R 4466   6.833   2.818  11.865 -0.1660 -1.1020  0.4942
   35DOPE  H18S 4467   6.842   2.980  11.776  0.5096  0.3384 -0.6138
   35DOPE  H18T 4468   6.851   2.828  11.684 -0.5003 -0.3217  1.1153
   35DOPE   C33 4469   5.110   3.433  11.589  0.0479  0.8271 -0.7706
   35DOPE   H3X 4470   5.220   3.430  11.576  0.3550  0.2764  1.5101
   35DOPE   H3Y 4471   5.056   3.336  11.594 -0.9661  1.3514 -1.2380
   35DOPE   C34 4472   5.077   3.515  11.711 -0.1804  0.6615  0.4615
   35DOPE   H4X 4473   5.136   3.608  11.704 -0.8112  1.0530  0.3135
   35DOPE   H4Y 4474   4.969   3.541  11.710 -0.4374 -0.3309  0.8210
   35DOPE   C35 4475   5.122   3.444  11.842  0.5842  0.0946 -0.3995
   35DOPE   H5X 4476   5.216   3.386  11.826  1.3893  0.8618  1.2226
   35DOPE   H5Y 4477   5.052   3.363  11.869 -2.4710  1.9920 -2.0895
   35DOPE   C36 4478   5.130   3.535  11.963  0.5852 -0.4061  0.3356
   35DOPE   H6X 4479   5.194   3.621  11.932 -0.5386  0.5677  0.6341
   35DOPE   H6Y 4480   5.182   3.485  12.048  2.1108 -1.3980 -1.1229
   35DOPE   C37 4481   4.997   3.595  12.000 -0.4559 -0.4846 -0.2585
   35DOPE   H7X 4482   4.957   3.662  11.921  0.7286  1.8164  1.0048
   35DOPE   H7Y 4483   4.935   3.502  11.998 -0.5544 -0.4191 -2.0379
   35DOPE   C38 4484   4.993   3.670  12.140 -0.4109  0.7126 -0.0350
   35DOPE   H8X 4485   5.007   3.590  12.215  1.2227  2.3709  1.5420
   35DOPE   H8Y 4486   4.893   3.715  12.156 -0.0259  1.4265  0.4038
   35DOPE   C39 4487   5.100   3.770  12.157 -0.0214  0.2541 -0.2158
   35DOPE   H9X 4488   5.064   3.860  12.107 -0.0800 -0.7775 -2.1166
   35DOPE  C310 4489   5.220   3.766  12.218  0.2136 -0.4717  0.4415
   35DOPE  H10X 4490   5.277   3.860  12.218 -0.7191  0.1350 -0.8182
   35DOPE  C311 4491   5.281   3.652  12.292  0.1112 -0.0934  0.2113
   35DOPE  H11X 4492   5.237   3.551  12.275  1.0446 -1.0266  2.7670
   35DOPE  H11Y 4493   5.388   3.646  12.260 -0.2965  0.7216 -1.3602
   35DOPE  C312 4494   5.287   3.678  12.446  0.6256  0.7985  0.5034
   35DOPE  H12X 4495   5.326   3.587  12.496 -0.0465  0.7578  0.9800
   35DOPE  H12Y 4496   5.183   3.677  12.486  0.3400  0.6760 -0.2257
   35DOPE  C313 4497   5.362   3.807  12.483  0.0499  0.3219  0.2848
   35DOPE  H13X 4498   5.451   3.806  12.417  1.0099 -5.6125  1.0999
   35DOPE  H13Y 4499   5.310   3.899  12.450  0.3483  1.3258  2.4195
   35DOPE  C314 4500   5.401   3.834  12.628 -0.6355  0.0250  0.3046
   35DOPE  H14X 4501   5.426   3.737  12.675 -2.9822 -0.5386  0.5070
   35DOPE  H14Y 4502   5.314   3.870  12.686 -2.1778  1.5865 -2.7568
   35DOPE  C315 4503   5.507   3.945  12.647 -0.3343 -0.2814 -0.6708
   35DOPE  H15X 4504   5.593   3.916  12.583 -0.0600 -1.6279  0.2512
   35DOPE  H15Y 4505   5.537   3.932  12.753  1.4157 -0.7828 -1.1880
   35DOPE  C316 4506   5.448   4.090  12.619 -0.3593 -0.4948 -0.5706
   35DOPE  H16X 4507   5.367   4.113  12.691 -1.0987 -0.5445 -1.3694
   35DOPE  H16Y 4508   5.407   4.092  12.515  0.6323  0.7870 -0.9698
   35DOPE  C317 4509   5.557   4.204  12.627  0.5145 -0.3628 -0.1128
   35DOPE  H17X 4510   5.603   4.172  12.723  1.4941 -2.0983 -1.1074
   35DOPE  H17Y 4511   5.617   4.200  12.534  0.3421 -0.8741 -0.2071
   35DOPE  C318 4512   5.486   4.340  12.631  0.6218  0.4961 -0.2727
   35DOPE  H18X 4513   5.408   4.335  12.710  0.3390 -1.2851 -0.6249
   35DOPE  H18Y 4514   5.547   4.425  12.667 -0.2357  0.5799  1.0389
   35DOPE  H18Z 4515   5.436   4.350  12.532 -0.0828 -1.0965 -0.1097
   36DOPE     N 4516   5.181   4.417  10.441 -0.2346 -0.3066  0.5758
   36DOPE   HN1 4517   5.175   4.471  10.352  3.8195  1.5089  1.1754
   36DOPE   HN2 4518   5.269   4.445  10.488  2.0903 -0.8919 -3.0053
   36DOPE   HN3 4519   5.198   4.317  10.420 -0.3581 -0.5763  1.7008
   36DOPE   C12 4520   5.053   4.432  10.520  0.2308 -0.1795  0.0606
   36DOPE  H12A 4521   5.017   4.341  10.572 -3.2191  1.3247  0.5865
   36DOPE  H12B 4522   4.973   4.453  10.446  0.2596 -0.4047 -0.0332
   36DOPE   C11 4523   5.063   4.553  10.614 -0.4316  0.4757 -0.1617
   36DOPE  H11A 4524   5.104   4.644  10.564  1.5865  0.7557  1.8504
   36DOPE  H11B 4525   5.139   4.533  10.693 -0.0518  2.0640 -0.0800
   36DOPE     P 4526   4.829   4.682  10.624 -0.2253  0.1144 -0.1735
   36DOPE   O13 4527   4.700   4.617  10.650  0.0354  0.1382  0.6170
   36DOPE   O14 4528   4.859   4.704  10.484 -0.0942  0.0669  0.3750
   36DOPE   O11 4529   4.841   4.802  10.723 -0.1634 -0.3915  0.3033
   36DOPE   O12 4530   4.938   4.581  10.678  0.1187  0.1660 -0.0614
   36DOPE    C1 4531   4.938   4.908  10.705 -0.5764 -0.0246  0.6319
   36DOPE    HA 4532   4.894   4.997  10.656  0.7387 -0.0139 -0.5971
   36DOPE    HB 4533   5.025   4.880  10.642 -0.1107  0.0255  1.2394
   36DOPE    C2 4534   4.987   4.962  10.843 -0.2303  0.4260  0.1996
   36DOPE    HS 4535   5.058   5.045  10.821  0.3874  0.0481  0.7261
   36DOPE   O21 4536   5.041   4.858  10.923  0.2962  0.1099 -0.0538
   36DOPE   C21 4537   5.160   4.812  10.894  0.1882  0.2165 -0.4654
   36DOPE   O22 4538   5.227   4.847  10.801 -0.1125  0.3191  0.4671
   36DOPE   C22 4539   5.170   4.682  10.977 -0.3557  0.1947  0.0408
   36DOPE   H2R 4540   5.150   4.597  10.909 -0.7490 -0.4862  0.9889
   36DOPE   H2S 4541   5.104   4.687  11.066 -0.8638 -1.1272 -0.2462
   36DOPE    C3 4542   4.862   5.019  10.921  0.0546  0.5155 -0.5619
   36DOPE    HX 4543   4.800   4.930  10.944  1.2464 -0.3638 -0.6518
   36DOPE    HY 4544   4.808   5.084  10.849  1.7965  1.1170 -1.3815
   36DOPE   O31 4545   4.892   5.082  11.046 -0.4397 -0.0199 -0.6342
   36DOPE   C31 4546   4.777   5.111  11.109  0.2607  0.0109 -0.0499
   36DOPE   O32 4547   4.664   5.095  11.061 -0.7151  0.4590  0.3397
   36DOPE   C32 4548   4.811   5.176  11.244  0.6193 -0.0146 -0.4765
   36DOPE   H2X 4549   4.866   5.105  11.310  1.4935  2.4209  1.5672
   36DOPE   H2Y 4550   4.881   5.262  11.237  1.3611 -0.6309 -0.7719
   36DOPE   C23 4551   5.315   4.645  11.031  0.1317  0.1597  0.4723
   36DOPE   H3R 4552   5.392   4.652  10.951 -0.1109  2.0389  0.3676
   36DOPE   H3S 4553   5.304   4.542  11.072  0.5740  0.3225  1.0054
   36DOPE   C24 4554   5.355   4.734  11.151  0.6125 -0.2788  0.3404
   36DOPE   H4R 4555   5.305   4.691  11.240  0.6906  1.2113  1.1335
   36DOPE   H4S 4556   5.302   4.829  11.132  1.0497  0.3706  2.1290
   36DOPE   C25 4557   5.507   4.740  11.185 -0.4407  0.7607  0.6257
   36DOPE   H5R 4558   5.561   4.782  11.098 -0.0112 -1.3363 -0.1929
   36DOPE   H5S 4559   5.538   4.635  11.206 -0.2691  0.7715  0.4220
   36DOPE   C26 4560   5.546   4.840  11.296  0.1987  0.0074 -0.1424
   36DOPE   H6R 4561   5.515   4.942  11.266  1.2291  0.1100 -0.9046
   36DOPE   H6S 4562   5.657   4.848  11.299  0.4271 -1.3116 -2.5266
   36DOPE   C27 4563   5.490   4.798  11.441  0.1411  0.3724  0.1660
   36DOPE   H7R 4564   5.547   4.708  11.473  2.2332  0.7220 -2.2359
   36DOPE   H7S 4565   5.380   4.780  11.440  0.1022  0.3987  1.6366
   36DOPE   C28 4566   5.525   4.907  11.544  1.0617  0.4999 -0.3568
   36DOPE   H8R 4567   5.447   4.900  11.623  0.3982  0.3201 -1.0113
   36DOPE   H8S 4568   5.498   5.007  11.503 -2.6752  0.1043  0.7622
   36DOPE   C29 4569   5.659   4.877  11.605 -0.2379  0.0557 -0.1614
   36DOPE   H9R 4570   5.744   4.869  11.536  1.9644 -2.7111  2.5481
   36DOPE  C210 4571   5.691   4.850  11.734 -0.1114 -0.4986  0.4539
   36DOPE  H10R 4572   5.795   4.829  11.760  0.1690  0.2514 -0.0354
   36DOPE  C211 4573   5.596   4.850  11.847  0.0464 -0.4963  0.0787
   36DOPE  H11R 4574   5.625   4.775  11.924  2.0851 -1.0431 -1.1508
   36DOPE  H11S 4575   5.497   4.812  11.815 -0.7977  2.8974 -1.7364
   36DOPE  C212 4576   5.584   4.986  11.915  0.3187  0.2716 -0.3890
   36DOPE  H12R 4577   5.494   4.981  11.980  0.6403 -2.3918 -0.0447
   36DOPE  H12S 4578   5.573   5.071  11.844  0.7987  0.9228  0.2990
   36DOPE  C213 4579   5.709   5.023  11.999 -0.2045  0.7179 -0.4851
   36DOPE  H13R 4580   5.683   5.127  12.028  0.1808  1.1732 -1.6920
   36DOPE  H13S 4581   5.807   5.013  11.947  0.4465  4.6022 -0.3249
   36DOPE  C214 4582   5.714   4.942  12.136 -0.3815  0.7055  0.4752
   36DOPE  H14R 4583   5.709   4.831  12.124 -0.2351  0.6482  0.9439
   36DOPE  H14S 4584   5.630   4.986  12.194  0.6058  1.5759  1.2704
   36DOPE  C215 4585   5.844   4.991  12.202 -0.3578  0.0332  0.1669
   36DOPE  H15R 4586   5.869   5.098  12.181  1.5897 -0.5890 -0.8936
   36DOPE  H15S 4587   5.930   4.940  12.154 -0.7821 -0.5377  0.0025
   36DOPE  C216 4588   5.842   4.970  12.354  0.0847  0.6998 -0.8630
   36DOPE  H16R 4589   5.826   4.863  12.377 -0.2294  1.6302  4.5334
   36DOPE  H16S 4590   5.757   5.017  12.409  0.5667 -0.8910  1.3855
   36DOPE  C217 4591   5.969   5.021  12.422  0.1805 -0.5006  0.4783
   36DOPE  H17R 4592   5.980   5.129  12.400  0.0776 -0.5522  0.1557
   36DOPE  H17S 4593   6.060   4.971  12.383  0.4035  0.7242 -0.6103
   36DOPE  C218 4594   5.955   5.008  12.571 -0.2308 -0.2960 -1.1956
   36DOPE  H18R 4595   5.865   5.057  12.614  0.7836 -0.4021  1.2311
   36DOPE  H18S 4596   6.036   5.068  12.618 -1.4663  0.5428 -0.0471
   36DOPE  H18T 4597   5.970   4.903  12.603  1.1353  0.0365 -0.6525
   36DOPE   C33 4598   4.676   5.209  11.314  0.2247 -0.1222 -0.2834
   36DOPE   H3X 4599   4.617   5.116  11.321 -0.6090  0.4277  0.1909
   36DOPE   H3Y 4600   4.619   5.287  11.258  2.0658  1.3675 -0.2084
   36DOPE   C34 4601   4.692   5.255  11.463 -0.2825  0.3759  0.2100
   36DOPE   H4X 4602   4.766   5.186  11.510 -2.6796 -2.6174 -0.1156
   36DOPE   H4Y 4603   4.733   5.357  11.449  0.2282  0.1291 -0.1252
   36DOPE   C35 4604   4.567   5.234  11.545  0.2949  0.3873  0.0108
   36DOPE   H5X 4605   4.522   5.136  11.519  0.9864 -0.7521  2.7451
   36DOPE   H5Y 4606   4.492   5.314  11.529 -1.2734 -1.1774 -0.8727
   36DOPE   C36 4607   4.589   5.225  11.699  0.3197 -0.9624 -0.3879
   36DOPE   H6X 4608   4.669   5.154  11.728  1.8241  0.9966  0.4676
   36DOPE   H6Y 4609   4.493   5.188  11.742 -1.3015  0.7194 -2.3631
   36DOPE   C37 4610   4.607   5.362  11.766 -0.3032 -0.1044  0.5087
   36DOPE   H7X 4611   4.691   5.414  11.716 -1.6129  1.5141 -0.0809
   36DOPE   H7Y 4612   4.517   5.422  11.740  1.0576  1.3183 -1.1504
   36DOPE   C38 4613   4.600   5.355  11.916 -0.9025  0.8300  0.6897
   36DOPE   H8X 4614   4.664   5.270  11.948 -2.0120 -0.6718 -0.8578
   36DOPE   H8Y 4615   4.495   5.328  11.939 -1.2619  1.0725 -0.6008
   36DOPE   C39 4616   4.657   5.478  11.973  0.7534  0.3730  0.8152
   36DOPE   H9X 4617   4.621   5.565  11.916 -2.2433 -1.2241  0.0458
   36DOPE  C310 4618   4.743   5.489  12.078 -0.1473  0.3698  0.4794
   36DOPE  H10X 4619   4.801   5.581  12.097 -0.6816  0.5504  1.2598
   36DOPE  C311 4620   4.792   5.371  12.159  0.2181  0.2592 -0.8649
   36DOPE  H11X 4621   4.810   5.408  12.262 -0.0688 -0.3851 -0.5769
   36DOPE  H11Y 4622   4.715   5.292  12.169  1.3954 -0.9674 -1.1826
   36DOPE  C312 4623   4.913   5.300  12.101  0.3578  0.7043 -0.6034
   36DOPE  H12X 4624   4.993   5.374  12.079 -0.0905  0.9759 -1.3700
   36DOPE  H12Y 4625   4.884   5.259  12.001 -0.2842  0.3065 -0.2639
   36DOPE  C313 4626   4.963   5.178  12.183  0.2851 -1.2401 -0.1920
   36DOPE  H13X 4627   4.880   5.106  12.194 -0.4205 -0.3216  0.7066
   36DOPE  H13Y 4628   5.054   5.126  12.147  1.7839  0.7745  0.4523
   36DOPE  C314 4629   5.015   5.224  12.325  0.3137 -0.1175  0.0209
   36DOPE  H14X 4630   4.935   5.270  12.387 -1.1797 -2.7498  0.1904
   36DOPE  H14Y 4631   5.106   5.288  12.322 -0.5064  1.0785  0.0654
   36DOPE  C315 4632   5.050   5.095  12.406  0.3763 -0.5638  0.0685
   36DOPE  H15X 4633   5.116   5.031  12.343  1.0255  0.7051 -0.5921
   36DOPE  H15Y 4634   4.966   5.027  12.429  0.0734 -0.0384  0.5487
   36DOPE  C316 4635   5.122   5.141  12.535 -0.9140 -0.0840  0.5419
   36DOPE  H16X 4636   5.060   5.225  12.572  2.1004  1.8563  1.5807
   36DOPE  H16Y 4637   5.222   5.183  12.510 -0.5773  0.0389  2.0137
   36DOPE  C317 4638   5.150   5.036  12.645 -0.3022 -0.4706  0.1042
   36DOPE  H17X 4639   5.056   4.990  12.683 -0.8238  0.1050 -0.4780
   36DOPE  H17Y 4640   5.211   4.958  12.596 -0.5486  0.1861 -1.2985
   36DOPE  C318 4641   5.238   5.101  12.761  0.4384 -0.0933  0.2305
   36DOPE  H18X 4642   5.327   5.149  12.717  0.0051  0.5619  0.0464
   36DOPE  H18Y 4643   5.197   5.187  12.819 -1.3925 -0.9784  0.3220
   36DOPE  H18Z 4644   5.269   5.016  12.825  2.0045  0.4087  0.1820
   37DOPE     N 4645   3.102   4.577  10.807  0.6674 -0.2518  0.1608
   37DOPE   HN1 4646   3.108   4.474  10.822 -0.5478 -0.1459  1.6295
   37DOPE   HN2 4647   3.189   4.619  10.846  0.1226  1.0326  0.0365
   37DOPE   HN3 4648   3.019   4.616  10.855  0.5477 -1.0718  0.6416
   37DOPE   C12 4649   3.077   4.616  10.662 -0.2364  0.5079  0.7188
   37DOPE  H12A 4650   3.073   4.725  10.640 -0.2974  0.5702  1.0317
   37DOPE  H12B 4651   2.976   4.580  10.633  0.3418 -1.1250  0.6524
   37DOPE   C11 4652   3.182   4.563  10.567  0.7964  0.0986 -0.3146
   37DOPE  H11A 4653   3.277   4.613  10.596  0.2261  0.9873  0.0745
   37DOPE  H11B 4654   3.158   4.606  10.468  0.1251  1.3640  0.3736
   37DOPE     P 4655   3.176   4.334  10.447  0.2475 -0.2024  0.1981
   37DOPE   O13 4656   3.297   4.351  10.362  0.5583 -0.0972 -0.0011
   37DOPE   O14 4657   3.046   4.370  10.388  0.0381  0.4967 -0.2077
   37DOPE   O11 4658   3.163   4.188  10.493  0.0331  0.5563 -0.6625
   37DOPE   O12 4659   3.198   4.415  10.574  0.2480 -0.6319  0.2012
   37DOPE    C1 4660   3.036   4.142  10.551 -0.6481  0.1540 -0.0291
   37DOPE    HA 4661   3.033   4.031  10.552 -1.3786  0.1673 -0.0227
   37DOPE    HB 4662   2.955   4.166  10.480  0.7302  1.3735 -1.2457
   37DOPE    C2 4663   3.009   4.191  10.704  0.2608  0.0844 -0.5053
   37DOPE    HS 4664   3.015   4.301  10.691  1.3137 -0.1915 -3.0001
   37DOPE   O21 4665   3.125   4.130  10.776  0.2628 -0.5345  0.7695
   37DOPE   C21 4666   3.176   4.208  10.868  0.0615  0.1640 -0.5542
   37DOPE   O22 4667   3.129   4.318  10.898  0.1353  0.6915 -0.3151
   37DOPE   C22 4668   3.308   4.155  10.926 -0.0662 -0.1900  0.4170
   37DOPE   H2R 4669   3.380   4.146  10.842 -0.4753  0.6517 -0.0420
   37DOPE   H2S 4670   3.281   4.053  10.962  2.0424 -1.2498 -0.8225
   37DOPE    C3 4671   2.879   4.152  10.772  0.4356  0.3208  0.8232
   37DOPE    HX 4672   2.801   4.212  10.720  1.0633  0.3467 -0.1114
   37DOPE    HY 4673   2.873   4.195  10.875  0.4141  3.2472 -0.2890
   37DOPE   O31 4674   2.846   4.009  10.769  0.6991 -0.9961  0.3559
   37DOPE   C31 4675   2.719   3.984  10.721  0.1240  0.7192  0.0304
   37DOPE   O32 4676   2.642   4.065  10.679  0.2282  0.7457  0.2580
   37DOPE   C32 4677   2.693   3.834  10.724  0.0283  0.5891 -0.0638
   37DOPE   H2X 4678   2.588   3.818  10.754 -0.0069 -0.8245 -0.8380
   37DOPE   H2Y 4679   2.699   3.791  10.622 -1.1359 -0.5946  0.3463
   37DOPE   C23 4680   3.371   4.241  11.036  0.0997 -0.6044 -0.2286
   37DOPE   H3R 4681   3.333   4.220  11.138  2.2656  3.0906  1.5774
   37DOPE   H3S 4682   3.358   4.348  11.009 -0.7134 -0.6251  0.0518
   37DOPE   C24 4683   3.522   4.220  11.044  0.1713  0.1284  0.0440
   37DOPE   H4R 4684   3.546   4.271  10.948 -3.6774 -0.7207 -1.5938
   37DOPE   H4S 4685   3.549   4.112  11.039  1.2935  0.4026 -0.0385
   37DOPE   C25 4686   3.593   4.281  11.164  0.1525  0.1674 -0.5213
   37DOPE   H5R 4687   3.558   4.386  11.178 -0.6651 -0.3609  1.8131
   37DOPE   H5S 4688   3.703   4.280  11.153  0.3049  1.0155  0.7082
   37DOPE   C26 4689   3.557   4.201  11.289  0.3284  0.3781 -0.8013
   37DOPE   H6R 4690   3.591   4.096  11.276 -0.4359  0.1659 -1.1277
   37DOPE   H6S 4691   3.446   4.200  11.299  0.1755 -3.2026 -1.3686
   37DOPE   C27 4692   3.631   4.256  11.411 -0.1132  0.0925  0.2834
   37DOPE   H7R 4693   3.627   4.366  11.399 -1.9199  0.1081  0.6746
   37DOPE   H7S 4694   3.737   4.232  11.391 -0.8303 -1.9859 -1.4306
   37DOPE   C28 4695   3.594   4.202  11.545  0.1575  0.4418 -0.4769
   37DOPE   H8R 4696   3.592   4.091  11.531  0.8313  0.4165 -0.4178
   37DOPE   H8S 4697   3.489   4.226  11.569  0.2419 -1.9382  2.9445
   37DOPE   C29 4698   3.687   4.251  11.653 -0.3893 -0.1946 -0.1234
   37DOPE   H9R 4699   3.706   4.358  11.641  0.6943 -0.5150 -1.5053
   37DOPE  C210 4700   3.734   4.182  11.758  0.1503  0.5016 -0.5909
   37DOPE  H10R 4701   3.796   4.240  11.827 -0.5414  2.1747 -1.3158
   37DOPE  C211 4702   3.714   4.037  11.788 -0.1041 -0.6986  0.6062
   37DOPE  H11R 4703   3.795   3.967  11.758  0.5344  0.0613  0.5288
   37DOPE  H11S 4704   3.623   4.007  11.732 -0.7803  0.5101  1.0169
   37DOPE  C212 4705   3.696   4.008  11.939  0.5537  0.0134  0.2438
   37DOPE  H12R 4706   3.615   4.069  11.985  1.4643  1.6800 -0.2934
   37DOPE  H12S 4707   3.790   4.021  11.996  0.2551  2.8045  0.2733
   37DOPE  C213 4708   3.638   3.864  11.959  0.5654 -0.1899  0.4637
   37DOPE  H13R 4709   3.693   3.799  11.889 -0.3514 -0.3387 -0.1338
   37DOPE  H13S 4710   3.535   3.861  11.919 -0.1036 -0.8692  2.1321
   37DOPE  C214 4711   3.634   3.810  12.100 -0.0117  0.5553 -0.2357
   37DOPE  H14R 4712   3.597   3.705  12.097 -1.2784  0.7748  2.8697
   37DOPE  H14S 4713   3.565   3.872  12.162 -0.0225  0.8709 -0.5625
   37DOPE  C215 4714   3.773   3.791  12.163  0.5774  0.0702 -0.7810
   37DOPE  H15R 4715   3.833   3.882  12.185  1.6222 -0.7712 -0.0607
   37DOPE  H15S 4716   3.826   3.732  12.084 -1.8402 -2.6801 -0.5240
   37DOPE  C216 4717   3.767   3.725  12.301  0.2877  0.6980 -0.6370
   37DOPE  H16R 4718   3.867   3.682  12.323  0.2176  0.3751 -0.9254
   37DOPE  H16S 4719   3.698   3.638  12.286 -0.7342  1.5638 -1.1116
   37DOPE  C217 4720   3.723   3.808  12.427  0.5583 -0.4891  0.2871
   37DOPE  H17R 4721   3.618   3.841  12.416 -0.2335 -1.8374  2.9567
   37DOPE  H17S 4722   3.790   3.897  12.431 -1.8090  1.5343 -1.6767
   37DOPE  C218 4723   3.737   3.723  12.551  0.1499  0.5205  0.7820
   37DOPE  H18R 4724   3.721   3.789  12.639 -0.1641  1.5491 -0.0302
   37DOPE  H18S 4725   3.834   3.669  12.554 -0.9099 -1.5111  0.2969
   37DOPE  H18T 4726   3.661   3.641  12.555 -0.4689  1.1256  2.3215
   37DOPE   C33 4727   2.797   3.760  10.803  0.2799 -0.1304 -0.4671
   37DOPE   H3X 4728   2.899   3.795  10.775  0.5254 -0.6184 -0.1806
   37DOPE   H3Y 4729   2.782   3.651  10.792 -0.7596 -0.0334 -0.1268
   37DOPE   C34 4730   2.778   3.787  10.956  0.2622  0.1639 -0.2671
   37DOPE   H4X 4731   2.801   3.895  10.969 -1.4492  0.4680  0.5301
   37DOPE   H4Y 4732   2.674   3.787  10.995  0.6330 -1.5657  0.8148
   37DOPE   C35 4733   2.852   3.691  11.040  0.8110  0.2759  0.0919
   37DOPE   H5X 4734   2.817   3.588  11.016 -0.1294  0.9461 -1.5994
   37DOPE   H5Y 4735   2.832   3.705  11.148  1.0030 -1.1024  0.3251
   37DOPE   C36 4736   3.006   3.713  11.041  0.0388  0.1968  0.1524
   37DOPE   H6X 4737   3.020   3.815  11.083  1.5844 -0.3089  0.9266
   37DOPE   H6Y 4738   3.033   3.709  10.933 -0.2457  0.2759  0.0758
   37DOPE   C37 4739   3.091   3.603  11.108  0.1656 -0.4323  0.1720
   37DOPE   H7X 4740   3.056   3.508  11.062  0.5724 -0.2879 -0.4470
   37DOPE   H7Y 4741   3.197   3.623  11.085  0.3476 -0.0311  1.3005
   37DOPE   C38 4742   3.082   3.584  11.256 -0.3158  0.5670 -0.6604
   37DOPE   H8X 4743   2.978   3.556  11.282 -0.0092 -0.3781 -0.4220
   37DOPE   H8Y 4744   3.109   3.679  11.306  0.1785 -0.3540  0.8880
   37DOPE   C39 4745   3.193   3.485  11.289  0.0745  0.2169 -0.2381
   37DOPE   H9X 4746   3.263   3.472  11.205  0.2040 -0.7386 -0.0009
   37DOPE  C310 4747   3.215   3.428  11.407 -0.2351  0.0975  0.3243
   37DOPE  H10X 4748   3.307   3.368  11.418 -0.7060 -0.5861  0.6472
   37DOPE  C311 4749   3.129   3.430  11.532  0.4478  0.2218  0.5622
   37DOPE  H11X 4750   3.172   3.501  11.606 -0.8642  0.1040  1.4597
   37DOPE  H11Y 4751   3.028   3.471  11.512 -0.6327 -0.5505  3.8769
   37DOPE  C312 4752   3.120   3.289  11.594  0.1082  0.8032 -0.3983
   37DOPE  H12X 4753   3.213   3.262  11.648 -0.4201  0.1542  0.2101
   37DOPE  H12Y 4754   3.109   3.215  11.512 -0.1347  1.2669 -0.7934
   37DOPE  C313 4755   3.014   3.269  11.710  0.3206  0.4750  0.2499
   37DOPE  H13X 4756   2.912   3.285  11.669  0.4703 -1.5643 -1.0616
   37DOPE  H13Y 4757   3.023   3.160  11.730 -1.3526 -0.5135 -3.4561
   37DOPE  C314 4758   3.033   3.350  11.836  0.4471 -0.1537  0.3829
   37DOPE  H14X 4759   3.038   3.460  11.816 -2.2105 -0.4074 -2.6131
   37DOPE  H14Y 4760   3.136   3.334  11.873  0.3030 -0.8555  0.4980
   37DOPE  C315 4761   2.932   3.316  11.937  0.0765 -0.8982  0.0566
   37DOPE  H15X 4762   2.942   3.206  11.949 -0.8867 -1.1224 -1.0342
   37DOPE  H15Y 4763   2.831   3.345  11.903  0.8388  2.9982  0.5769
   37DOPE  C316 4764   2.966   3.401  12.066 -0.1837  0.2387  1.2566
   37DOPE  H16X 4765   2.959   3.510  12.050  0.0357  0.2941  1.5368
   37DOPE  H16Y 4766   3.070   3.368  12.086  0.0382 -0.6170 -0.9524
   37DOPE  C317 4767   2.876   3.367  12.185 -0.2454 -0.0258  0.2292
   37DOPE  H17X 4768   2.773   3.399  12.156  0.3281  2.2685  0.5321
   37DOPE  H17Y 4769   2.873   3.257  12.199 -0.3388 -0.1180 -0.4718
   37DOPE  C318 4770   2.917   3.427  12.320  0.3702 -0.7427 -0.1573
   37DOPE  H18X 4771   3.021   3.392  12.340  0.7711 -0.4971 -1.6956
   37DOPE  H18Y 4772   2.908   3.538  12.324  1.7793 -0.6330  0.4976
   37DOPE  H18Z 4773   2.855   3.379  12.399  1.7848  0.0664  1.5085
   38DOPE     N 4774   6.133   7.113  10.596  0.1401 -0.8498 -1.2127
   38DOPE   HN1 4775   6.105   7.013  10.590 -2.8095 -0.1571 -0.8293
   38DOPE   HN2 4776   6.074   7.174  10.536  0.2488  1.0135  0.4682
   38DOPE   HN3 4777   6.229   7.133  10.563  0.7052 -0.1613  0.6998
   38DOPE   C12 4778   6.120   7.173  10.735  0.2279  1.0979  0.5836
   38DOPE  H12A 4779   6.020   7.140  10.769  0.4436  0.0885  0.2695
   38DOPE  H12B 4780   6.122   7.284  10.730 -0.5864  1.1077  0.3294
   38DOPE   C11 4781   6.231   7.122  10.827 -0.0062  0.3964 -1.0496
   38DOPE  H11A 4782   6.220   7.012  10.826 -0.5220  0.4289 -2.4295
   38DOPE  H11B 4783   6.223   7.162  10.930  1.9598  1.7567 -1.3683
   38DOPE     P 4784   6.470   7.045  10.739  0.5569 -0.3044 -0.1355
   38DOPE   O13 4785   6.592   7.115  10.688 -0.1287 -0.0513  0.5021
   38DOPE   O14 4786   6.405   6.943  10.654  0.5809  0.3749 -0.5052
   38DOPE   O11 4787   6.503   6.981  10.886 -0.7329  0.4851  0.2691
   38DOPE   O12 4788   6.358   7.155  10.779 -0.1032 -0.1936  0.3703
   38DOPE    C1 4789   6.523   6.840  10.902  0.2291  0.1526 -0.1775
   38DOPE    HA 4790   6.608   6.820  10.971 -0.0245 -0.4900 -0.0484
   38DOPE    HB 4791   6.540   6.792  10.804  0.4127  2.6247 -1.4336
   38DOPE    C2 4792   6.402   6.764  10.966 -0.5162 -0.0538  0.1196
   38DOPE    HS 4793   6.316   6.774  10.895 -1.1814  0.1017  0.9324
   38DOPE   O21 4794   6.382   6.833  11.090 -0.0089  0.2483 -0.3725
   38DOPE   C21 4795   6.255   6.858  11.120  1.1069 -0.0032 -0.1167
   38DOPE   O22 4796   6.161   6.838  11.040  0.1618  0.1591 -0.3815
   38DOPE   C22 4797   6.237   6.907  11.258 -0.0048  0.6447  0.5006
   38DOPE   H2R 4798   6.296   6.848  11.331 -1.1229  0.6929  1.4783
   38DOPE   H2S 4799   6.134   6.886  11.294  0.0234 -2.0901 -0.8366
   38DOPE    C3 4800   6.431   6.614  10.989 -0.0514  0.3280  0.0181
   38DOPE    HX 4801   6.521   6.605  11.054 -0.5375  1.6499  0.9078
   38DOPE    HY 4802   6.448   6.555  10.897  0.4109  1.7242 -0.8103
   38DOPE   O31 4803   6.308   6.550  11.038 -0.0171  0.4691  0.1022
   38DOPE   C31 4804   6.316   6.519  11.165  0.0318 -0.6849 -0.3747
   38DOPE   O32 4805   6.410   6.530  11.240 -0.1251  0.1828 -0.3159
   38DOPE   C32 4806   6.186   6.462  11.218 -0.1900 -0.4226  0.3107
   38DOPE   H2X 4807   6.132   6.433  11.126  2.9267 -0.1828 -1.7644
   38DOPE   H2Y 4808   6.215   6.365  11.266  0.6896 -0.9703 -1.2548
   38DOPE   C23 4809   6.273   7.056  11.267  0.0533 -0.1118 -0.1591
   38DOPE   H3R 4810   6.263   7.088  11.373 -1.6352  1.9395 -0.8751
   38DOPE   H3S 4811   6.208   7.130  11.215  0.5876  2.8327  2.9616
   38DOPE   C24 4812   6.421   7.092  11.215  0.4219  0.3261  0.3236
   38DOPE   H4R 4813   6.444   7.054  11.114 -1.0354 -0.2181  0.1768
   38DOPE   H4S 4814   6.485   7.032  11.283  0.4477 -0.8182 -0.6824
   38DOPE   C25 4815   6.454   7.245  11.238 -0.0663  0.0306 -0.3905
   38DOPE   H5R 4816   6.424   7.300  11.146  1.7022 -0.5383 -1.3562
   38DOPE   H5S 4817   6.564   7.260  11.243 -0.1854  0.6985  0.3940
   38DOPE   C26 4818   6.386   7.303  11.365 -0.4485 -0.3328  0.6379
   38DOPE   H6R 4819   6.413   7.250  11.458  1.5569 -3.3595 -1.4717
   38DOPE   H6S 4820   6.275   7.296  11.362 -0.6708  2.2020 -0.0270
   38DOPE   C27 4821   6.439   7.440  11.401 -0.1792  0.7606  0.3582
   38DOPE   H7R 4822   6.441   7.503  11.309  0.9983  1.6711  0.9794
   38DOPE   H7S 4823   6.545   7.432  11.433 -0.2616 -2.2455  0.1075
   38DOPE   C28 4824   6.353   7.501  11.513  0.2523 -0.5327 -0.2644
   38DOPE   H8R 4825   6.326   7.417  11.581  0.1309 -0.0091  0.3421
   38DOPE   H8S 4826   6.253   7.526  11.472 -0.2465 -0.2745  1.0595
   38DOPE   C29 4827   6.423   7.618  11.587  0.4026 -0.2557  0.2608
   38DOPE   H9R 4828   6.520   7.581  11.622  1.1339  0.8945 -0.4717
   38DOPE  C210 4829   6.391   7.750  11.599 -0.4122 -0.2920 -0.3766
   38DOPE  H10R 4830   6.460   7.803  11.666 -2.1902 -0.9939  2.1765
   38DOPE  C211 4831   6.262   7.819  11.567 -0.6397  0.1528 -0.9025
   38DOPE  H11R 4832   6.243   7.903  11.637 -0.1275  0.1817 -0.7925
   38DOPE  H11S 4833   6.193   7.732  11.576  1.2118 -1.5855 -2.4463
   38DOPE  C212 4834   6.245   7.880  11.421 -0.0616  0.4315 -0.0987
   38DOPE  H12R 4835   6.135   7.882  11.405 -0.2868 -0.0465  1.2714
   38DOPE  H12S 4836   6.283   7.809  11.345 -1.4906 -0.2657 -0.2013
   38DOPE  C213 4837   6.292   8.027  11.413 -0.9006  0.0622 -0.1804
   38DOPE  H13R 4838   6.402   8.033  11.428 -0.4843 -2.1090 -1.8938
   38DOPE  H13S 4839   6.254   8.095  11.492  0.4611  0.0816  0.4862
   38DOPE  C214 4840   6.257   8.084  11.276  0.5187  0.3718 -0.9054
   38DOPE  H14R 4841   6.146   8.076  11.267  0.3268 -0.4278  1.4404
   38DOPE  H14S 4842   6.308   8.017  11.204  1.2699 -1.3589  1.1500
   38DOPE  C215 4843   6.292   8.232  11.255  0.1564 -0.0915  0.0691
   38DOPE  H15R 4844   6.259   8.258  11.153 -0.2154  0.4904  0.3307
   38DOPE  H15S 4845   6.402   8.251  11.263  0.5912 -2.5829  1.0477
   38DOPE  C216 4846   6.229   8.325  11.361  0.7424  0.0361  0.1880
   38DOPE  H16R 4847   6.276   8.295  11.457  0.7197 -0.9064 -0.0874
   38DOPE  H16S 4848   6.119   8.307  11.363  0.5291  1.2721  2.0176
   38DOPE  C217 4849   6.253   8.481  11.353 -0.0219 -0.0906  0.2856
   38DOPE  H17R 4850   6.200   8.510  11.260 -1.0898 -0.2218  0.8430
   38DOPE  H17S 4851   6.362   8.501  11.340  0.3195 -0.9075  1.6068
   38DOPE  C218 4852   6.209   8.553  11.477  0.9559  0.7802 -0.0577
   38DOPE  H18R 4853   6.290   8.544  11.553  2.5491 -1.9820 -1.9238
   38DOPE  H18S 4854   6.115   8.509  11.517 -0.0263  2.7752 -0.0374
   38DOPE  H18T 4855   6.198   8.662  11.462  0.3488  0.6693 -0.4527
   38DOPE   C33 4856   6.116   6.564  11.314  0.6335  0.0084 -1.0265
   38DOPE   H3X 4857   6.017   6.517  11.335  0.6218  1.3022  2.4081
   38DOPE   H3Y 4858   6.100   6.666  11.272  0.1514  0.3033 -0.1611
   38DOPE   C34 4859   6.183   6.579  11.458  0.7331 -0.6455 -0.2791
   38DOPE   H4X 4860   6.207   6.478  11.496 -1.3414 -1.0075  0.1839
   38DOPE   H4Y 4861   6.276   6.637  11.439  0.7969 -0.3244  0.9465
   38DOPE   C35 4862   6.102   6.668  11.557  0.2667 -0.6710  0.5382
   38DOPE   H5X 4863   6.018   6.607  11.598  1.3691 -0.7807  2.7555
   38DOPE   H5Y 4864   6.065   6.749  11.490  1.4654 -1.0204 -0.5963
   38DOPE   C36 4865   6.190   6.716  11.672 -0.4518  0.3682 -0.0277
   38DOPE   H6X 4866   6.282   6.762  11.631 -1.0146  0.1014 -1.6340
   38DOPE   H6Y 4867   6.224   6.621  11.720  2.0390  0.0915 -2.1601
   38DOPE   C37 4868   6.118   6.804  11.772 -0.4424 -1.1363 -0.1305
   38DOPE   H7X 4869   6.012   6.813  11.738  0.0523 -1.3390 -1.7993
   38DOPE   H7Y 4870   6.119   6.758  11.873  0.1584  1.4841  1.1422
   38DOPE   C38 4871   6.183   6.938  11.800  0.0231 -0.4293  0.1931
   38DOPE   H8X 4872   6.286   6.932  11.839 -0.2494  1.4136  1.2949
   38DOPE   H8Y 4873   6.116   6.981  11.877 -1.2039 -0.2747 -0.9151
   38DOPE   C39 4874   6.177   7.025  11.679 -0.0528  0.1088  0.2010
   38DOPE   H9X 4875   6.166   6.975  11.582 -0.3488  0.1005  0.2378
   38DOPE  C310 4876   6.203   7.154  11.679 -0.0395 -0.7486  0.2119
   38DOPE  H10X 4877   6.204   7.213  11.586  3.5247 -1.0754 -0.0966
   38DOPE  C311 4878   6.213   7.242  11.802  0.4943 -0.3249  0.0928
   38DOPE  H11X 4879   6.150   7.331  11.783  0.0229 -0.9690 -1.4856
   38DOPE  H11Y 4880   6.182   7.196  11.898  0.8744  0.7106  0.7341
   38DOPE  C312 4881   6.358   7.282  11.844  0.5995 -0.3146 -0.4789
   38DOPE  H12X 4882   6.414   7.315  11.754 -0.8670  1.7120 -0.7057
   38DOPE  H12Y 4883   6.401   7.185  11.877  1.8171 -0.2616 -1.8130
   38DOPE  C313 4884   6.369   7.385  11.955  0.0870 -0.3186  0.2214
   38DOPE  H13X 4885   6.474   7.417  11.971 -0.9252  3.0189  1.0275
   38DOPE  H13Y 4886   6.324   7.478  11.915  1.0033  0.2782  0.5688
   38DOPE  C314 4887   6.305   7.336  12.086 -0.1910  0.6219 -0.1775
   38DOPE  H14X 4888   6.195   7.319  12.077 -0.0941 -0.4018  0.3661
   38DOPE  H14Y 4889   6.327   7.413  12.164 -0.8858  2.2619 -1.5415
   38DOPE  C315 4890   6.360   7.207  12.145  0.2353  0.2911  0.1504
   38DOPE  H15X 4891   6.471   7.201  12.137  0.1379 -0.4614 -0.8633
   38DOPE  H15Y 4892   6.334   7.123  12.076  0.3767 -0.3709  0.8891
   38DOPE  C316 4893   6.323   7.185  12.286  0.0677  1.0551  0.1996
   38DOPE  H16X 4894   6.217   7.217  12.296 -0.6534 -1.0666 -0.1350
   38DOPE  H16Y 4895   6.385   7.244  12.357 -0.3986  1.2055  0.4805
   38DOPE  C317 4896   6.336   7.032  12.329 -0.4165 -0.1669 -0.5182
   38DOPE  H17X 4897   6.411   6.979  12.268  2.5828 -0.5189  3.0954
   38DOPE  H17Y 4898   6.364   7.033  12.437 -3.7188 -4.0679  0.6515
   38DOPE  C318 4899   6.208   6.953  12.323  0.0519  0.2765  0.3254
   38DOPE  H18X 4900   6.168   6.964  12.219  1.7179 -0.3612 -0.4141
   38DOPE  H18Y 4901   6.230   6.848  12.349  0.9143 -0.0146 -1.4350
   38DOPE  H18Z 4902   6.129   6.986  12.394  1.3836  0.0258  1.9658
   39DOPE     N 4903   2.388   5.518  10.895  0.0810  0.2039 -0.0472
   39DOPE   HN1 4904   2.300   5.513  10.840  1.0005 -3.6264 -1.5100
   39DOPE   HN2 4905   2.469   5.517  10.830  0.3981  0.4510  0.3433
   39DOPE   HN3 4906   2.384   5.433  10.954  1.6776 -0.6497 -1.0875
   39DOPE   C12 4907   2.406   5.638  10.981  0.0793 -0.1448 -0.1038
   39DOPE  H12A 4908   2.460   5.710  10.916 -0.7364  1.2175  0.6534
   39DOPE  H12B 4909   2.466   5.606  11.069 -1.7050  0.0161  1.2250
   39DOPE   C11 4910   2.268   5.695  11.032 -0.3565  0.2680 -0.2748
   39DOPE  H11A 4911   2.278   5.777  11.106 -2.6141 -0.2208  0.6502
   39DOPE  H11B 4912   2.219   5.621  11.099  1.0982 -0.1070  0.4289
   39DOPE     P 4913   2.225   5.854  10.836 -0.2613 -0.1070 -0.3142
   39DOPE   O13 4914   2.102   5.920  10.790 -0.0869  0.3036 -0.3698
   39DOPE   O14 4915   2.315   5.800  10.732 -0.0646 -0.3563  0.1252
   39DOPE   O11 4916   2.302   5.956  10.937  0.2486 -0.0978  0.3876
   39DOPE   O12 4917   2.182   5.736  10.932 -0.4568 -0.0460 -0.7074
   39DOPE    C1 4918   2.283   6.087  10.975 -0.2343  0.1954 -0.1914
   39DOPE    HA 4919   2.229   6.146  10.898 -0.1366 -0.2192 -0.5833
   39DOPE    HB 4920   2.382   6.137  10.986 -0.4985  0.3803  1.6794
   39DOPE    C2 4921   2.217   6.097  11.117  0.1854 -0.1584  0.3720
   39DOPE    HS 4922   2.227   6.203  11.148 -0.8763 -0.8553  3.5349
   39DOPE   O21 4923   2.281   6.011  11.209 -0.4072  0.2877  0.5789
   39DOPE   C21 4924   2.395   6.051  11.262 -0.8581 -0.2818  0.3969
   39DOPE   O22 4925   2.459   6.153  11.240  0.3338 -0.2278  0.2364
   39DOPE   C22 4926   2.445   5.949  11.355  0.2561  0.0524 -1.2066
   39DOPE   H2R 4927   2.546   5.921  11.321  0.4220 -0.7713 -0.0831
   39DOPE   H2S 4928   2.391   5.853  11.336  1.4107 -0.9207  0.2568
   39DOPE    C3 4929   2.073   6.054  11.114  0.0838  0.2711 -0.1560
   39DOPE    HX 4930   2.075   5.950  11.073  1.2070  0.0235  0.4841
   39DOPE    HY 4931   2.025   6.110  11.031  3.1230  1.3874 -1.3147
   39DOPE   O31 4932   2.006   6.051  11.240  0.3467 -0.3398 -0.3722
   39DOPE   C31 4933   1.949   6.163  11.290 -0.1221 -0.3139 -0.4112
   39DOPE   O32 4934   1.962   6.280  11.256 -0.3700 -0.1166  0.3585
   39DOPE   C32 4935   1.850   6.111  11.396  0.1489 -0.2028 -0.3988
   39DOPE   H2X 4936   1.772   6.188  11.412  1.7538  1.0923  1.6876
   39DOPE   H2Y 4937   1.803   6.022  11.348  2.2830 -0.1880 -2.7696
   39DOPE   C23 4938   2.437   5.998  11.505  0.0851 -0.4140 -0.0890
   39DOPE   H3R 4939   2.468   6.105  11.505 -1.7233  0.1465 -0.2334
   39DOPE   H3S 4940   2.527   5.945  11.542 -0.4165  0.2404  2.2057
   39DOPE   C24 4941   2.316   5.963  11.587 -0.4025 -0.0163  0.3868
   39DOPE   H4R 4942   2.287   5.858  11.570 -0.5408  0.3023 -1.5345
   39DOPE   H4S 4943   2.235   6.031  11.552  0.5159  0.6528 -0.4826
   39DOPE   C25 4944   2.328   5.980  11.736 -0.5133 -0.0009 -0.0079
   39DOPE   H5R 4945   2.240   5.932  11.784 -0.2268 -0.1870  0.3372
   39DOPE   H5S 4946   2.325   6.086  11.767  2.3978 -0.3282  1.7663
   39DOPE   C26 4947   2.451   5.906  11.804 -0.1219 -0.5105  0.0293
   39DOPE   H6R 4948   2.533   5.960  11.751 -1.1413  0.8026 -0.2361
   39DOPE   H6S 4949   2.467   5.799  11.778  1.7472  0.6497 -4.5977
   39DOPE   C27 4950   2.471   5.934  11.952  0.5941 -0.7796 -0.9875
   39DOPE   H7R 4951   2.406   5.875  12.020  0.7121 -0.6763 -0.7862
   39DOPE   H7S 4952   2.459   6.042  11.974  0.3735 -1.3029  1.8154
   39DOPE   C28 4953   2.618   5.903  11.998  0.4046  0.5312 -0.6444
   39DOPE   H8R 4954   2.685   5.956  11.926 -0.5409  0.5968 -1.4979
   39DOPE   H8S 4955   2.640   5.796  11.981 -3.0245 -0.1686 -1.4325
   39DOPE   C29 4956   2.640   5.943  12.140 -0.7690  0.1861  0.7828
   39DOPE   H9R 4957   2.670   6.048  12.152  2.2550 -0.5272  0.2307
   39DOPE  C210 4958   2.662   5.859  12.245  0.6564 -0.0519  1.4032
   39DOPE  H10R 4959   2.670   5.900  12.346  1.3619  0.5445  1.1134
   39DOPE  C211 4960   2.648   5.711  12.236 -0.1621 -0.4435  0.8387
   39DOPE  H11R 4961   2.740   5.677  12.288 -0.7772 -0.9311  1.6410
   39DOPE  H11S 4962   2.656   5.675  12.131  0.1571  0.8239  0.4090
   39DOPE  C212 4963   2.534   5.636  12.307  0.2027 -0.5947 -0.1993
   39DOPE  H12R 4964   2.450   5.627  12.235  0.1179 -1.5463  0.0048
   39DOPE  H12S 4965   2.495   5.695  12.393 -1.6806 -0.8809 -0.8230
   39DOPE  C213 4966   2.576   5.489  12.324  0.6580 -0.3159 -0.9651
   39DOPE  H13R 4967   2.649   5.484  12.408 -1.4367  0.8826  1.0082
   39DOPE  H13S 4968   2.618   5.451  12.227 -2.4059  0.4005 -2.6910
   39DOPE  C214 4969   2.457   5.406  12.362 -0.0018  0.3179 -0.4933
   39DOPE  H14R 4970   2.424   5.457  12.455  0.1848 -0.2792 -0.0921
   39DOPE  H14S 4971   2.489   5.302  12.385 -1.4498 -0.2116 -0.7203
   39DOPE  C215 4972   2.344   5.389  12.263 -0.6293 -0.5078 -0.0876
   39DOPE  H15R 4973   2.386   5.373  12.161  1.3243  1.9700  0.2408
   39DOPE  H15S 4974   2.290   5.486  12.264 -1.4506 -0.9526  0.2947
   39DOPE  C216 4975   2.238   5.279  12.307  0.0036 -0.5514 -0.1043
   39DOPE  H16R 4976   2.283   5.188  12.353 -0.9710 -0.7577  0.4865
   39DOPE  H16S 4977   2.184   5.256  12.213  1.3481  0.1996 -1.0864
   39DOPE  C217 4978   2.138   5.336  12.413 -0.5119  0.8184 -0.4696
   39DOPE  H17R 4979   2.184   5.389  12.499  0.7137  1.5351 -1.5344
   39DOPE  H17S 4980   2.067   5.258  12.448 -1.7741  0.2093 -3.9529
   39DOPE  C218 4981   2.044   5.439  12.348  0.1651 -0.0444 -0.2162
   39DOPE  H18R 4982   1.959   5.469  12.414 -0.4417  0.4032 -1.1739
   39DOPE  H18S 4983   1.991   5.398  12.259 -1.2941 -0.6332  0.8827
   39DOPE  H18T 4984   2.094   5.534  12.319 -0.5444  0.2959 -0.3622
   39DOPE   C33 4985   1.908   6.075  11.535 -0.1587  0.1356 -0.3569
   39DOPE   H3X 4986   1.982   5.993  11.521  0.2941  0.6489 -1.0733
   39DOPE   H3Y 4987   1.827   6.025  11.592 -0.5716  1.1087 -0.0620
   39DOPE   C34 4988   1.945   6.194  11.609  0.9790  0.0053 -0.6914
   39DOPE   H4X 4989   2.053   6.195  11.633  1.0668  0.4604 -1.0889
   39DOPE   H4Y 4990   1.922   6.283  11.547 -1.2714  0.3444  0.5436
   39DOPE   C35 4991   1.874   6.213  11.744  0.0065 -0.1967  0.0632
   39DOPE   H5X 4992   1.763   6.203  11.732 -0.3036  0.4464  2.1558
   39DOPE   H5Y 4993   1.893   6.319  11.768  1.1703 -0.6720  1.3338
   39DOPE   C36 4994   1.911   6.111  11.850 -0.6674  0.4801 -0.5613
   39DOPE   H6X 4995   2.014   6.144  11.874  0.0415 -0.5979 -1.9231
   39DOPE   H6Y 4996   1.912   6.008  11.808 -0.9824  0.3415 -0.2282
   39DOPE   C37 4997   1.802   6.129  11.963  0.0801 -0.2305 -0.0658
   39DOPE   H7X 4998   1.777   6.237  11.969 -0.6055 -0.4697  2.9215
   39DOPE   H7Y 4999   1.705   6.082  11.934  0.5657 -0.0279 -2.1893
   39DOPE   C38 5000   1.839   6.085  12.108 -0.5840  0.3387  0.1823
   39DOPE   H8X 5001   1.744   6.072  12.164  0.2864  0.0796  1.6528
   39DOPE   H8Y 5002   1.907   6.159  12.154 -0.1827 -0.3620  0.7453
   39DOPE   C39 5003   1.922   5.959  12.102 -0.0222 -0.9503 -0.1409
   39DOPE   H9X 5004   1.909   5.886  12.021  1.6044 -0.3839 -0.9603
   39DOPE  C310 5005   2.004   5.921  12.205 -0.6813 -0.1757 -0.8907
   39DOPE  H10X 5006   2.057   5.826  12.191  2.5235  1.6658 -2.4293
   39DOPE  C311 5007   2.023   6.001  12.335 -0.5461  0.0229  0.3190
   39DOPE  H11X 5008   1.930   6.052  12.368 -0.2647  0.2642  0.7542
   39DOPE  H11Y 5009   2.038   5.917  12.407 -0.8221 -1.4141 -1.2474
   39DOPE  C312 5010   2.138   6.108  12.326 -0.2617  0.7078 -0.8491
   39DOPE  H12X 5011   2.151   6.151  12.428  0.3937 -0.0655 -0.5964
   39DOPE  H12Y 5012   2.111   6.192  12.258 -2.6572 -0.8333 -1.9247
   39DOPE  C313 5013   2.274   6.044  12.287 -0.0596 -0.1455 -0.0797
   39DOPE  H13X 5014   2.262   5.989  12.191 -2.4019 -0.7914  0.4982
   39DOPE  H13Y 5015   2.351   6.123  12.278 -0.9241  0.8589  0.9370
   39DOPE  C314 5016   2.328   5.944  12.395 -0.0182 -0.3184  0.7350
   39DOPE  H14X 5017   2.422   5.893  12.363  0.7979  1.3339  0.3935
   39DOPE  H14Y 5018   2.256   5.864  12.422 -1.1772  0.4955  0.1146
   39DOPE  C315 5019   2.361   6.002  12.534 -0.4612  0.3918 -0.5259
   39DOPE  H15X 5020   2.401   5.929  12.607  0.0514 -0.8127 -1.9544
   39DOPE  H15Y 5021   2.271   6.041  12.586 -0.0592  0.7789 -0.1079
   39DOPE  C316 5022   2.470   6.113  12.535 -0.1837 -0.3823 -0.0455
   39DOPE  H16X 5023   2.445   6.189  12.457  1.7245 -2.3283 -2.7588
   39DOPE  H16Y 5024   2.571   6.068  12.520  0.0933 -0.5928  2.1352
   39DOPE  C317 5025   2.485   6.176  12.670  0.1430  0.8164  0.3857
   39DOPE  H17X 5026   2.389   6.233  12.668  0.0880  0.7064 -0.0561
   39DOPE  H17Y 5027   2.494   6.087  12.736  2.4543  0.3025 -0.5544
   39DOPE  C318 5028   2.605   6.264  12.704  0.3374 -0.1935 -0.0993
   39DOPE  H18X 5029   2.623   6.350  12.636  0.7196  0.1728  0.4675
   39DOPE  H18Y 5030   2.597   6.292  12.811 -0.8467  0.5648 -0.3606
   39DOPE  H18Z 5031   2.694   6.200  12.694  0.5088  0.0337 -0.0315
   40DOPE     N 5032   4.930   6.836   9.863 -0.1230  0.4437 -0.4100
   40DOPE   HN1 5033   4.969   6.932   9.849  1.1271 -0.0222 -0.2813
   40DOPE   HN2 5034   4.958   6.781   9.779 -2.7606  1.3419 -1.9981
   40DOPE   HN3 5035   4.827   6.839   9.854 -0.0331  0.0084 -1.7574
   40DOPE   C12 5036   4.977   6.761   9.995 -0.0471  0.2039  0.3107
   40DOPE  H12A 5037   5.069   6.707   9.964  1.2243  0.3526  3.4308
   40DOPE  H12B 5038   4.903   6.678  10.002  0.5087 -0.3781 -0.5115
   40DOPE   C11 5039   5.001   6.850  10.118  0.3483 -0.2604  0.4351
   40DOPE  H11A 5040   5.094   6.907  10.098  0.5736 -1.2782 -1.6394
   40DOPE  H11B 5041   5.031   6.783  10.201  0.0164 -0.2947  0.5307
   40DOPE     P 5042   4.880   7.073  10.206  0.1264  0.4776  0.0194
   40DOPE   O13 5043   4.764   7.094  10.291  0.3100 -0.1587 -0.5669
   40DOPE   O14 5044   4.887   7.172  10.102  0.0815  0.1153  0.6311
   40DOPE   O11 5045   5.011   7.091  10.289 -0.6705  0.3467  0.0659
   40DOPE   O12 5046   4.880   6.922  10.155 -0.3120  0.0233  0.1953
   40DOPE    C1 5047   5.071   7.011  10.390  0.1282 -0.0289  0.3204
   40DOPE    HA 5048   5.180   7.029  10.389  0.4700 -1.6930 -1.8128
   40DOPE    HB 5049   5.053   6.903  10.371 -0.5322  0.0365  0.5533
   40DOPE    C2 5050   5.028   7.052  10.537  0.3042  0.4799  1.0425
   40DOPE    HS 5051   5.099   7.008  10.609 -0.0917  0.8065  1.6413
   40DOPE   O21 5052   4.896   6.998  10.567  0.2849  0.0614 -0.1644
   40DOPE   C21 5053   4.892   6.867  10.581  0.0865  0.8449 -0.2143
   40DOPE   O22 5054   4.989   6.801  10.592  0.2330  0.3867 -0.0398
   40DOPE   C22 5055   4.749   6.815  10.571 -1.3110 -0.4502  0.8179
   40DOPE   H2R 5056   4.732   6.836  10.463 -0.9393  2.0583  1.1855
   40DOPE   H2S 5057   4.688   6.878  10.638  0.9247  3.2695 -0.3010
   40DOPE    C3 5058   5.025   7.197  10.557 -0.3073 -0.1844 -0.7841
   40DOPE    HX 5059   4.951   7.237  10.484 -0.0134  1.0758 -0.4176
   40DOPE    HY 5060   5.119   7.249  10.529 -0.0618 -1.8082 -3.3705
   40DOPE   O31 5061   4.999   7.218  10.696  0.9412 -0.1217  0.0467
   40DOPE   C31 5062   4.871   7.264  10.736  0.3634  0.4185 -0.0055
   40DOPE   O32 5063   4.782   7.284  10.657  0.1770  1.0970 -0.4497
   40DOPE   C32 5064   4.868   7.262  10.894  0.2473 -0.6179  0.2566
   40DOPE   H2X 5065   4.913   7.163  10.917 -0.6583 -1.0974  0.0026
   40DOPE   H2Y 5066   4.934   7.343  10.932  2.8889 -1.1179 -2.8390
   40DOPE   C23 5067   4.722   6.663  10.591  0.0246  0.7268  0.1894
   40DOPE   H3R 5068   4.802   6.611  10.534 -1.5381  0.8022 -2.1838
   40DOPE   H3S 5069   4.628   6.635  10.538  1.1945 -1.5212 -0.8244
   40DOPE   C24 5070   4.717   6.624  10.737 -0.3688  0.3941 -0.1428
   40DOPE   H4R 5071   4.642   6.673  10.803 -0.9806 -2.2869  1.3008
   40DOPE   H4S 5072   4.817   6.640  10.782 -1.3347 -0.3600  2.4601
   40DOPE   C25 5073   4.680   6.473  10.748  0.3947  0.2103  0.5719
   40DOPE   H5R 5074   4.765   6.419  10.701  1.9534  0.8805  2.4871
   40DOPE   H5S 5075   4.592   6.447  10.685  0.6748  0.5612  0.0327
   40DOPE   C26 5076   4.657   6.425  10.892 -0.3387  0.1989  0.0054
   40DOPE   H6R 5077   4.745   6.452  10.954 -1.3034  3.1785  0.2087
   40DOPE   H6S 5078   4.661   6.314  10.891 -1.3121  0.1563 -1.4955
   40DOPE   C27 5079   4.527   6.487  10.956 -0.5738 -0.3569 -0.0051
   40DOPE   H7R 5080   4.439   6.460  10.893  0.0403  0.6443 -1.3327
   40DOPE   H7S 5081   4.544   6.595  10.973  1.7358 -0.9301  1.7748
   40DOPE   C28 5082   4.491   6.420  11.090 -0.1417  0.5665 -0.2376
   40DOPE   H8R 5083   4.486   6.309  11.085  3.5627  0.2981 -1.6433
   40DOPE   H8S 5084   4.385   6.447  11.110 -0.8413 -2.3309  0.4136
   40DOPE   C29 5085   4.586   6.471  11.201 -0.5420  0.2321  0.4638
   40DOPE   H9R 5086   4.680   6.416  11.218 -0.2560  0.8803  1.0529
   40DOPE  C210 5087   4.550   6.574  11.287  0.4579  0.3377 -0.3387
   40DOPE  H10R 5088   4.611   6.598  11.376 -1.9301 -0.4428  1.6334
   40DOPE  C211 5089   4.417   6.641  11.281 -0.5911 -0.0959  0.5632
   40DOPE  H11R 5090   4.358   6.620  11.189 -0.2758  1.5846 -0.0739
   40DOPE  H11S 5091   4.441   6.750  11.274  1.4701 -0.5371  0.3001
   40DOPE  C212 5092   4.336   6.626  11.409  0.7440  0.4736 -0.7714
   40DOPE  H12R 5093   4.380   6.665  11.503  1.3614 -0.0922 -0.8177
   40DOPE  H12S 5094   4.312   6.520  11.429 -2.2434  0.9014 -1.5322
   40DOPE  C213 5095   4.196   6.692  11.404 -0.0131  0.0997 -0.3477
   40DOPE  H13R 5096   4.127   6.619  11.357 -0.4047  0.4279 -0.2950
   40DOPE  H13S 5097   4.204   6.784  11.342 -0.9787 -0.0325 -0.6936
   40DOPE  C214 5098   4.139   6.728  11.546  0.0992 -0.3687 -0.3167
   40DOPE  H14R 5099   4.058   6.800  11.521  0.6130  1.0494  1.8476
   40DOPE  H14S 5100   4.216   6.786  11.600  0.7049  0.5019 -2.0484
   40DOPE  C215 5101   4.084   6.616  11.631  0.0568 -0.4515  0.3576
   40DOPE  H15R 5102   4.153   6.529  11.630 -0.7071 -1.1045  1.8383
   40DOPE  H15S 5103   3.986   6.583  11.589 -0.0815  1.0403 -0.5722
   40DOPE  C216 5104   4.057   6.662  11.776 -0.1717 -0.5338 -0.1068
   40DOPE  H16R 5105   3.972   6.733  11.773  0.9000  0.8222  0.2820
   40DOPE  H16S 5106   4.147   6.713  11.817 -1.6935  1.2414  1.2207
   40DOPE  C217 5107   4.038   6.546  11.872  0.6868  0.7594 -0.6658
   40DOPE  H17R 5108   4.136   6.493  11.869  1.1985  1.3347  2.3911
   40DOPE  H17S 5109   3.969   6.465  11.840  1.5922  0.4829 -2.0471
   40DOPE  C218 5110   4.008   6.592  12.020  0.4171  0.2255  0.8302
   40DOPE  H18R 5111   3.900   6.614  12.026  0.3558  0.4880 -0.8785
   40DOPE  H18S 5112   4.058   6.690  12.033  0.2825  0.8940 -2.7216
   40DOPE  H18T 5113   4.026   6.510  12.094 -1.5713 -2.1782 -1.1976
   40DOPE   C33 5114   4.727   7.252  10.955 -0.4508  0.2633  0.0320
   40DOPE   H3X 5115   4.735   7.218  11.060  2.9381 -1.5186 -0.6579
   40DOPE   H3Y 5116   4.671   7.181  10.891  0.0552 -1.2092  1.1617
   40DOPE   C34 5117   4.651   7.392  10.962 -0.3664 -0.0489 -0.5667
   40DOPE   H4X 5118   4.707   7.457  11.033  0.9241 -1.3303 -0.3507
   40DOPE   H4Y 5119   4.635   7.431  10.859 -1.9724  2.4073  0.5294
   40DOPE   C35 5120   4.504   7.382  11.007 -0.4375  0.5291  0.5186
   40DOPE   H5X 5121   4.498   7.335  11.108  1.0181 -1.9883 -0.4786
   40DOPE   H5Y 5122   4.450   7.311  10.941 -0.4004  1.0581 -0.0851
   40DOPE   C36 5123   4.437   7.522  10.998  0.0230 -0.0444 -1.1599
   40DOPE   H6X 5124   4.456   7.568  10.899  2.8037  1.4123 -0.0459
   40DOPE   H6Y 5125   4.480   7.592  11.073 -1.0800  0.7835 -1.2782
   40DOPE   C37 5126   4.291   7.512  11.046 -0.4455  0.7155 -0.3749
   40DOPE   H7X 5127   4.228   7.459  10.972  0.4556 -0.5761 -0.2547
   40DOPE   H7Y 5128   4.271   7.459  11.142  2.7395  1.2028  0.6660
   40DOPE   C38 5129   4.221   7.651  11.066 -0.6665  0.5259  0.3169
   40DOPE   H8X 5130   4.268   7.702  11.152  0.9481 -0.6805  0.2011
   40DOPE   H8Y 5131   4.118   7.638  11.107 -1.1290 -1.8192 -1.3338
   40DOPE   C39 5132   4.237   7.744  10.946  0.0766 -0.3589  0.2266
   40DOPE   H9X 5133   4.266   7.695  10.852  0.1912  1.7463 -0.8938
   40DOPE  C310 5134   4.215   7.875  10.943 -0.0666 -0.4570 -0.0877
   40DOPE  H10X 5135   4.232   7.922  10.846 -0.0360 -2.1101 -0.9251
   40DOPE  C311 5136   4.168   7.958  11.058 -0.5783  0.4683 -0.1783
   40DOPE  H11X 5137   4.221   7.920  11.148 -0.9811 -0.1258 -0.1892
   40DOPE  H11Y 5138   4.206   8.062  11.068  1.6707 -0.2199 -0.9092
   40DOPE  C312 5139   4.013   7.940  11.085  0.9757 -0.0389  0.1032
   40DOPE  H12X 5140   3.986   7.833  11.093  0.5069  0.0532 -0.2383
   40DOPE  H12Y 5141   3.957   7.968  10.994  0.8223  0.8395  0.4546
   40DOPE  C313 5142   3.960   8.036  11.192  0.0808 -0.3882  0.6777
   40DOPE  H13X 5143   3.982   8.139  11.156  0.0925 -0.5355  0.2586
   40DOPE  H13Y 5144   3.850   8.024  11.201 -0.0333 -0.7901 -0.9375
   40DOPE  C314 5145   4.020   8.035  11.330 -0.4268 -0.3185 -0.2676
   40DOPE  H14X 5146   4.127   8.065  11.326  0.4278 -3.1550 -1.3801
   40DOPE  H14Y 5147   4.002   7.935  11.376 -0.3524 -0.7248 -1.0999
   40DOPE  C315 5148   3.946   8.129  11.424  0.1390 -0.6749 -0.6161
   40DOPE  H15X 5149   3.836   8.130  11.412  0.3189 -0.9858 -2.7284
   40DOPE  H15Y 5150   3.979   8.232  11.399 -1.2598  0.1222  0.6786
   40DOPE  C316 5151   3.982   8.097  11.571 -0.5838  0.4849 -0.3431
   40DOPE  H16X 5152   4.093   8.094  11.581 -0.6078 -1.6698 -0.1770
   40DOPE  H16Y 5153   3.953   7.994  11.600 -0.0873  0.7073  0.9978
   40DOPE  C317 5154   3.921   8.187  11.680  0.3042  0.4171  0.1514
   40DOPE  H17X 5155   3.918   8.118  11.767 -1.3085  0.6033  0.2663
   40DOPE  H17Y 5156   3.993   8.272  11.691  2.0590 -1.0060  0.1910
   40DOPE  C318 5157   3.781   8.232  11.643  0.9816  0.1790 -0.1740
   40DOPE  H18X 5158   3.783   8.300  11.555 -2.1716 -1.9509 -2.0877
   40DOPE  H18Y 5159   3.705   8.153  11.629 -0.3686  1.3811  0.1768
   40DOPE  H18Z 5160   3.740   8.288  11.729 -1.4812 -1.8593  0.0838
   41DOPE     N 5161   3.636   7.206  10.373  0.2379 -0.2103 -0.3733
   41DOPE   HN1 5162   3.646   7.111  10.414  2.4542  1.0135  2.2283
   41DOPE   HN2 5163   3.709   7.225  10.302 -0.0489 -0.5354 -0.7570
   41DOPE   HN3 5164   3.663   7.267  10.453  1.2950 -2.3248  0.9919
   41DOPE   C12 5165   3.496   7.215  10.318  0.3404 -0.4821  0.1532
   41DOPE  H12A 5166   3.504   7.177  10.213 -0.3423  2.0187 -0.8860
   41DOPE  H12B 5167   3.477   7.324  10.307  2.0125 -0.1671  0.1201
   41DOPE   C11 5168   3.387   7.153  10.412 -0.9277 -0.9757  0.5734
   41DOPE  H11A 5169   3.296   7.188  10.359  0.6079  1.9418 -0.3363
   41DOPE  H11B 5170   3.378   7.195  10.514 -0.8568  0.1487  0.1284
   41DOPE     P 5171   3.483   6.939  10.526  0.3206 -0.1105  0.0104
   41DOPE   O13 5172   3.614   7.002  10.538  0.2557 -0.1508 -0.4283
   41DOPE   O14 5173   3.473   6.793  10.506 -0.2511 -0.3595 -0.2238
   41DOPE   O11 5174   3.408   6.970  10.665  0.0376 -0.2724 -0.1005
   41DOPE   O12 5175   3.398   7.010  10.417  0.7951  0.2053 -0.0153
   41DOPE    C1 5176   3.264   6.965  10.662 -0.1114 -0.1654  0.6209
   41DOPE    HA 5177   3.211   6.903  10.587  0.6589 -0.3023  0.1759
   41DOPE    HB 5178   3.213   7.062  10.646  2.5699  0.8661 -2.9250
   41DOPE    C2 5179   3.203   6.912  10.795 -0.2534 -0.0404  0.4397
   41DOPE    HS 5180   3.093   6.924  10.789 -0.5125 -2.2621 -0.1103
   41DOPE   O21 5181   3.264   6.985  10.902  0.4625  0.3505 -0.3902
   41DOPE   C21 5182   3.189   7.009  11.006 -0.2414  0.8708  0.5018
   41DOPE   O22 5183   3.070   6.989  11.017  0.0909 -0.3064  0.5933
   41DOPE   C22 5184   3.277   7.054  11.131  0.2729 -0.3638  0.5263
   41DOPE   H2R 5185   3.297   7.160  11.103 -1.4075  0.2540  1.4836
   41DOPE   H2S 5186   3.362   6.983  11.136  0.9981  0.1640 -2.4279
   41DOPE    C3 5187   3.230   6.762  10.810  0.6435  0.7627 -0.7677
   41DOPE    HX 5188   3.339   6.749  10.830  0.7362  1.3228 -0.9020
   41DOPE    HY 5189   3.207   6.712  10.713 -0.0518 -0.1888 -0.1238
   41DOPE   O31 5190   3.165   6.713  10.930  0.5072  0.0324  0.0538
   41DOPE   C31 5191   3.043   6.655  10.913 -0.2843 -0.6185 -0.2431
   41DOPE   O32 5192   2.985   6.648  10.807 -0.2632  0.0378  0.2154
   41DOPE   C32 5193   2.996   6.586  11.043  0.3775  0.8969 -0.2380
   41DOPE   H2X 5194   3.077   6.539  11.102  0.0586  0.5024 -0.1171
   41DOPE   H2Y 5195   2.936   6.659  11.101 -0.6246 -0.0793 -0.0105
   41DOPE   C23 5196   3.206   7.058  11.273 -0.0621  0.3549 -0.0799
   41DOPE   H3R 5197   3.122   7.131  11.282  0.3683  0.9852 -1.0065
   41DOPE   H3S 5198   3.285   7.092  11.343 -0.8458  1.3536  0.3673
   41DOPE   C24 5199   3.154   6.919  11.325  0.4050 -0.3026 -0.7516
   41DOPE   H4R 5200   3.223   6.840  11.289  0.4773 -0.9478  0.7422
   41DOPE   H4S 5201   3.065   6.909  11.259  0.0455 -1.4654 -0.1106
   41DOPE   C25 5202   3.134   6.915  11.476 -0.0871  1.0032  0.9414
   41DOPE   H5R 5203   3.054   6.987  11.501  0.7043  2.7183 -1.1078
   41DOPE   H5S 5204   3.226   6.956  11.523  1.2504  1.3568 -1.7499
   41DOPE   C26 5205   3.110   6.782  11.536 -0.8524 -0.2250 -0.4855
   41DOPE   H6R 5206   3.207   6.736  11.563 -0.1185  0.5840 -1.6523
   41DOPE   H6S 5207   3.058   6.720  11.459  0.2728 -0.3356 -1.1840
   41DOPE   C27 5208   3.020   6.800  11.658  0.1977 -0.9841  0.3404
   41DOPE   H7R 5209   3.025   6.701  11.708  0.2023 -0.9232  0.4609
   41DOPE   H7S 5210   2.919   6.829  11.624  1.6418  1.1952 -2.5386
   41DOPE   C28 5211   3.055   6.914  11.760  0.1122 -0.1016 -0.0751
   41DOPE   H8R 5212   2.968   6.922  11.828  0.6913 -0.1030  0.6788
   41DOPE   H8S 5213   3.060   7.016  11.717 -0.9254  0.7288  1.6645
   41DOPE   C29 5214   3.188   6.877  11.821  0.4118 -0.0784  0.2615
   41DOPE   H9R 5215   3.280   6.890  11.762  1.7487 -1.5290  1.8960
   41DOPE  C210 5216   3.212   6.841  11.948 -0.3292 -0.0058  0.2743
   41DOPE  H10R 5217   3.313   6.838  11.990 -0.3748 -0.4177  0.3554
   41DOPE  C211 5218   3.110   6.808  12.060 -0.1551 -0.4622  1.1192
   41DOPE  H11R 5219   3.159   6.726  12.116  0.4945 -1.2477 -0.5350
   41DOPE  H11S 5220   3.015   6.767  12.021  0.7687  1.1200 -3.5438
   41DOPE  C212 5221   3.093   6.938  12.141 -0.2625  0.2168 -0.1107
   41DOPE  H12R 5222   3.045   7.020  12.084 -1.1686  0.1393  0.5248
   41DOPE  H12S 5223   3.190   6.985  12.168  0.5275 -2.1489  1.5493
   41DOPE  C213 5224   3.023   6.917  12.273  0.0792  0.6236 -0.4254
   41DOPE  H13R 5225   3.022   7.015  12.326 -0.0995  0.3960 -0.0051
   41DOPE  H13S 5226   3.063   6.829  12.328  1.6272  0.1009 -2.3024
   41DOPE  C214 5227   2.871   6.879  12.248  0.2406 -0.2002  0.0956
   41DOPE  H14R 5228   2.854   6.772  12.221  4.6416 -1.6179  2.0831
   41DOPE  H14S 5229   2.816   6.936  12.171 -2.4317 -0.0495  1.9468
   41DOPE  C215 5230   2.779   6.890  12.375  0.5325 -0.3820 -0.2968
   41DOPE  H15R 5231   2.779   6.993  12.417  0.0121 -0.4682 -0.0837
   41DOPE  H15S 5232   2.827   6.824  12.451 -2.0015 -2.2044 -0.1414
   41DOPE  C216 5233   2.631   6.839  12.359 -0.2613  1.2464  0.4601
   41DOPE  H16R 5234   2.584   6.880  12.267  0.8306  0.6012 -0.4100
   41DOPE  H16S 5235   2.575   6.874  12.448  0.0542 -0.2843  1.2990
   41DOPE  C217 5236   2.621   6.684  12.357 -0.2215  0.0925 -0.0296
   41DOPE  H17R 5237   2.653   6.643  12.455 -0.3399  0.7581  0.2990
   41DOPE  H17S 5238   2.678   6.636  12.274  1.4812 -0.2177  1.2613
   41DOPE  C218 5239   2.477   6.627  12.341 -0.3872 -0.5133  0.2718
   41DOPE  H18R 5240   2.413   6.670  12.261 -1.9059 -0.1172  1.6454
   41DOPE  H18S 5241   2.426   6.635  12.440  0.3026 -0.9612  0.6693
   41DOPE  H18T 5242   2.477   6.519  12.313 -2.3797  0.1207 -2.5979
   41DOPE   C33 5243   2.889   6.476  11.018  0.3670 -0.2356 -0.1068
   41DOPE   H3X 5244   2.937   6.390  10.966 -1.1700 -0.9947 -0.3354
   41DOPE   H3Y 5245   2.809   6.503  10.945 -0.4688 -1.4511  0.3329
   41DOPE   C34 5246   2.813   6.432  11.150 -0.1736 -0.2695  0.0087
   41DOPE   H4X 5247   2.735   6.361  11.116 -0.4604 -0.9027  1.8602
   41DOPE   H4Y 5248   2.888   6.364  11.197  1.2878  0.0373 -1.7818
   41DOPE   C35 5249   2.748   6.542  11.238  0.0118 -0.1783  0.4500
   41DOPE   H5X 5250   2.659   6.582  11.185 -0.4783 -3.3094 -1.3488
   41DOPE   H5Y 5251   2.811   6.634  11.247  0.4974 -0.4874  0.2843
   41DOPE   C36 5252   2.693   6.493  11.370 -0.2281 -0.0474  0.2131
   41DOPE   H6X 5253   2.620   6.412  11.353 -1.8894  1.0418  1.8233
   41DOPE   H6Y 5254   2.635   6.569  11.427 -0.0856 -0.0309  0.3375
   41DOPE   C37 5255   2.806   6.464  11.469  0.4088  0.2548  0.2112
   41DOPE   H7X 5256   2.887   6.395  11.440 -0.3046 -1.0113  1.1587
   41DOPE   H7Y 5257   2.853   6.565  11.477 -0.0194  0.5126 -0.4185
   41DOPE   C38 5258   2.762   6.434  11.617  0.7697 -0.4869 -0.7303
   41DOPE   H8X 5259   2.714   6.529  11.648 -0.2449 -0.5009 -2.1326
   41DOPE   H8Y 5260   2.852   6.423  11.681 -1.0391 -1.1070  1.8526
   41DOPE   C39 5261   2.664   6.321  11.642  0.8642 -1.1021 -0.8397
   41DOPE   H9X 5262   2.574   6.320  11.580  1.0762 -0.6967 -1.1562
   41DOPE  C310 5263   2.688   6.223  11.727  0.4789 -0.4920 -0.3915
   41DOPE  H10X 5264   2.614   6.143  11.740 -0.6701  0.7143  0.9596
   41DOPE  C311 5265   2.804   6.219  11.832  0.3501  0.2317  0.5340
   41DOPE  H11X 5266   2.811   6.121  11.882  0.8091  0.5211  1.0390
   41DOPE  H11Y 5267   2.902   6.245  11.788  0.8107 -2.4664 -0.2158
   41DOPE  C312 5268   2.783   6.324  11.947 -0.1585  0.3420 -0.1372
   41DOPE  H12X 5269   2.684   6.303  11.993  0.7247  1.5416  2.5332
   41DOPE  H12Y 5270   2.791   6.427  11.908  0.7053  0.6012  0.7087
   41DOPE  C313 5271   2.887   6.300  12.057  0.1174 -0.1771 -0.6525
   41DOPE  H13X 5272   2.869   6.194  12.086 -1.8058  0.0378 -0.9784
   41DOPE  H13Y 5273   2.990   6.311  12.015  0.3457 -3.6650 -1.3683
   41DOPE  C314 5274   2.860   6.391  12.180 -0.1191 -0.0555 -1.0393
   41DOPE  H14X 5275   2.774   6.348  12.235 -0.3430 -2.3010 -2.9919
   41DOPE  H14Y 5276   2.824   6.491  12.146  0.2880  1.0762  1.6180
   41DOPE  C315 5277   2.981   6.406  12.262  0.6589  0.3218 -0.2456
   41DOPE  H15X 5278   2.985   6.508  12.305  0.9121  0.4388 -0.5362
   41DOPE  H15Y 5279   3.073   6.397  12.200  1.5995  0.9212  1.0339
   41DOPE  C316 5280   2.997   6.293  12.376 -0.0897  0.7146  0.0083
   41DOPE  H16X 5281   3.029   6.198  12.326  0.1167 -0.0490  1.5510
   41DOPE  H16Y 5282   2.911   6.275  12.443 -1.7889  0.1414 -2.1954
   41DOPE  C317 5283   3.090   6.340  12.485 -0.0599 -0.3008  0.2393
   41DOPE  H17X 5284   3.190   6.360  12.441 -0.2399 -1.2975 -0.6535
   41DOPE  H17Y 5285   3.043   6.429  12.533  0.8594 -0.3111  1.1945
   41DOPE  C318 5286   3.112   6.239  12.608  0.2459  0.1697  0.1649
   41DOPE  H18X 5287   3.167   6.153  12.564  0.2853  0.3995 -0.2395
   41DOPE  H18Y 5288   3.179   6.284  12.685  0.6292  0.9731 -0.6287
   41DOPE  H18Z 5289   3.011   6.218  12.649  0.2388  0.3853  0.2593
   42DOPE     N 5290   0.873   5.600  10.871 -0.6315 -0.0954 -0.3478
   42DOPE   HN1 5291   0.792   5.544  10.904 -1.9689  0.5372 -2.3654
   42DOPE   HN2 5292   0.954   5.577  10.933 -1.6848 -2.1357  0.3691
   42DOPE   HN3 5293   0.848   5.699  10.887 -2.5066 -0.3901 -1.2118
   42DOPE   C12 5294   0.909   5.563  10.732 -0.3148 -0.1730  0.2183
   42DOPE  H12A 5295   1.019   5.572  10.719 -0.2317 -1.1538  0.1699
   42DOPE  H12B 5296   0.865   5.638  10.663 -0.2868  0.2025  0.6100
   42DOPE   C11 5297   0.859   5.423  10.695  0.8617 -0.9165 -0.0439
   42DOPE  H11A 5298   0.920   5.345  10.746  3.1838  1.2636  0.7280
   42DOPE  H11B 5299   0.881   5.412  10.587  2.5488  0.9693  0.0435
   42DOPE     P 5300   0.624   5.314  10.667  0.0683  0.1822  0.1422
   42DOPE   O13 5301   0.652   5.171  10.701 -0.4177 -0.2264  0.2605
   42DOPE   O14 5302   0.599   5.348  10.526 -0.0735 -0.3497 -0.9254
   42DOPE   O11 5303   0.488   5.364  10.737 -0.5247  0.6584 -0.0589
   42DOPE   O12 5304   0.721   5.416  10.730  0.3363  0.1267  0.0087
   42DOPE    C1 5305   0.469   5.505  10.767  0.1648  0.1702  0.7939
   42DOPE    HA 5306   0.405   5.551  10.689  1.0451 -2.3684 -1.6410
   42DOPE    HB 5307   0.561   5.567  10.765  0.1956  0.1157  0.2192
   42DOPE    C2 5308   0.411   5.522  10.910 -0.5202 -0.2625  0.1507
   42DOPE    HS 5309   0.415   5.630  10.937  2.8838  0.0863 -1.1353
   42DOPE   O21 5310   0.466   5.427  11.000 -0.0886 -0.1225  0.5093
   42DOPE   C21 5311   0.587   5.444  11.043  0.6848 -0.1286 -0.0409
   42DOPE   O22 5312   0.652   5.544  11.019 -0.4636 -0.4661  0.4076
   42DOPE   C22 5313   0.627   5.322  11.123 -0.1106  0.3583 -0.6350
   42DOPE   H2R 5314   0.731   5.312  11.085  0.0578  1.8640 -0.6317
   42DOPE   H2S 5315   0.570   5.228  11.104  1.6024 -0.8423 -0.0735
   42DOPE    C3 5316   0.249   5.494  10.905 -0.0917 -0.2691 -0.2328
   42DOPE    HX 5317   0.232   5.417  10.826  2.0555  0.7938 -1.8383
   42DOPE    HY 5318   0.200   5.588  10.871  0.3797  0.3463  0.7561
   42DOPE   O31 5319   0.186   5.453  11.030 -0.1622  0.0216 -0.3503
   42DOPE   C31 5320   0.203   5.543  11.136  0.8766 -0.2926  0.7288
   42DOPE   O32 5321   0.235   5.659  11.125 -0.1583 -0.0427 -0.3097
   42DOPE   C32 5322   0.156   5.490  11.265  0.4765  0.2783 -0.7509
   42DOPE   H2X 5323   0.230   5.414  11.298 -0.1594 -0.5465 -1.2175
   42DOPE   H2Y 5324   0.146   5.572  11.340 -0.6017 -1.1017  0.6674
   42DOPE   C23 5325   0.652   5.365  11.271  0.5350 -0.3414  0.0726
   42DOPE   H3R 5326   0.670   5.269  11.323 -0.5526 -0.6197 -0.0226
   42DOPE   H3S 5327   0.559   5.409  11.314  0.0687 -1.3482  0.1329
   42DOPE   C24 5328   0.771   5.457  11.288 -0.1303  0.1016 -0.2675
   42DOPE   H4R 5329   0.738   5.556  11.250  1.7801  0.7242 -0.4398
   42DOPE   H4S 5330   0.860   5.430  11.227 -0.3587  0.1105 -0.6052
   42DOPE   C25 5331   0.816   5.462  11.431  0.2476 -0.2045  0.5173
   42DOPE   H5R 5332   0.734   5.501  11.494 -1.5786 -0.3072 -1.6797
   42DOPE   H5S 5333   0.902   5.532  11.438 -0.3462  0.6557 -0.5006
   42DOPE   C26 5334   0.872   5.328  11.495  0.2954  0.0417  0.2528
   42DOPE   H6R 5335   0.924   5.275  11.413 -1.2191 -0.5076 -0.3877
   42DOPE   H6S 5336   0.791   5.257  11.524 -0.2424  0.5646  0.0431
   42DOPE   C27 5337   0.988   5.345  11.595  0.8709 -0.3093  0.9522
   42DOPE   H7R 5338   0.944   5.415  11.669 -0.0416  0.4150 -0.2260
   42DOPE   H7S 5339   1.071   5.400  11.546  0.8284 -0.2367  0.9600
   42DOPE   C28 5340   1.045   5.224  11.669  0.2201 -0.2780  0.6411
   42DOPE   H8R 5341   0.971   5.187  11.744 -0.2697  2.3946  1.6017
   42DOPE   H8S 5342   1.123   5.259  11.740  0.0333 -2.0422  1.7979
   42DOPE   C29 5343   1.102   5.126  11.570 -0.2400 -0.4166  0.4750
   42DOPE   H9R 5344   1.208   5.131  11.540  0.0209 -1.3215  1.2172
   42DOPE  C210 5345   1.032   5.021  11.518  0.6150  0.1330  0.4911
   42DOPE  H10R 5346   1.086   4.945  11.459  1.3417  0.4403  0.7580
   42DOPE  C211 5347   0.885   4.990  11.542 -0.0411 -0.3243 -0.6192
   42DOPE  H11R 5348   0.829   4.995  11.446  1.0244  3.0752 -1.1809
   42DOPE  H11S 5349   0.835   5.057  11.615 -0.8308 -3.1087  1.5941
   42DOPE  C212 5350   0.853   4.852  11.604  0.5791 -0.0626 -0.0000
   42DOPE  H12R 5351   0.743   4.852  11.616  0.4472  1.8886 -0.8642
   42DOPE  H12S 5352   0.905   4.847  11.702  0.5280  2.2130  0.1896
   42DOPE  C213 5353   0.878   4.742  11.500  0.0616 -0.2534 -0.1681
   42DOPE  H13R 5354   0.980   4.743  11.456 -0.4047 -3.4066 -1.5878
   42DOPE  H13S 5355   0.805   4.773  11.422 -1.9140  0.0163  1.6789
   42DOPE  C214 5356   0.855   4.612  11.566 -0.0870 -0.0086  0.2329
   42DOPE  H14R 5357   0.748   4.606  11.595 -0.1427 -0.1356 -0.0009
   42DOPE  H14S 5358   0.919   4.610  11.657  1.0022  2.1603 -0.4059
   42DOPE  C215 5359   0.877   4.499  11.475  0.3103 -0.2536 -0.1946
   42DOPE  H15R 5360   0.836   4.526  11.376  0.7858  1.6535  0.0890
   42DOPE  H15S 5361   0.815   4.421  11.525 -3.0068  1.8506 -0.7267
   42DOPE  C216 5362   1.023   4.452  11.461 -0.7812 -0.6590 -0.1349
   42DOPE  H16R 5363   1.071   4.539  11.412 -2.1217  0.5193  0.5598
   42DOPE  H16S 5364   1.043   4.372  11.387  0.7346 -0.6655  0.2442
   42DOPE  C217 5365   1.120   4.439  11.585  0.5376 -0.0325  0.2516
   42DOPE  H17R 5366   1.122   4.532  11.646  1.4709 -0.5614  1.0676
   42DOPE  H17S 5367   1.222   4.417  11.545 -0.2149 -1.0132 -1.2067
   42DOPE  C218 5368   1.074   4.324  11.674  0.6074  0.3509 -0.7430
   42DOPE  H18R 5369   0.966   4.314  11.695 -0.0111  1.4354 -3.1483
   42DOPE  H18S 5370   1.116   4.352  11.773  0.9175  0.9758 -1.0443
   42DOPE  H18T 5371   1.116   4.226  11.644 -0.2947 -0.9085  1.8065
   42DOPE   C33 5372   0.014   5.430  11.273  0.4788 -0.7907  0.4949
   42DOPE   H3X 5373  -0.009   5.390  11.173  0.2035 -0.5882  0.4739
   42DOPE   H3Y 5374  -0.051   5.518  11.294 -0.2053 -1.3734  0.8541
   42DOPE   C34 5375   0.000   5.320  11.379 -0.4319 -0.2590 -0.4984
   42DOPE   H4X 5376   0.068   5.234  11.360  1.3461  0.0485  3.5071
   42DOPE   H4Y 5377   0.043   5.367  11.470 -1.9016  1.9922 -0.8877
   42DOPE   C35 5378  -0.137   5.262  11.398  0.3417  0.0178 -0.0589
   42DOPE   H5X 5379  -0.146   5.178  11.326  2.7800 -0.8445  0.5664
   42DOPE   H5Y 5380  -0.204   5.345  11.367 -1.3444 -1.5501 -0.8164
   42DOPE   C36 5381  -0.170   5.214  11.536 -0.2627  0.3418 -0.4053
   42DOPE   H6X 5382  -0.083   5.202  11.604  0.2001  0.5525 -0.9546
   42DOPE   H6Y 5383  -0.222   5.117  11.524 -0.8942  0.6927 -0.5920
   42DOPE   C37 5384  -0.273   5.309  11.609  0.5057 -0.4060  0.6272
   42DOPE   H7X 5385  -0.216   5.404  11.616  0.0802  0.0083 -1.1011
   42DOPE   H7Y 5386  -0.366   5.327  11.550  1.1052 -0.3743 -0.3303
   42DOPE   C38 5387  -0.322   5.248  11.734 -0.1342  0.1849  0.0275
   42DOPE   H8X 5388  -0.239   5.255  11.807  0.1686 -2.0103 -0.0195
   42DOPE   H8Y 5389  -0.344   5.140  11.718  0.9648  0.2329 -2.2963
   42DOPE   C39 5390  -0.453   5.303  11.787 -0.3639 -0.6963 -0.6445
   42DOPE   H9X 5391  -0.547   5.247  11.773 -0.1114 -2.1898  2.6007
   42DOPE  C310 5392  -0.458   5.416  11.865  0.2433 -0.2176 -0.0180
   42DOPE  H10X 5393  -0.557   5.448  11.901 -1.5943 -2.9541 -2.1316
   42DOPE  C311 5394  -0.346   5.500  11.917  0.0477  0.3408  0.2837
   42DOPE  H11X 5395  -0.253   5.482  11.860  1.0761  0.1996  1.9318
   42DOPE  H11Y 5396  -0.375   5.603  11.889 -2.9427 -0.7354 -0.9973
   42DOPE  C312 5397  -0.309   5.503  12.066 -0.4803 -0.7165  0.5604
   42DOPE  H12X 5398  -0.396   5.511  12.135 -0.9717  0.2887 -0.1562
   42DOPE  H12Y 5399  -0.250   5.597  12.076  1.0415 -1.2933 -2.2137
   42DOPE  C313 5400  -0.222   5.388  12.127  0.3047  0.1942  0.0353
   42DOPE  H13X 5401  -0.222   5.400  12.237  1.5353  4.0934 -0.2438
   42DOPE  H13Y 5402  -0.268   5.290  12.103 -0.0310  0.7026 -1.4827
   42DOPE  C314 5403  -0.074   5.394  12.075 -0.0840  0.0628 -0.1409
   42DOPE  H14X 5404  -0.041   5.499  12.093  0.7208  0.0805 -1.5722
   42DOPE  H14Y 5405  -0.084   5.379  11.965 -2.2511 -0.4913  0.0797
   42DOPE  C315 5406   0.026   5.293  12.124  0.0274 -0.8211  0.2758
   42DOPE  H15X 5407   0.030   5.203  12.058  0.6775  0.3403 -1.3204
   42DOPE  H15Y 5408  -0.008   5.263  12.226 -0.7672 -1.0995 -0.0671
   42DOPE  C316 5409   0.167   5.349  12.144 -0.1033  0.6180  0.7412
   42DOPE  H16X 5410   0.164   5.425  12.226  1.4321  0.0580  1.3556
   42DOPE  H16Y 5411   0.213   5.399  12.056  1.5078  0.5319  1.5000
   42DOPE  C317 5412   0.262   5.227  12.185  0.0509 -0.3065  0.0337
   42DOPE  H17X 5413   0.251   5.149  12.107 -0.3475  1.4852 -1.7716
   42DOPE  H17Y 5414   0.366   5.264  12.172  0.2381 -1.1223 -0.8828
   42DOPE  C318 5415   0.249   5.179  12.324  0.0893 -0.3449 -0.2803
   42DOPE  H18X 5416   0.249   5.261  12.400 -1.0052  0.4087 -1.0502
   42DOPE  H18Y 5417   0.153   5.128  12.349  0.3896 -0.1150  1.4527
   42DOPE  H18Z 5418   0.332   5.111  12.350  0.4640  0.3839  0.4900
   43DOPE     N 5419   1.343   3.774  10.706 -0.4607  0.4523 -0.2777
   43DOPE   HN1 5420   1.364   3.679  10.670  0.8159 -0.2179  2.0677
   43DOPE   HN2 5421   1.286   3.759  10.791  1.1730 -2.6662  0.3897
   43DOPE   HN3 5422   1.295   3.830  10.632  0.9915  0.8126 -0.9890
   43DOPE   C12 5423   1.469   3.847  10.744  0.2926  0.1266 -0.5963
   43DOPE  H12A 5424   1.479   3.828  10.852 -0.1901  0.2686 -0.5240
   43DOPE  H12B 5425   1.457   3.957  10.734 -0.0544  0.2058  0.6035
   43DOPE   C11 5426   1.586   3.797  10.658  0.6307  0.2187  0.8052
   43DOPE  H11A 5427   1.674   3.865  10.668  0.2842  0.6265  1.1614
   43DOPE  H11B 5428   1.547   3.803  10.554 -1.2301 -1.0424  1.3903
   43DOPE     P 5429   1.735   3.574  10.652 -0.0665  0.4589  0.1070
   43DOPE   O13 5430   1.753   3.590  10.505 -0.7578 -0.1167  0.3968
   43DOPE   O14 5431   1.717   3.441  10.712 -0.0490 -0.1964 -0.2014
   43DOPE   O11 5432   1.850   3.651  10.729  0.0249  0.5948  0.6142
   43DOPE   O12 5433   1.608   3.659  10.688  0.0328 -0.0311 -0.3818
   43DOPE    C1 5434   1.879   3.630  10.871 -0.4344 -0.2199  0.3085
   43DOPE    HA 5435   1.986   3.655  10.891 -0.7175  0.9605  0.4133
   43DOPE    HB 5436   1.861   3.522  10.890  1.2629 -0.9381 -1.8088
   43DOPE    C2 5437   1.803   3.722  10.965 -0.5897  0.1886 -0.1394
   43DOPE    HS 5438   1.694   3.707  10.947 -0.3857 -0.2168 -1.1345
   43DOPE   O21 5439   1.860   3.848  10.946  0.0164  0.0346  0.0693
   43DOPE   C21 5440   1.779   3.950  10.985 -0.0995 -0.1441  0.5324
   43DOPE   O22 5441   1.660   3.944  10.996 -0.1430 -0.5382 -0.5320
   43DOPE   C22 5442   1.859   4.073  10.987  1.0347  0.4272  0.5355
   43DOPE   H2R 5443   1.840   4.123  10.890 -0.4113 -0.8761  0.0943
   43DOPE   H2S 5444   1.964   4.040  11.003  0.1786 -2.1020  1.5670
   43DOPE    C3 5445   1.824   3.670  11.109  0.2533 -0.0577  0.3397
   43DOPE    HX 5446   1.932   3.689  11.127  0.0144 -0.4517  2.3866
   43DOPE    HY 5447   1.804   3.561  11.116  3.1222 -0.7306 -0.5892
   43DOPE   O31 5448   1.764   3.747  11.218  0.2552  0.1756 -0.1015
   43DOPE   C31 5449   1.638   3.730  11.237 -0.2051 -0.2240  0.5639
   43DOPE   O32 5450   1.572   3.652  11.180  0.6983  0.1784 -0.4420
   43DOPE   C32 5451   1.594   3.849  11.337 -0.6391  0.1965  0.4777
   43DOPE   H2X 5452   1.632   3.819  11.437  0.9092 -1.2110 -0.4721
   43DOPE   H2Y 5453   1.644   3.942  11.305  0.2704 -0.2286  0.6239
   43DOPE   C23 5454   1.821   4.170  11.102  0.0947  0.2905  0.0172
   43DOPE   H3R 5455   1.713   4.194  11.107 -0.0592 -0.5781  1.2155
   43DOPE   H3S 5456   1.870   4.264  11.068  0.1557  1.6460  3.4499
   43DOPE   C24 5457   1.863   4.124  11.234 -0.6521  0.2223  0.9374
   43DOPE   H4R 5458   1.973   4.133  11.232 -0.6877  0.7503 -1.6136
   43DOPE   H4S 5459   1.842   4.021  11.268  0.9015 -0.6342 -0.5417
   43DOPE   C25 5460   1.811   4.211  11.347  0.1514 -0.4663  0.3529
   43DOPE   H5R 5461   1.837   4.158  11.441 -0.5373 -1.0890  0.2067
   43DOPE   H5S 5462   1.701   4.208  11.334  0.2965 -0.7625 -0.9659
   43DOPE   C26 5463   1.861   4.356  11.358  0.5616  0.1658  0.1844
   43DOPE   H6R 5464   1.814   4.393  11.451  0.5771  0.1597  0.1950
   43DOPE   H6S 5465   1.833   4.413  11.267 -0.2289 -1.9454 -0.9586
   43DOPE   C27 5466   2.016   4.385  11.370  0.0868  0.5421 -0.2064
   43DOPE   H7R 5467   2.056   4.371  11.268  0.3277  0.1210 -0.0542
   43DOPE   H7S 5468   2.055   4.316  11.448  0.9097  2.0173  0.7426
   43DOPE   C28 5469   2.056   4.523  11.431 -0.8257 -0.2198  0.1545
   43DOPE   H8R 5470   2.010   4.599  11.365 -0.2752 -0.2916 -0.3167
   43DOPE   H8S 5471   2.165   4.525  11.410 -0.7725 -1.3004  0.3007
   43DOPE   C29 5472   2.026   4.541  11.581  0.1625 -0.7152 -0.0768
   43DOPE   H9R 5473   1.920   4.550  11.609  0.4657  0.2671  0.8461
   43DOPE  C210 5474   2.119   4.577  11.678  0.1694  0.3572  0.4257
   43DOPE  H10R 5475   2.085   4.580  11.782  0.0010 -1.2205  0.4377
   43DOPE  C211 5476   2.266   4.585  11.640  0.4218 -0.2870  0.3745
   43DOPE  H11R 5477   2.271   4.669  11.568  0.9882 -0.3726  0.3096
   43DOPE  H11S 5478   2.309   4.496  11.588  3.2113  1.8155 -1.2238
   43DOPE  C212 5479   2.356   4.619  11.761  0.0282 -0.3345 -0.3768
   43DOPE  H12R 5480   2.323   4.718  11.797  0.4408 -0.0980 -0.6442
   43DOPE  H12S 5481   2.460   4.628  11.722 -0.3781  1.2217 -1.2029
   43DOPE  C213 5482   2.353   4.533  11.887 -0.0343  0.1339 -0.1694
   43DOPE  H13R 5483   2.379   4.431  11.854 -2.2234  0.4186 -3.1285
   43DOPE  H13S 5484   2.248   4.537  11.924 -0.2910 -0.5721 -0.8090
   43DOPE  C214 5485   2.440   4.579  12.009 -0.2604  0.2285  0.1605
   43DOPE  H14R 5486   2.414   4.686  12.024  0.1385  0.2004  1.1534
   43DOPE  H14S 5487   2.545   4.576  11.974 -0.3390  1.1569 -0.1900
   43DOPE  C215 5488   2.413   4.510  12.136  0.1721  0.0352  0.9118
   43DOPE  H15R 5489   2.412   4.399  12.131 -1.3777 -0.0101  1.4136
   43DOPE  H15S 5490   2.308   4.535  12.164 -0.2096 -0.2547 -0.1915
   43DOPE  C216 5491   2.515   4.551  12.239  0.7749 -0.2565 -0.4493
   43DOPE  H16R 5492   2.530   4.661  12.241 -2.0959  0.2056  0.2368
   43DOPE  H16S 5493   2.616   4.518  12.207  0.8089  0.5302 -1.1652
   43DOPE  C217 5494   2.481   4.500  12.376  0.6568 -0.4815 -0.7715
   43DOPE  H17R 5495   2.381   4.525  12.418  0.8682  1.5627 -1.3739
   43DOPE  H17S 5496   2.551   4.546  12.450 -1.0510  1.1980 -0.1139
   43DOPE  C218 5497   2.486   4.349  12.396 -0.3202 -0.4407  0.2505
   43DOPE  H18R 5498   2.465   4.337  12.504  0.4628  2.8433  0.8592
   43DOPE  H18S 5499   2.581   4.293  12.380 -0.4637 -0.5485 -0.2542
   43DOPE  H18T 5500   2.405   4.292  12.345 -1.5972  0.7411  0.9156
   43DOPE   C33 5501   1.442   3.872  11.334  0.0727  0.3794 -0.4689
   43DOPE   H3X 5502   1.400   3.771  11.319  2.4190 -0.4992 -1.4997
   43DOPE   H3Y 5503   1.421   3.941  11.250  2.0874  1.8077  0.1263
   43DOPE   C34 5504   1.389   3.937  11.467 -0.0490 -0.1665  1.0246
   43DOPE   H4X 5505   1.417   3.873  11.553 -0.1560  0.5237  1.5922
   43DOPE   H4Y 5506   1.441   4.034  11.485  1.4284 -0.7474  0.0446
   43DOPE   C35 5507   1.235   3.955  11.477  0.0974 -0.9267  0.5036
   43DOPE   H5X 5508   1.188   4.036  11.416 -0.2779 -1.7357 -0.2932
   43DOPE   H5Y 5509   1.221   3.989  11.582  1.0259  1.2321 -0.0035
   43DOPE   C36 5510   1.161   3.828  11.468  0.3525  0.5288 -0.4319
   43DOPE   H6X 5511   1.212   3.772  11.548 -1.7483  2.0023  2.0815
   43DOPE   H6Y 5512   1.170   3.775  11.371 -1.3599 -1.6178  0.5134
   43DOPE   C37 5513   1.011   3.841  11.506 -0.3039 -0.4157 -0.1498
   43DOPE   H7X 5514   0.999   3.931  11.569  0.9461  0.2601 -0.8223
   43DOPE   H7Y 5515   0.953   3.867  11.414 -0.6237  1.0511  0.4384
   43DOPE   C38 5516   0.955   3.729  11.597  0.5577 -0.5854  0.2853
   43DOPE   H8X 5517   0.846   3.751  11.606  0.2553 -1.0118 -1.7090
   43DOPE   H8Y 5518   1.015   3.710  11.688  1.3781  0.0684 -0.1145
   43DOPE   C39 5519   0.951   3.600  11.517 -0.6559 -0.1429 -0.2461
   43DOPE   H9X 5520   0.956   3.618  11.408 -1.3863  0.8632 -0.1195
   43DOPE  C310 5521   0.960   3.476  11.569 -0.0665  0.0579  0.5061
   43DOPE  H10X 5522   0.959   3.389  11.502 -0.8539  0.4934 -0.0676
   43DOPE  C311 5523   0.933   3.449  11.713 -0.4886 -0.3006  0.3376
   43DOPE  H11X 5524   0.977   3.353  11.746  1.5736  0.6049  0.3733
   43DOPE  H11Y 5525   0.981   3.527  11.775 -0.5698 -0.3037  0.4050
   43DOPE  C312 5526   0.782   3.455  11.734  0.2430  0.1261  0.0711
   43DOPE  H12X 5527   0.726   3.386  11.667  2.8971 -0.4079 -1.7961
   43DOPE  H12Y 5528   0.740   3.556  11.718  0.9190  0.4299  0.2070
   43DOPE  C313 5529   0.752   3.422  11.885  0.9412  0.3099 -0.1095
   43DOPE  H13X 5530   0.791   3.321  11.910  3.2630  0.8576 -1.2298
   43DOPE  H13Y 5531   0.814   3.494  11.944  3.0332 -1.0877 -0.4832
   43DOPE  C314 5532   0.603   3.419  11.908 -0.4191  0.7641 -0.5218
   43DOPE  H14X 5533   0.557   3.330  11.861  1.2980 -0.1270 -0.5884
   43DOPE  H14Y 5534   0.555   3.509  11.862  0.1893  0.4003 -1.9346
   43DOPE  C315 5535   0.571   3.444  12.062  0.2271 -0.1803  0.8856
   43DOPE  H15X 5536   0.622   3.535  12.099  0.5859 -0.4546  1.0675
   43DOPE  H15Y 5537   0.604   3.353  12.116  1.1498 -1.0195 -0.9704
   43DOPE  C316 5538   0.421   3.454  12.083  0.3743 -0.3258 -0.1812
   43DOPE  H16X 5539   0.376   3.374  12.019  0.7959  1.3495 -2.7169
   43DOPE  H16Y 5540   0.378   3.552  12.055  0.3909 -0.1175  0.4982
   43DOPE  C317 5541   0.360   3.425  12.221  0.3361  0.1167  0.5271
   43DOPE  H17X 5542   0.250   3.409  12.216  0.4434 -0.3391 -0.8536
   43DOPE  H17Y 5543   0.404   3.333  12.267 -1.4518 -1.5043 -0.8707
   43DOPE  C318 5544   0.393   3.544  12.313  0.2101  0.0329 -0.4700
   43DOPE  H18X 5545   0.502   3.561  12.298  0.1999  0.1110 -0.4535
   43DOPE  H18Y 5546   0.330   3.631  12.284 -1.1432 -0.9530 -0.5713
   43DOPE  H18Z 5547   0.367   3.513  12.417  1.7170  0.2860  0.0078
   44DOPE     N 5548   3.573   1.418  10.614  0.1173 -0.6839  0.0939
   44DOPE   HN1 5549   3.554   1.324  10.655 -1.3256 -0.0792  0.8745
   44DOPE   HN2 5550   3.510   1.433  10.533  1.0687  1.4941 -0.3096
   44DOPE   HN3 5551   3.669   1.413  10.576  0.1913  0.5961  0.0941
   44DOPE   C12 5552   3.546   1.530  10.707  0.0090  0.2070  0.3360
   44DOPE  H12A 5553   3.615   1.611  10.676 -2.6064  2.0824 -0.9693
   44DOPE  H12B 5554   3.577   1.514  10.812  2.8288 -0.0142 -0.4640
   44DOPE   C11 5555   3.405   1.586  10.690 -0.7580  0.0770  0.7936
   44DOPE  H11A 5556   3.405   1.672  10.760  2.5646  0.9298 -0.0822
   44DOPE  H11B 5557   3.327   1.514  10.722 -1.4670  0.5277  0.1124
   44DOPE     P 5558   3.255   1.608  10.477 -0.2288 -0.3014 -0.2559
   44DOPE   O13 5559   3.293   1.593  10.334  0.5129  0.1453 -0.3277
   44DOPE   O14 5560   3.157   1.713  10.517 -0.0456 -0.4954  0.1265
   44DOPE   O11 5561   3.203   1.469  10.529 -0.1883  0.2604 -0.4282
   44DOPE   O12 5562   3.389   1.632  10.554 -0.4895  0.2787 -0.3613
   44DOPE    C1 5563   3.070   1.438  10.541  0.4412  0.4227  0.1937
   44DOPE    HA 5564   3.041   1.352  10.476 -0.2708  0.4901  0.4110
   44DOPE    HB 5565   3.004   1.519  10.503 -0.4640 -1.3071 -2.2133
   44DOPE    C2 5566   3.047   1.382  10.686 -0.1497 -0.5173  0.1278
   44DOPE    HS 5567   2.945   1.342  10.704 -0.5959  0.7322  0.5062
   44DOPE   O21 5568   3.088   1.482  10.787  0.0726  0.1680 -0.0225
   44DOPE   C21 5569   3.016   1.594  10.787  0.1952  0.5366  0.8644
   44DOPE   O22 5570   2.911   1.608  10.724  0.5202 -0.2737  0.3051
   44DOPE   C22 5571   3.087   1.699  10.881  0.4052  0.8146  0.4455
   44DOPE   H2R 5572   3.175   1.737  10.824 -0.3077  3.7448  1.1655
   44DOPE   H2S 5573   3.117   1.653  10.977 -0.6008 -0.1081  0.3370
   44DOPE    C3 5574   3.139   1.260  10.713 -0.8463  0.1781  0.6145
   44DOPE    HX 5575   3.247   1.281  10.695 -0.4508 -0.9600  1.4982
   44DOPE    HY 5576   3.115   1.185  10.634  0.7980 -0.6255  0.8310
   44DOPE   O31 5577   3.112   1.203  10.844 -0.4687 -0.1696  0.3522
   44DOPE   C31 5578   3.214   1.146  10.904 -0.3960 -0.2993  0.2275
   44DOPE   O32 5579   3.319   1.122  10.853  0.0232 -0.1512  0.1259
   44DOPE   C32 5580   3.173   1.107  11.049  0.8071 -0.2060 -0.2152
   44DOPE   H2X 5581   3.063   1.090  11.057  0.7017  0.8461  1.1624
   44DOPE   H2Y 5582   3.234   1.019  11.078  1.8854  0.5768 -0.0431
   44DOPE   C23 5583   2.992   1.817  10.917 -0.5142 -0.0720 -0.1626
   44DOPE   H3R 5584   2.901   1.775  10.966 -0.5341  0.7803  0.5659
   44DOPE   H3S 5585   2.962   1.877  10.829  0.2948 -0.8793 -1.0034
   44DOPE   C24 5586   3.058   1.916  11.021  0.5710 -0.2150  0.2720
   44DOPE   H4R 5587   3.000   2.011  11.008 -0.1500 -0.8996 -2.1163
   44DOPE   H4S 5588   3.163   1.941  10.995  1.2157 -2.7887  0.1895
   44DOPE   C25 5589   3.039   1.867  11.166  0.0407 -0.1449  0.1458
   44DOPE   H5R 5590   3.040   1.756  11.156  0.0728 -0.0283 -1.4700
   44DOPE   H5S 5591   2.943   1.895  11.215  0.3586  0.6857  0.3037
   44DOPE   C26 5592   3.140   1.922  11.261  0.2506 -0.5064  0.2696
   44DOPE   H6R 5593   3.242   1.898  11.223 -0.6865 -2.6271 -1.0433
   44DOPE   H6S 5594   3.138   1.867  11.358  1.1072  0.3705  0.8081
   44DOPE   C27 5595   3.116   2.069  11.298  0.1316 -0.5652 -0.3437
   44DOPE   H7R 5596   3.009   2.079  11.324  0.1375  1.7401 -1.0133
   44DOPE   H7S 5597   3.128   2.140  11.214 -2.3303  2.2080  1.4417
   44DOPE   C28 5598   3.193   2.123  11.411 -0.0703 -0.5323  0.4747
   44DOPE   H8R 5599   3.299   2.094  11.394 -0.0714 -0.7167  0.7663
   44DOPE   H8S 5600   3.166   2.066  11.502 -0.1621 -1.0182  0.1485
   44DOPE   C29 5601   3.183   2.267  11.434 -0.3039 -0.9198 -0.4958
   44DOPE   H9R 5602   3.243   2.330  11.367 -0.5602  1.7722  1.6121
   44DOPE  C210 5603   3.084   2.338  11.499  0.5584  0.7568 -0.0648
   44DOPE  H10R 5604   3.081   2.448  11.500 -1.3205  0.7305  0.3166
   44DOPE  C211 5605   2.966   2.273  11.570  0.1808  0.2143 -0.5691
   44DOPE  H11R 5606   2.962   2.171  11.526  0.6739  0.4910 -1.2780
   44DOPE  H11S 5607   2.867   2.318  11.547 -0.6096 -0.3783  1.4302
   44DOPE  C212 5608   2.986   2.254  11.732  0.6582  0.1510 -0.3309
   44DOPE  H12R 5609   3.086   2.213  11.758 -0.1716 -1.5106  0.3636
   44DOPE  H12S 5610   2.907   2.187  11.773 -0.4365  0.7851 -1.3294
   44DOPE  C213 5611   2.979   2.384  11.805  0.3147 -0.6593  0.8962
   44DOPE  H13R 5612   2.884   2.439  11.790  0.4422 -0.7344 -0.2260
   44DOPE  H13S 5613   3.052   2.456  11.763 -1.6174  0.1746 -1.2165
   44DOPE  C214 5614   2.993   2.377  11.957 -0.4636 -0.3638 -0.7796
   44DOPE  H14R 5615   3.092   2.329  11.974 -0.1539  0.5774  0.1669
   44DOPE  H14S 5616   2.921   2.311  12.009 -0.1942 -0.8211 -0.9738
   44DOPE  C215 5617   2.978   2.520  12.016 -0.6159 -0.0707 -0.8959
   44DOPE  H15R 5618   2.876   2.563  12.020 -1.0176 -0.9884 -0.9990
   44DOPE  H15S 5619   3.029   2.588  11.945 -0.3432  0.0959 -0.5446
   44DOPE  C216 5620   3.044   2.522  12.164  0.6271 -1.4955  0.8478
   44DOPE  H16R 5621   3.019   2.622  12.206 -0.6062 -1.3640 -0.1477
   44DOPE  H16S 5622   3.155   2.514  12.159  0.5825 -1.4195 -1.5952
   44DOPE  C217 5623   2.982   2.428  12.272  0.0090 -0.4921  0.1902
   44DOPE  H17R 5624   2.976   2.331  12.219 -1.1392 -0.4738  0.2568
   44DOPE  H17S 5625   2.877   2.449  12.301  0.0911 -2.9544  2.6293
   44DOPE  C218 5626   3.077   2.400  12.388  0.5569  0.3174  0.2280
   44DOPE  H18R 5627   3.088   2.496  12.443  3.6313  0.8378 -1.0622
   44DOPE  H18S 5628   3.181   2.380  12.353 -0.3084 -1.9233 -1.2604
   44DOPE  H18T 5629   3.030   2.317  12.445 -0.4577 -0.1557 -1.2518
   44DOPE   C33 5630   3.207   1.219  11.151  0.3567 -0.0787 -0.4566
   44DOPE   H3X 5631   3.142   1.308  11.138 -1.9348 -1.3059  1.7290
   44DOPE   H3Y 5632   3.312   1.247  11.130 -0.0460  2.4915  0.6057
   44DOPE   C34 5633   3.189   1.175  11.299 -0.8979 -0.1918  0.2230
   44DOPE   H4X 5634   3.083   1.149  11.322  0.0081 -1.9003  3.0096
   44DOPE   H4Y 5635   3.256   1.088  11.315  0.8090  0.9236 -0.6774
   44DOPE   C35 5636   3.231   1.282  11.408  0.5830  0.9854  0.3984
   44DOPE   H5X 5637   3.135   1.334  11.431 -0.9599 -0.9783 -1.2563
   44DOPE   H5Y 5638   3.296   1.358  11.360  1.0630 -0.4012 -1.2274
   44DOPE   C36 5639   3.283   1.238  11.547 -0.7809 -0.4246  0.7124
   44DOPE   H6X 5640   3.301   1.328  11.610  0.0024  0.5481 -0.8512
   44DOPE   H6Y 5641   3.376   1.179  11.531  0.5724  1.5485  1.0091
   44DOPE   C37 5642   3.179   1.157  11.622  0.4046 -0.7757 -0.5793
   44DOPE   H7X 5643   3.144   1.067  11.568  0.8537 -0.1171 -2.0282
   44DOPE   H7Y 5644   3.238   1.124  11.711 -0.5385 -0.1882  0.2848
   44DOPE   C38 5645   3.054   1.227  11.680  0.5480 -0.1800  0.0159
   44DOPE   H8X 5646   3.006   1.252  11.583 -0.0021  0.3878  0.4250
   44DOPE   H8Y 5647   3.075   1.326  11.728 -0.8197  0.4516 -0.6296
   44DOPE   C39 5648   2.952   1.142  11.753  0.3200 -0.2570 -0.3114
   44DOPE   H9X 5649   2.996   1.057  11.808  2.5215  0.6726 -0.5272
   44DOPE  C310 5650   2.818   1.162  11.764 -0.0239  0.1739  0.1487
   44DOPE  H10X 5651   2.769   1.093  11.835  1.8685 -0.4835  0.8797
   44DOPE  C311 5652   2.735   1.278  11.711  0.1949 -0.7453 -0.0135
   44DOPE  H11X 5653   2.797   1.336  11.640  1.0274 -0.0896  1.2100
   44DOPE  H11Y 5654   2.640   1.251  11.661 -0.3223 -0.4973  0.8065
   44DOPE  C312 5655   2.708   1.378  11.826  0.2800 -0.5483  0.3641
   44DOPE  H12X 5656   2.620   1.346  11.885 -0.2924  0.3445  0.0182
   44DOPE  H12Y 5657   2.684   1.475  11.777  0.4323  0.0457  1.4340
   44DOPE  C313 5658   2.826   1.402  11.918 -0.1144 -0.9470 -0.1552
   44DOPE  H13X 5659   2.819   1.309  11.979 -3.7577 -1.5028 -1.1803
   44DOPE  H13Y 5660   2.926   1.416  11.873  0.6589 -0.0026  1.7211
   44DOPE  C314 5661   2.797   1.531  12.008 -0.0278 -0.2110  0.4057
   44DOPE  H14X 5662   2.691   1.554  12.030 -0.3128  1.2735 -2.0498
   44DOPE  H14Y 5663   2.838   1.614  11.945 -2.3621  1.5550  1.1045
   44DOPE  C315 5664   2.871   1.523  12.142  0.4399  0.1407 -0.4138
   44DOPE  H15X 5665   2.970   1.473  12.133  0.5029 -0.1270  1.3936
   44DOPE  H15Y 5666   2.816   1.460  12.214  1.7349 -1.5092 -0.8025
   44DOPE  C316 5667   2.894   1.667  12.202  0.4321  0.0758  0.0054
   44DOPE  H16X 5668   2.807   1.726  12.166 -0.3139 -1.1710 -0.3116
   44DOPE  H16Y 5669   2.990   1.703  12.160  0.1106 -0.2251 -1.0279
   44DOPE  C317 5670   2.900   1.679  12.351  0.1766 -0.1064  0.2581
   44DOPE  H17X 5671   2.800   1.656  12.393  0.3332 -1.7950 -0.2408
   44DOPE  H17Y 5672   2.964   1.603  12.399 -3.3194 -2.6560  1.2934
   44DOPE  C318 5673   2.959   1.818  12.398  0.6466  0.1001  0.2333
   44DOPE  H18X 5674   2.938   1.826  12.507  2.4619 -2.2027  0.8311
   44DOPE  H18Y 5675   3.068   1.802  12.384  0.2314 -3.4361  0.1696
   44DOPE  H18Z 5676   2.918   1.905  12.342  0.3997 -0.2957 -0.2097
   45DOPE     N 5677   5.145   1.894  10.740  0.3585 -0.1435  0.0599
   45DOPE   HN1 5678   5.092   1.810  10.712 -2.0180  1.7597 -1.6626
   45DOPE   HN2 5679   5.088   1.972  10.699  1.1179  0.5998  0.3901
   45DOPE   HN3 5680   5.237   1.890  10.692  0.1089  0.7716 -0.5417
   45DOPE   C12 5681   5.156   1.913  10.886 -0.3362 -0.1951  0.0376
   45DOPE  H12A 5682   5.175   2.021  10.901  1.3298 -0.3287 -0.9411
   45DOPE  H12B 5683   5.242   1.853  10.923 -0.6529 -0.2947  0.6378
   45DOPE   C11 5684   5.031   1.867  10.952 -0.7383 -0.4409 -0.4687
   45DOPE  H11A 5685   4.940   1.926  10.928 -1.7255 -1.1637  1.3497
   45DOPE  H11B 5686   5.051   1.871  11.061  1.5019  0.4138 -0.8657
   45DOPE     P 5687   4.868   1.669  10.916 -0.1567 -0.2089  0.2759
   45DOPE   O13 5688   4.859   1.538  10.850  0.3393 -0.4577 -0.6944
   45DOPE   O14 5689   4.773   1.771  10.875  0.2234  0.0299  0.4625
   45DOPE   O11 5690   4.857   1.646  11.073 -0.4462 -0.3535  0.0444
   45DOPE   O12 5691   5.011   1.732  10.913  0.4077  0.1671  0.4992
   45DOPE    C1 5692   4.947   1.556  11.142  0.5128 -0.1429  0.4517
   45DOPE    HA 5693   4.966   1.597  11.244  3.3918  0.2874 -0.1687
   45DOPE    HB 5694   5.048   1.548  11.098  0.8397  0.1701  1.1225
   45DOPE    C2 5695   4.889   1.413  11.160 -0.9700  1.0798 -0.2073
   45DOPE    HS 5696   4.886   1.365  11.061 -1.0967  1.5612 -0.4417
   45DOPE   O21 5697   4.763   1.412  11.223 -0.0357 -0.4143  0.2155
   45DOPE   C21 5698   4.657   1.434  11.146  0.6082  0.4528 -0.0913
   45DOPE   O22 5699   4.645   1.394  11.030  0.0699 -0.3010  0.3014
   45DOPE   C22 5700   4.549   1.500  11.234  0.8539 -0.3807  0.2533
   45DOPE   H2R 5701   4.600   1.586  11.283 -0.5369  0.3289  0.4845
   45DOPE   H2S 5702   4.513   1.420  11.301 -0.7446  0.2409  0.1745
   45DOPE    C3 5703   4.982   1.338  11.259 -0.9814  0.0475  0.0857
   45DOPE    HX 5704   4.945   1.234  11.271 -1.7822  0.3267  0.1161
   45DOPE    HY 5705   4.977   1.389  11.358 -1.3304 -2.6334  1.5459
   45DOPE   O31 5706   5.121   1.335  11.220  0.4215 -0.4363  0.3818
   45DOPE   C31 5707   5.164   1.221  11.157 -0.9903  0.0193 -0.3667
   45DOPE   O32 5708   5.091   1.132  11.123 -0.4410  0.0658  0.4124
   45DOPE   C32 5709   5.309   1.231  11.132 -0.0909 -0.5271 -0.3331
   45DOPE   H2X 5710   5.327   1.308  11.054 -2.2674  1.5186  1.0259
   45DOPE   H2Y 5711   5.349   1.278  11.225 -3.0801  1.6943 -0.0204
   45DOPE   C23 5712   4.422   1.554  11.161 -1.2288  0.3751 -0.4412
   45DOPE   H3R 5713   4.352   1.474  11.130 -2.5826  0.7379  1.5272
   45DOPE   H3S 5714   4.452   1.621  11.077 -1.0127  1.0910  0.1974
   45DOPE   C24 5715   4.343   1.634  11.269  0.1594 -0.5535 -0.2896
   45DOPE   H4R 5716   4.396   1.729  11.291  0.8182 -1.3191  1.6686
   45DOPE   H4S 5717   4.354   1.573  11.362  0.6971  2.7430  1.9919
   45DOPE   C25 5718   4.196   1.671  11.229 -0.4023 -0.1379 -0.2022
   45DOPE   H5R 5719   4.145   1.584  11.182 -0.6856 -1.4981  2.3823
   45DOPE   H5S 5720   4.201   1.749  11.150  2.0666 -0.0719 -0.0663
   45DOPE   C26 5721   4.123   1.721  11.357 -0.1465  0.5247  0.3336
   45DOPE   H6R 5722   4.186   1.786  11.422 -0.0867 -1.3927  2.3029
   45DOPE   H6S 5723   4.104   1.636  11.426 -0.0087  0.3664  0.1760
   45DOPE   C27 5724   3.992   1.795  11.319 -0.3849  0.5596 -1.4295
   45DOPE   H7R 5725   3.904   1.727  11.308 -0.0246 -0.4003  1.0741
   45DOPE   H7S 5726   4.010   1.843  11.220 -0.3232  0.3251 -1.5304
   45DOPE   C28 5727   3.943   1.899  11.427  0.0743  0.1070 -0.6220
   45DOPE   H8R 5728   4.031   1.966  11.436  0.1877 -0.1712  0.5689
   45DOPE   H8S 5729   3.943   1.860  11.531  3.6009  4.1860  1.2496
   45DOPE   C29 5730   3.814   1.975  11.391  0.4045 -0.1248 -0.0408
   45DOPE   H9R 5731   3.799   1.981  11.282 -2.2167 -0.7142  0.2058
   45DOPE  C210 5732   3.705   1.990  11.463 -0.3709 -1.4482  0.0493
   45DOPE  H10R 5733   3.632   2.065  11.431  2.1912  0.2619 -2.1632
   45DOPE  C211 5734   3.701   1.948  11.613 -0.0189  0.1393  0.2492
   45DOPE  H11R 5735   3.802   1.926  11.653  0.1620 -1.6005 -1.0273
   45DOPE  H11S 5736   3.653   1.848  11.616  2.1406 -1.1183 -2.5862
   45DOPE  C212 5737   3.626   2.041  11.706 -0.4491 -0.6518  0.5622
   45DOPE  H12R 5738   3.675   2.141  11.707 -0.8053 -0.4667  0.1113
   45DOPE  H12S 5739   3.635   1.989  11.803 -0.0853 -0.6766  0.5153
   45DOPE  C213 5740   3.480   2.086  11.658 -0.0973  0.5023 -0.0070
   45DOPE  H13R 5741   3.423   1.990  11.653  0.1089  0.1436  2.6132
   45DOPE  H13S 5742   3.489   2.132  11.558  1.8689  0.0671 -0.0773
   45DOPE  C214 5743   3.406   2.182  11.752 -0.2446 -0.6401 -0.0328
   45DOPE  H14R 5744   3.368   2.123  11.839  0.1088  1.7946  1.8835
   45DOPE  H14S 5745   3.311   2.224  11.714 -0.8947  0.3911  2.5474
   45DOPE  C215 5746   3.482   2.297  11.810 -0.3099  0.8559 -0.5783
   45DOPE  H15R 5747   3.548   2.341  11.732  0.4120  2.6668  0.9846
   45DOPE  H15S 5748   3.550   2.258  11.889 -1.4724  2.1646  1.1368
   45DOPE  C216 5749   3.397   2.400  11.876 -0.0764 -0.5408 -0.2940
   45DOPE  H16R 5750   3.334   2.352  11.954 -0.2138  1.0070  0.6124
   45DOPE  H16S 5751   3.327   2.444  11.802  0.8016  1.4399 -0.0293
   45DOPE  C217 5752   3.471   2.509  11.963  0.3431  0.5119  0.3419
   45DOPE  H17R 5753   3.520   2.470  12.055  0.9107  0.2118 -0.0779
   45DOPE  H17S 5754   3.389   2.573  12.000 -1.1521  1.0009 -3.4304
   45DOPE  C218 5755   3.564   2.590  11.876  0.4295 -0.0246 -0.0956
   45DOPE  H18R 5756   3.575   2.694  11.913  1.1647 -0.7167  1.7436
   45DOPE  H18S 5757   3.525   2.600  11.772  1.9935  1.3285 -0.5878
   45DOPE  H18T 5758   3.665   2.546  11.866  0.0816 -0.7030 -0.7839
   45DOPE   C33 5759   5.373   1.092  11.110  0.1654 -0.1685  0.6568
   45DOPE   H3X 5760   5.476   1.111  11.073  0.2301  0.6686  1.2322
   45DOPE   H3Y 5761   5.326   1.044  11.022  0.2538  0.4243  0.2794
   45DOPE   C34 5762   5.355   0.998  11.226 -0.0768 -0.2492 -0.0505
   45DOPE   H4X 5763   5.420   1.032  11.310 -1.0278 -0.8174  0.9496
   45DOPE   H4Y 5764   5.251   0.984  11.260  0.1732 -0.4281  0.6583
   45DOPE   C35 5765   5.406   0.854  11.194 -0.6130 -0.3758 -1.2157
   45DOPE   H5X 5766   5.505   0.860  11.144  1.1785  0.8659  2.1195
   45DOPE   H5Y 5767   5.338   0.811  11.118 -0.9825 -0.3931 -0.8799
   45DOPE   C36 5768   5.415   0.779  11.325 -0.3285  0.0139  0.1004
   45DOPE   H6X 5769   5.317   0.786  11.377 -1.6915  1.2513 -2.4428
   45DOPE   H6Y 5770   5.495   0.822  11.389  0.1595 -0.3083 -0.2852
   45DOPE   C37 5771   5.435   0.627  11.306  0.1146 -0.3294  0.3592
   45DOPE   H7X 5772   5.358   0.588  11.236  0.3058 -0.6821  0.3416
   45DOPE   H7Y 5773   5.537   0.611  11.263  1.4833  3.2622  1.8782
   45DOPE   C38 5774   5.447   0.551  11.438 -0.1311  0.8563  0.3209
   45DOPE   H8X 5775   5.360   0.586  11.497  0.0569 -0.5638  1.5047
   45DOPE   H8Y 5776   5.537   0.575  11.498 -0.6747 -0.3267  1.6523
   45DOPE   C39 5777   5.452   0.403  11.401  0.2345  0.1219 -0.7817
   45DOPE   H9X 5778   5.528   0.379  11.325 -0.0433  0.3695 -1.1447
   45DOPE  C310 5779   5.377   0.305  11.460  0.6235 -0.6798  0.7712
   45DOPE  H10X 5780   5.389   0.203  11.420 -1.9667 -0.8559  0.2517
   45DOPE  C311 5781   5.274   0.333  11.560 -0.4080  0.4538  0.5244
   45DOPE  H11X 5782   5.325   0.380  11.647  1.9819  1.7895 -1.4646
   45DOPE  H11Y 5783   5.199   0.408  11.527  0.0829  1.7984  2.2992
   45DOPE  C312 5784   5.210   0.196  11.584 -0.3734  0.6077 -0.4924
   45DOPE  H12X 5785   5.286   0.119  11.610 -1.5952  0.2939  2.6316
   45DOPE  H12Y 5786   5.147   0.163  11.499  0.0150 -1.7166  0.0478
   45DOPE  C313 5787   5.134   0.190  11.715 -0.8984  0.4383  0.3559
   45DOPE  H13X 5788   5.184   0.198  11.813 -0.0469 -1.4626  0.1158
   45DOPE  H13Y 5789   5.073   0.283  11.715 -0.2783  0.9766 -3.0461
   45DOPE  C314 5790   5.032   0.079  11.701 -0.3519  0.3785  0.3237
   45DOPE  H14X 5791   5.083  -0.013  11.737  1.2031  1.5818  1.3224
   45DOPE  H14Y 5792   4.995   0.064  11.597 -0.8177 -0.2173  0.5718
   45DOPE  C315 5793   4.895   0.109  11.769  0.2157  0.5629  0.1516
   45DOPE  H15X 5794   4.842   0.198  11.728 -0.4373  0.5432  0.9287
   45DOPE  H15Y 5795   4.913   0.127  11.877 -0.7965  0.3632  0.3636
   45DOPE  C316 5796   4.811  -0.016  11.773 -0.2440  0.1432 -0.3908
   45DOPE  H16X 5797   4.867  -0.099  11.820  0.4215 -0.4942 -2.2199
   45DOPE  H16Y 5798   4.781  -0.050  11.671 -1.4881 -0.4708  0.1494
   45DOPE  C317 5799   4.681  -0.002  11.851 -0.5290  0.4399 -0.9108
   45DOPE  H17X 5800   4.702   0.027  11.957  1.4983 -1.0467 -0.8546
   45DOPE  H17Y 5801   4.618   0.080  11.810 -1.3635 -0.6590 -1.8971
   45DOPE  C318 5802   4.588  -0.121  11.848 -0.1124 -0.1920  0.1897
   45DOPE  H18X 5803   4.642  -0.212  11.879 -0.6763 -0.5564  0.1290
   45DOPE  H18Y 5804   4.499  -0.110  11.915 -1.4009  0.7484 -1.5827
   45DOPE  H18Z 5805   4.548  -0.121  11.744 -0.5462  1.5382  0.3192
   46DOPE     N 5806   5.523   7.710  10.680 -0.0848  1.2435  0.2186
   46DOPE   HN1 5807   5.539   7.615  10.642  0.7363  2.1193 -1.7304
   46DOPE   HN2 5808   5.555   7.781  10.612 -2.2033  1.7009 -0.3867
   46DOPE   HN3 5809   5.591   7.714  10.759  0.5471 -0.2165 -0.2269
   46DOPE   C12 5810   5.378   7.740  10.709  0.2227  0.4830  0.0489
   46DOPE  H12A 5811   5.330   7.660  10.769  0.4615  0.2006 -0.1322
   46DOPE  H12B 5812   5.317   7.736  10.617 -0.5819 -3.3318  0.5716
   46DOPE   C11 5813   5.367   7.875  10.785  0.1910 -0.3759 -0.3163
   46DOPE  H11A 5814   5.332   7.842  10.886 -0.9605 -1.6579 -1.0928
   46DOPE  H11B 5815   5.279   7.929  10.745  0.1903 -1.4682 -1.8604
   46DOPE     P 5816   5.488   8.099  10.840 -0.1493  0.0455  0.3481
   46DOPE   O13 5817   5.404   8.175  10.745  0.5016  0.5475  0.5903
   46DOPE   O14 5818   5.621   8.159  10.872  0.2859  0.1294 -0.3428
   46DOPE   O11 5819   5.408   8.092  10.974  0.7898 -0.1798  0.2291
   46DOPE   O12 5820   5.488   7.954  10.793 -0.1438  0.8632  0.0482
   46DOPE    C1 5821   5.454   7.996  11.079 -0.6503 -0.2349  0.1196
   46DOPE    HA 5822   5.522   8.051  11.147 -2.2953  1.1921  0.6710
   46DOPE    HB 5823   5.509   7.909  11.038  1.1348  0.6387  0.5488
   46DOPE    C2 5824   5.330   7.948  11.162 -0.5586 -0.5098 -0.6858
   46DOPE    HS 5825   5.239   7.921  11.105 -1.0338 -1.9565  0.6708
   46DOPE   O21 5826   5.304   8.056  11.247  0.5416  0.6307 -0.2011
   46DOPE   C21 5827   5.180   8.103  11.251 -0.0499 -0.9050 -1.2336
   46DOPE   O22 5828   5.086   8.085  11.175  0.1027 -0.0827  0.2165
   46DOPE   C22 5829   5.172   8.209  11.366 -0.1020  0.1523  0.0174
   46DOPE   H2R 5830   5.178   8.305  11.312 -1.5603  0.1610 -0.1620
   46DOPE   H2S 5831   5.254   8.194  11.440 -1.8623 -0.1449  1.9908
   46DOPE    C3 5832   5.375   7.827  11.251  0.3574  0.4285  0.4627
   46DOPE    HX 5833   5.452   7.864  11.321  2.0082  1.5680 -1.8206
   46DOPE    HY 5834   5.422   7.759  11.176  0.7573  0.6425  0.5166
   46DOPE   O31 5835   5.269   7.773  11.327  0.3934 -0.0219 -0.1016
   46DOPE   C31 5836   5.181   7.696  11.263  0.2718  0.1274  0.0474
   46DOPE   O32 5837   5.198   7.657  11.149 -0.0903 -0.4620  0.3974
   46DOPE   C32 5838   5.057   7.680  11.352  0.4069 -0.1836 -0.2632
   46DOPE   H2X 5839   5.072   7.582  11.401 -2.2054 -1.3762 -1.6492
   46DOPE   H2Y 5840   5.058   7.770  11.418  1.5842 -0.0177 -0.4813
   46DOPE   C23 5841   5.043   8.198  11.447 -0.2503 -0.5413 -0.3636
   46DOPE   H3R 5842   4.958   8.206  11.375 -1.9509 -0.5463  1.5342
   46DOPE   H3S 5843   5.046   8.281  11.520  0.2237  1.6284 -2.7297
   46DOPE   C24 5844   5.036   8.067  11.524  0.4026 -0.1104  0.3989
   46DOPE   H4R 5845   5.139   8.044  11.559  0.7921 -1.1141 -1.3269
   46DOPE   H4S 5846   5.007   7.984  11.457  0.9972  0.2297 -0.2889
   46DOPE   C25 5847   4.945   8.084  11.649  0.4256 -0.3215 -0.4047
   46DOPE   H5R 5848   4.860   8.153  11.631  2.0646  1.9686  0.2444
   46DOPE   H5S 5849   4.997   8.133  11.734 -0.5099 -0.8745  0.5190
   46DOPE   C26 5850   4.893   7.949  11.704 -0.2237  0.5963 -0.2503
   46DOPE   H6R 5851   4.985   7.895  11.736  0.5110  0.4733 -2.4233
   46DOPE   H6S 5852   4.844   7.883  11.630  2.1838 -0.9185 -0.6100
   46DOPE   C27 5853   4.802   7.983  11.823  0.2427 -0.0026 -0.2317
   46DOPE   H7R 5854   4.715   8.029  11.772 -0.3260 -0.6234  0.1592
   46DOPE   H7S 5855   4.853   8.055  11.889  1.3363 -1.9083  1.1054
   46DOPE   C28 5856   4.759   7.857  11.909  0.1697 -0.6661  0.7448
   46DOPE   H8R 5857   4.702   7.898  11.995  0.2756  1.5294 -0.1732
   46DOPE   H8S 5858   4.853   7.811  11.944 -0.5298 -2.1550  0.7648
   46DOPE   C29 5859   4.678   7.764  11.822 -0.1833  0.1252 -0.0472
   46DOPE   H9R 5860   4.639   7.813  11.732  1.8810  0.3330 -0.8678
   46DOPE  C210 5861   4.661   7.629  11.835  0.6215 -0.0718 -0.0793
   46DOPE  H10R 5862   4.613   7.569  11.756 -0.5718 -1.4591  1.6097
   46DOPE  C211 5863   4.725   7.558  11.953 -0.6852 -0.0754 -0.4222
   46DOPE  H11R 5864   4.690   7.455  11.978  0.6310 -0.5312 -0.4131
   46DOPE  H11S 5865   4.739   7.616  12.046  5.2592  0.2656 -1.1461
   46DOPE  C212 5866   4.872   7.528  11.908 -0.2315 -0.1952 -0.0509
   46DOPE  H12R 5867   4.926   7.484  11.994  1.0464  0.0109 -0.7332
   46DOPE  H12S 5868   4.932   7.616  11.877  1.0261 -0.6934  0.8811
   46DOPE  C213 5869   4.877   7.422  11.794  0.5161  0.8097  0.0190
   46DOPE  H13R 5870   4.859   7.484  11.703 -0.0376  2.1589  1.0142
   46DOPE  H13S 5871   4.796   7.346  11.790  0.2478  1.0325  0.9716
   46DOPE  C214 5872   5.012   7.356  11.790 -0.3220 -0.2550 -0.5582
   46DOPE  H14R 5873   5.020   7.305  11.888  1.2000 -0.4151 -0.7345
   46DOPE  H14S 5874   5.082   7.442  11.799 -2.5318  1.4455  1.6674
   46DOPE  C215 5875   5.041   7.258  11.678 -0.3291 -0.2587  0.2671
   46DOPE  H15R 5876   5.001   7.157  11.702  1.3799 -0.8806  0.6501
   46DOPE  H15S 5877   5.151   7.243  11.675 -0.3906 -0.7577  0.4189
   46DOPE  C216 5878   4.985   7.300  11.544 -0.1715 -0.3569 -0.2605
   46DOPE  H16R 5879   4.998   7.410  11.531 -0.7485 -0.1349  0.9215
   46DOPE  H16S 5880   4.874   7.292  11.539 -0.2006 -0.4449  0.4656
   46DOPE  C217 5881   5.049   7.226  11.430  0.2887  0.4815 -0.2360
   46DOPE  H17R 5882   4.989   7.133  11.433 -0.2111  0.7932 -0.4852
   46DOPE  H17S 5883   5.153   7.197  11.459  0.3387  0.6392 -0.2576
   46DOPE  C218 5884   5.034   7.302  11.300  0.9292 -0.0950 -0.6702
   46DOPE  H18R 5885   4.924   7.318  11.303  0.7590 -1.2830  0.4468
   46DOPE  H18S 5886   5.064   7.235  11.216 -1.3535 -0.4484 -1.2841
   46DOPE  H18T 5887   5.092   7.394  11.277 -0.3173  0.7994 -0.3706
   46DOPE   C33 5888   4.912   7.661  11.283 -0.5818 -0.1333 -0.1197
   46DOPE   H3X 5889   4.914   7.564  11.229  1.4334  0.2238 -0.7930
   46DOPE   H3Y 5890   4.903   7.747  11.213  0.0919  0.6839  0.7674
   46DOPE   C34 5891   4.799   7.653  11.388 -1.0867  0.0200 -0.7497
   46DOPE   H4X 5892   4.832   7.592  11.475 -0.0848 -0.0982 -1.2009
   46DOPE   H4Y 5893   4.781   7.759  11.415 -0.7903 -0.1070 -0.0393
   46DOPE   C35 5894   4.669   7.591  11.340  0.6123  0.2475 -0.2875
   46DOPE   H5X 5895   4.699   7.501  11.283 -0.9500  1.3722 -3.1000
   46DOPE   H5Y 5896   4.621   7.652  11.260  1.1514 -1.8222 -2.3063
   46DOPE   C36 5897   4.566   7.546  11.447 -0.2234 -0.0663  0.2591
   46DOPE   H6X 5898   4.556   7.629  11.520 -1.0675  1.4500 -1.5103
   46DOPE   H6Y 5899   4.604   7.453  11.496  0.5070 -1.1436 -2.2086
   46DOPE   C37 5900   4.432   7.532  11.383  1.0165  0.5533  0.1636
   46DOPE   H7X 5901   4.395   7.630  11.345 -1.4215 -0.2047  0.3829
   46DOPE   H7Y 5902   4.447   7.469  11.292  0.4353  0.4041  0.1655
   46DOPE   C38 5903   4.322   7.482  11.480 -0.4397 -0.4323  0.6121
   46DOPE   H8X 5904   4.373   7.400  11.535 -0.2842 -0.4600  0.4280
   46DOPE   H8Y 5905   4.237   7.437  11.424 -0.8652  0.4305  0.5565
   46DOPE   C39 5906   4.265   7.588  11.575 -0.2687  0.4010 -0.3150
   46DOPE   H9X 5907   4.225   7.676  11.522 -0.0461  0.4196 -0.4572
   46DOPE  C310 5908   4.271   7.573  11.710 -0.6143 -0.4633  0.0754
   46DOPE  H10X 5909   4.214   7.650  11.765 -0.7701  0.0100 -0.7312
   46DOPE  C311 5910   4.310   7.458  11.797 -0.2237  0.5694  0.3899
   46DOPE  H11X 5911   4.318   7.369  11.732  1.7248  0.8577  0.1637
   46DOPE  H11Y 5912   4.411   7.464  11.843 -0.3272  0.1490  0.6774
   46DOPE  C312 5913   4.210   7.442  11.908 -0.2778 -0.4036  0.2424
   46DOPE  H12X 5914   4.109   7.407  11.876 -0.9009 -0.3336  2.0265
   46DOPE  H12Y 5915   4.199   7.542  11.954 -0.9034  0.6246 -2.0022
   46DOPE  C313 5916   4.258   7.340  12.009  0.0191 -0.1529 -0.5119
   46DOPE  H13X 5917   4.272   7.237  11.972  1.0927 -0.8016  1.5081
   46DOPE  H13Y 5918   4.355   7.369  12.056 -1.4846  1.7289  1.6583
   46DOPE  C314 5919   4.145   7.334  12.125  0.2371  0.6085  0.0126
   46DOPE  H14X 5920   4.065   7.273  12.079  0.0695  0.5848  0.3329
   46DOPE  H14Y 5921   4.108   7.438  12.137 -0.3505  0.3913  0.0870
   46DOPE  C315 5922   4.205   7.289  12.255  1.1319  0.2200  0.2936
   46DOPE  H15X 5923   4.311   7.316  12.275  0.3718  3.5797  0.3570
   46DOPE  H15Y 5924   4.195   7.178  12.261  1.8843  0.1526  0.3576
   46DOPE  C316 5925   4.122   7.359  12.367 -0.1198  0.4060 -0.1993
   46DOPE  H16X 5926   4.020   7.316  12.364 -0.0701  0.2963 -0.3290
   46DOPE  H16Y 5927   4.120   7.469  12.349 -0.2907  0.3395 -0.5891
   46DOPE  C317 5928   4.180   7.334  12.508 -0.8580  0.3176 -0.3889
   46DOPE  H17X 5929   4.276   7.389  12.509 -1.4116  1.3244 -0.1916
   46DOPE  H17Y 5930   4.117   7.376  12.590  0.7861  0.3946  0.8803
   46DOPE  C318 5931   4.206   7.187  12.554 -0.2905  0.1693 -0.1545
   46DOPE  H18X 5932   4.111   7.130  12.565  0.3053 -1.2679 -1.9681
   46DOPE  H18Y 5933   4.270   7.137  12.478 -0.1808  0.3358 -0.1727
   46DOPE  H18Z 5934   4.265   7.186  12.648 -0.9243 -0.1703  0.2505
   47DOPE     N 5935   2.595   7.806  10.253  0.0641  0.1584  0.0138
   47DOPE   HN1 5936   2.665   7.880  10.234 -1.5489  1.4332 -1.2722
   47DOPE   HN2 5937   2.651   7.721  10.231  2.1122  1.8805 -1.8474
   47DOPE   HN3 5938   2.521   7.817  10.181 -1.1867  0.1204  1.2574
   47DOPE   C12 5939   2.517   7.808  10.384 -0.1675 -0.3838 -0.1211
   47DOPE  H12A 5940   2.422   7.758  10.357 -1.2418  0.9450  1.0121
   47DOPE  H12B 5941   2.499   7.915  10.407  2.0399 -0.1991  1.0121
   47DOPE   C11 5942   2.593   7.737  10.494 -0.0664  0.3463 -0.5262
   47DOPE  H11A 5943   2.539   7.741  10.592  2.0823 -1.5200  0.8382
   47DOPE  H11B 5944   2.693   7.785  10.503  0.1831 -0.2678  0.0650
   47DOPE     P 5945   2.707   7.501  10.531  0.0045  0.3979 -0.2395
   47DOPE   O13 5946   2.842   7.530  10.492  0.0109 -0.6186 -0.6116
   47DOPE   O14 5947   2.657   7.363  10.505 -0.1764  0.3693  0.5022
   47DOPE   O11 5948   2.694   7.521  10.685  0.2243  0.0042  0.2671
   47DOPE   O12 5949   2.606   7.601  10.458  0.2248  0.1634 -0.5262
   47DOPE    C1 5950   2.763   7.616  10.762  0.1452 -0.0165  0.1093
   47DOPE    HA 5951   2.738   7.718  10.726  0.7367  0.1416  0.1274
   47DOPE    HB 5952   2.867   7.576  10.763 -0.6478 -2.2623  1.4152
   47DOPE    C2 5953   2.723   7.616  10.913  0.6507 -0.4442  0.1012
   47DOPE    HS 5954   2.796   7.685  10.960 -0.0082  0.2120  0.1869
   47DOPE   O21 5955   2.738   7.493  10.979  0.3264  0.2755  0.4208
   47DOPE   C21 5956   2.864   7.460  11.017 -0.1408 -0.0766 -0.5592
   47DOPE   O22 5957   2.960   7.535  11.008 -0.5442  0.2648  0.1111
   47DOPE   C22 5958   2.855   7.324  11.087 -0.1784 -0.3692 -0.1242
   47DOPE   H2R 5959   2.954   7.274  11.078 -1.2692 -2.5598 -0.6147
   47DOPE   H2S 5960   2.789   7.257  11.028 -3.2080  1.7055  0.6583
   47DOPE    C3 5961   2.582   7.661  10.923  0.3729 -0.9230  0.0984
   47DOPE    HX 5962   2.517   7.585  10.874  0.5030 -0.0729 -1.4378
   47DOPE    HY 5963   2.572   7.762  10.879  0.4621 -0.0730  1.9100
   47DOPE   O31 5964   2.556   7.668  11.065  0.1183  0.7965  0.8819
   47DOPE   C31 5965   2.478   7.576  11.113 -0.7041  0.3690  0.3554
   47DOPE   O32 5966   2.413   7.497  11.057 -0.3190 -0.2521  0.2987
   47DOPE   C32 5967   2.492   7.588  11.270  0.3580  0.3257  1.2731
   47DOPE   H2X 5968   2.595   7.567  11.305  0.5550  3.3585  2.8796
   47DOPE   H2Y 5969   2.470   7.696  11.279  3.4895  1.7111 -3.5688
   47DOPE   C23 5970   2.802   7.337  11.231 -0.5307 -0.5406  0.6078
   47DOPE   H3R 5971   2.707   7.395  11.225 -1.0214 -1.4141 -0.5566
   47DOPE   H3S 5972   2.876   7.393  11.291 -1.4276  3.0752 -1.3935
   47DOPE   C24 5973   2.771   7.210  11.303  0.7058 -0.1418 -0.4576
   47DOPE   H4R 5974   2.722   7.234  11.399 -1.3172  0.3699 -1.5576
   47DOPE   H4S 5975   2.871   7.164  11.317  0.7589  0.2235  0.3946
   47DOPE   C25 5976   2.674   7.120  11.223  0.0255  0.4362 -0.2868
   47DOPE   H5R 5977   2.723   7.102  11.125  0.7745  0.1470  0.1354
   47DOPE   H5S 5978   2.575   7.165  11.204 -0.3697 -0.2962 -0.0222
   47DOPE   C26 5979   2.667   6.983  11.296 -0.2417 -0.6584  0.0400
   47DOPE   H6R 5980   2.636   7.005  11.401 -0.1495 -0.7204  0.0801
   47DOPE   H6S 5981   2.763   6.928  11.310 -0.1238 -0.2105  1.1766
   47DOPE   C27 5982   2.567   6.891  11.236  0.1509  0.6779  0.4849
   47DOPE   H7R 5983   2.593   6.783  11.238  0.6283  0.7012 -1.6309
   47DOPE   H7S 5984   2.566   6.909  11.126 -1.0805  0.2882  0.4120
   47DOPE   C28 5985   2.427   6.918  11.291  1.0097  0.5403  0.7417
   47DOPE   H8R 5986   2.411   7.028  11.288  2.2909  0.7416 -3.0764
   47DOPE   H8S 5987   2.404   6.880  11.393 -2.2424 -2.2725 -0.8488
   47DOPE   C29 5988   2.312   6.872  11.202  0.5358 -0.3192 -0.3116
   47DOPE   H9R 5989   2.318   6.913  11.100  1.5574 -2.4161 -1.1711
   47DOPE  C210 5990   2.211   6.788  11.224  0.5716  0.0874  1.1161
   47DOPE  H10R 5991   2.133   6.770  11.149 -0.1153 -0.1204  1.8682
   47DOPE  C211 5992   2.172   6.716  11.352  0.2645  0.0123 -0.4258
   47DOPE  H11R 5993   2.062   6.721  11.365  0.1635 -0.2753 -1.1138
   47DOPE  H11S 5994   2.200   6.769  11.445 -2.6702 -0.5142  0.8741
   47DOPE  C212 5995   2.217   6.567  11.376  0.6157  0.1469  0.0106
   47DOPE  H12R 5996   2.323   6.557  11.346  0.5469 -1.2157  0.1716
   47DOPE  H12S 5997   2.159   6.502  11.307  1.2844 -0.2267 -0.2029
   47DOPE  C213 5998   2.198   6.512  11.521 -0.5715 -0.3284  0.2783
   47DOPE  H13R 5999   2.282   6.440  11.533 -0.0751  0.0784 -0.6306
   47DOPE  H13S 6000   2.099   6.462  11.525 -0.6052 -0.2174  0.9335
   47DOPE  C214 6001   2.207   6.618  11.635  0.5078  0.4148  0.6102
   47DOPE  H14R 6002   2.110   6.670  11.626 -0.0145 -0.6725 -0.3135
   47DOPE  H14S 6003   2.303   6.672  11.618  1.1526 -0.5712  1.0247
   47DOPE  C215 6004   2.213   6.562  11.777 -0.3309  0.6275  0.4933
   47DOPE  H15R 6005   2.123   6.507  11.811  0.0002 -1.0874 -1.2834
   47DOPE  H15S 6006   2.225   6.650  11.845  2.9425  1.1488 -0.5484
   47DOPE  C216 6007   2.340   6.475  11.797  0.9490  0.8104 -0.2455
   47DOPE  H16R 6008   2.426   6.542  11.776  2.5734 -1.2456 -0.4987
   47DOPE  H16S 6009   2.340   6.387  11.729  0.3052 -0.3679  1.2159
   47DOPE  C217 6010   2.352   6.430  11.943 -0.3865  0.5182 -0.0249
   47DOPE  H17R 6011   2.333   6.509  12.018 -0.1228 -0.6912  1.3510
   47DOPE  H17S 6012   2.458   6.399  11.950  0.7558  2.9681 -3.4309
   47DOPE  C218 6013   2.258   6.320  11.976 -0.4974 -0.4940  0.1955
   47DOPE  H18R 6014   2.156   6.363  11.981 -0.5712 -0.4958 -0.9526
   47DOPE  H18S 6015   2.287   6.285  12.078  1.7291  0.4232 -0.0684
   47DOPE  H18T 6016   2.255   6.244  11.894 -1.0424  0.9777 -1.1894
   47DOPE   C33 6017   2.400   7.489  11.337  0.1698  0.4557 -0.1030
   47DOPE   H3X 6018   2.455   7.392  11.348  0.4364  0.0692 -3.8010
   47DOPE   H3Y 6019   2.299   7.473  11.294  0.1489 -1.5843  0.5883
   47DOPE   C34 6020   2.367   7.527  11.478  0.4389  0.0796  0.2028
   47DOPE   H4X 6021   2.368   7.637  11.486  0.5673  0.0317  0.9177
   47DOPE   H4Y 6022   2.264   7.506  11.515 -0.3728 -0.2618 -2.0820
   47DOPE   C35 6023   2.477   7.484  11.583 -0.5817 -0.6288 -0.1968
   47DOPE   H5X 6024   2.575   7.516  11.541 -2.1113  1.7817 -2.2622
   47DOPE   H5Y 6025   2.465   7.377  11.609  1.7571 -0.5622  1.4578
   47DOPE   C36 6026   2.458   7.578  11.708 -0.0924  0.6982 -0.9128
   47DOPE   H6X 6027   2.427   7.679  11.675 -0.1688  1.2742  0.8345
   47DOPE   H6Y 6028   2.555   7.591  11.760 -1.3878 -0.0508  1.9519
   47DOPE   C37 6029   2.369   7.505  11.815 -0.3536 -0.4064 -0.3831
   47DOPE   H7X 6030   2.276   7.475  11.762 -1.7069 -2.1797  2.7204
   47DOPE   H7Y 6031   2.416   7.405  11.829 -2.1701 -1.0743  1.4776
   47DOPE   C38 6032   2.353   7.586  11.949  0.1024 -0.1814 -0.5135
   47DOPE   H8X 6033   2.300   7.682  11.930 -0.5889  0.0351  2.1208
   47DOPE   H8Y 6034   2.458   7.609  11.979  0.4186 -1.1033 -0.8778
   47DOPE   C39 6035   2.284   7.502  12.050  0.1908  0.0904 -1.0820
   47DOPE   H9X 6036   2.174   7.508  12.047  0.1858 -0.3338 -3.5091
   47DOPE  C310 6037   2.343   7.414  12.135  0.3119 -0.1732 -1.0461
   47DOPE  H10X 6038   2.279   7.345  12.191  1.7022  0.3267  1.2684
   47DOPE  C311 6039   2.488   7.391  12.144  0.0120 -0.3974  0.3708
   47DOPE  H11X 6040   2.547   7.481  12.115  1.7616 -1.3080  0.9992
   47DOPE  H11Y 6041   2.509   7.372  12.252 -0.9647 -2.3491  0.2488
   47DOPE  C312 6042   2.555   7.275  12.067  0.3997  0.4995 -0.0898
   47DOPE  H12X 6043   2.532   7.279  11.959  1.6066 -0.9211 -0.4352
   47DOPE  H12Y 6044   2.513   7.179  12.103  0.3865 -0.4918 -2.5517
   47DOPE  C313 6045   2.706   7.273  12.070 -0.7303  0.0521 -0.2342
   47DOPE  H13X 6046   2.754   7.373  12.074  2.5298 -1.3616 -0.3578
   47DOPE  H13Y 6047   2.734   7.226  12.168  2.2969  1.7541 -0.1395
   47DOPE  C314 6048   2.761   7.203  11.946 -0.5462  0.3391 -0.5866
   47DOPE  H14X 6049   2.872   7.195  11.949 -0.6277 -1.2748 -0.7810
   47DOPE  H14Y 6050   2.738   7.271  11.862  0.8774  0.0129 -1.2827
   47DOPE  C315 6051   2.702   7.057  11.919 -0.3923  0.1708 -0.5577
   47DOPE  H15X 6052   2.598   7.034  11.949 -0.3310 -0.5366 -0.8602
   47DOPE  H15Y 6053   2.780   6.996  11.969  0.4367  2.2423  0.8421
   47DOPE  C316 6054   2.692   7.023  11.774  0.1562 -0.5275 -0.1532
   47DOPE  H16X 6055   2.791   7.038  11.725 -0.1868  1.1838 -0.3869
   47DOPE  H16Y 6056   2.621   7.088  11.719 -1.8303 -1.6210  1.0192
   47DOPE  C317 6057   2.638   6.885  11.755 -0.2338 -0.4240  0.3206
   47DOPE  H17X 6058   2.702   6.802  11.793  1.7128  0.0136 -1.7653
   47DOPE  H17Y 6059   2.540   6.881  11.807 -0.1835  0.8926  0.5394
   47DOPE  C318 6060   2.595   6.850  11.613  0.5152 -0.1442 -0.7490
   47DOPE  H18X 6061   2.526   6.926  11.570  1.3997  0.7105 -0.6733
   47DOPE  H18Y 6062   2.687   6.853  11.552 -0.4805 -2.9255 -2.6179
   47DOPE  H18Z 6063   2.554   6.749  11.589 -2.4939  1.3522 -2.4815
   48DOPE     N 6064   7.087   3.621  10.255  0.1581 -0.3582  1.0081
   48DOPE   HN1 6065   7.173   3.669  10.220 -0.1606 -1.3524 -1.2839
   48DOPE   HN2 6066   7.016   3.611  10.180 -1.2155  0.4054  2.1663
   48DOPE   HN3 6067   7.050   3.690  10.323  1.0465  0.2575  0.8875
   48DOPE   C12 6068   7.136   3.490  10.309 -0.0886  1.0662 -1.0559
   48DOPE  H12A 6069   7.195   3.512  10.400 -0.0399 -1.7754 -0.3183
   48DOPE  H12B 6070   7.196   3.433  10.235  2.2377  1.4660  0.4425
   48DOPE   C11 6071   7.019   3.398  10.358 -0.0727  0.0733  0.3046
   48DOPE  H11A 6072   6.969   3.375  10.262  2.9819  3.2451 -2.3117
   48DOPE  H11B 6073   6.949   3.458  10.420  0.3466  1.4163 -0.4872
   48DOPE     P 6074   7.002   3.206  10.528 -0.0713 -0.1277 -0.0988
   48DOPE   O13 6075   7.074   3.083  10.563 -0.0086 -0.0858  0.0100
   48DOPE   O14 6076   6.862   3.190  10.479  0.1451 -0.5592  0.3866
   48DOPE   O11 6077   6.999   3.313  10.643 -0.2146 -0.1229 -0.2103
   48DOPE   O12 6078   7.078   3.276  10.411  0.2928 -0.0306 -0.3006
   48DOPE    C1 6079   7.125   3.349  10.704  0.0872  0.1497 -0.1059
   48DOPE    HA 6080   7.144   3.457  10.686  0.5187  0.0337 -0.3603
   48DOPE    HB 6081   7.214   3.294  10.667  0.9997  0.5368  1.4078
   48DOPE    C2 6082   7.118   3.342  10.862  0.1576  1.2359 -0.1842
   48DOPE    HS 6083   7.219   3.372  10.899  0.4618  0.4213 -0.3215
   48DOPE   O21 6084   7.080   3.212  10.905 -0.3609  0.2480  0.2773
   48DOPE   C21 6085   7.181   3.121  10.893  0.7064  0.2604  0.6036
   48DOPE   O22 6086   7.296   3.141  10.857 -0.1354 -0.2810 -0.0602
   48DOPE   C22 6087   7.125   2.983  10.933 -1.1409 -0.2516  0.2433
   48DOPE   H2R 6088   7.084   2.947  10.837 -1.1306 -0.1075  0.1848
   48DOPE   H2S 6089   7.049   3.006  11.012  0.6791 -2.2585  2.7596
   48DOPE    C3 6090   7.012   3.443  10.913  0.2777 -0.7358 -0.2213
   48DOPE    HX 6091   6.919   3.427  10.855  0.9009 -2.7441 -0.7590
   48DOPE    HY 6092   7.048   3.543  10.884 -0.3853 -0.0301  1.2681
   48DOPE   O31 6093   6.994   3.438  11.058  0.3097 -0.1614 -1.1389
   48DOPE   C31 6094   6.924   3.543  11.103 -0.0120  0.1592  0.8191
   48DOPE   O32 6095   6.881   3.632  11.032  0.2334  0.5057  0.3609
   48DOPE   C32 6096   6.911   3.531  11.251  0.5950 -0.4646  0.1119
   48DOPE   H2X 6097   7.008   3.488  11.283  0.2617 -0.0182  1.8084
   48DOPE   H2Y 6098   6.893   3.631  11.295  0.5491 -1.0343  1.4172
   48DOPE   C23 6099   7.229   2.879  10.986 -0.3160  0.0110  0.1847
   48DOPE   H3R 6100   7.318   2.887  10.920  0.0851  0.0958  0.7345
   48DOPE   H3S 6101   7.174   2.782  10.991  0.4115 -0.3621  1.3140
   48DOPE   C24 6102   7.259   2.925  11.130 -0.5218  0.1609  0.3632
   48DOPE   H4R 6103   7.165   2.969  11.172  0.1291  0.9108  1.0787
   48DOPE   H4S 6104   7.340   3.001  11.134 -0.4252  0.0128  1.7561
   48DOPE   C25 6105   7.300   2.808  11.218 -1.2724  0.5816  0.1462
   48DOPE   H5R 6106   7.392   2.757  11.180 -2.8339 -1.2491 -1.4043
   48DOPE   H5S 6107   7.222   2.730  11.205 -0.7315  0.3659 -2.2229
   48DOPE   C26 6108   7.318   2.847  11.370  0.1439 -0.7655 -0.0041
   48DOPE   H6R 6109   7.225   2.900  11.399  0.4901  0.4011 -0.9833
   48DOPE   H6S 6110   7.408   2.909  11.387  0.3141 -0.9543 -0.2033
   48DOPE   C27 6111   7.324   2.725  11.461 -0.3898 -0.1850  0.0496
   48DOPE   H7R 6112   7.235   2.664  11.437 -0.2971 -1.4733  2.5873
   48DOPE   H7S 6113   7.312   2.762  11.565 -2.7687  0.5681 -0.4473
   48DOPE   C28 6114   7.459   2.657  11.464 -0.1258  0.7912  0.8878
   48DOPE   H8R 6115   7.503   2.648  11.363  1.1377  0.8767  1.4173
   48DOPE   H8S 6116   7.426   2.557  11.501 -0.5449 -2.2151 -5.9908
   48DOPE   C29 6117   7.562   2.722  11.551  0.0143  0.0722 -0.0573
   48DOPE   H9R 6118   7.590   2.827  11.531  1.7422 -0.5786 -1.3241
   48DOPE  C210 6119   7.629   2.665  11.656  0.0493  0.1720  1.2000
   48DOPE  H10R 6120   7.709   2.722  11.705  1.5843 -0.1073 -0.8413
   48DOPE  C211 6121   7.600   2.530  11.719 -0.8382 -0.3821 -0.1656
   48DOPE  H11R 6122   7.510   2.485  11.672 -0.1133  1.3060 -3.5145
   48DOPE  H11S 6123   7.582   2.545  11.827 -0.2321  0.0602 -0.1209
   48DOPE  C212 6124   7.717   2.426  11.696 -0.4567 -0.1280  0.4012
   48DOPE  H12R 6125   7.729   2.414  11.587 -0.2537  0.3815  0.3654
   48DOPE  H12S 6126   7.692   2.324  11.732  1.7515 -1.5068 -1.6428
   48DOPE  C213 6127   7.852   2.464  11.764  0.1342  0.0827 -0.4690
   48DOPE  H13R 6128   7.897   2.554  11.718 -2.1259  1.2194 -0.5837
   48DOPE  H13S 6129   7.929   2.388  11.739  0.1854  0.6287 -2.0308
   48DOPE  C214 6130   7.834   2.481  11.917  0.3430 -0.0045 -0.6853
   48DOPE  H14R 6131   7.760   2.557  11.952  1.7929  1.0123  0.2996
   48DOPE  H14S 6132   7.933   2.520  11.951 -0.3719  0.6036  0.7666
   48DOPE  C215 6133   7.799   2.351  11.991  0.5470 -0.8027  0.2666
   48DOPE  H15R 6134   7.869   2.271  11.957  1.5718 -0.8843  2.4329
   48DOPE  H15S 6135   7.705   2.303  11.955 -0.0271  0.3158  0.2552
   48DOPE  C216 6136   7.793   2.366  12.137  0.5529 -0.0626  0.0040
   48DOPE  H16R 6137   7.705   2.427  12.167  0.4981 -0.8454  1.5517
   48DOPE  H16S 6138   7.876   2.429  12.177 -0.4835  1.7219 -0.5572
   48DOPE  C217 6139   7.786   2.235  12.222 -0.0496 -0.0619  0.4964
   48DOPE  H17R 6140   7.868   2.166  12.195 -0.4709  0.2888 -1.8174
   48DOPE  H17S 6141   7.696   2.180  12.188  0.4201  0.8786 -2.5405
   48DOPE  C218 6142   7.776   2.267  12.374  0.3550 -0.0209  0.1123
   48DOPE  H18R 6143   7.851   2.336  12.419 -1.8507  1.5523  1.6212
   48DOPE  H18S 6144   7.765   2.174  12.434  0.8136 -0.1078  0.0605
   48DOPE  H18T 6145   7.681   2.322  12.391  1.9015  3.1249 -0.6631
   48DOPE   C33 6146   6.788   3.442  11.294  0.5555 -0.1598  0.1123
   48DOPE   H3X 6147   6.691   3.467  11.246 -0.2491 -1.3046  1.0757
   48DOPE   H3Y 6148   6.768   3.449  11.403 -2.0695  0.5595 -0.3551
   48DOPE   C34 6149   6.813   3.295  11.265 -0.6464 -0.7356 -0.4002
   48DOPE   H4X 6150   6.717   3.244  11.242 -0.4062 -0.5746 -1.8449
   48DOPE   H4Y 6151   6.866   3.273  11.170  1.0600  1.1922  0.0456
   48DOPE   C35 6152   6.869   3.228  11.391 -0.2653  0.1351 -0.7842
   48DOPE   H5X 6153   6.794   3.224  11.473  0.9185  2.5002  0.5271
   48DOPE   H5Y 6154   6.951   3.296  11.423 -0.8295  0.4589 -0.0058
   48DOPE   C36 6155   6.947   3.098  11.366  0.2687 -0.3621 -0.6484
   48DOPE   H6X 6156   7.023   3.084  11.446 -1.2435 -1.5024  0.6666
   48DOPE   H6Y 6157   6.993   3.115  11.266 -2.7356  0.3590 -2.0228
   48DOPE   C37 6158   6.848   2.984  11.368  0.1005  0.4429  0.2909
   48DOPE   H7X 6159   6.839   2.953  11.474 -0.4451 -0.2067  0.0607
   48DOPE   H7Y 6160   6.752   3.031  11.337  0.0696  0.6123  0.6406
   48DOPE   C38 6161   6.896   2.862  11.279 -0.4731  0.7072  0.3112
   48DOPE   H8X 6162   7.001   2.830  11.296 -0.5652 -2.0553 -3.2151
   48DOPE   H8Y 6163   6.879   2.895  11.174 -0.4461  0.6313  0.2832
   48DOPE   C39 6164   6.800   2.741  11.299 -0.5204  0.1122  0.1939
   48DOPE   H9X 6165   6.712   2.735  11.233 -0.4646  1.6972 -0.0600
   48DOPE  C310 6166   6.814   2.644  11.387 -0.7197  0.7781  0.0048
   48DOPE  H10X 6167   6.730   2.573  11.392 -1.2162  1.3865  0.3827
   48DOPE  C311 6168   6.926   2.625  11.481 -0.0437  0.4241  0.6686
   48DOPE  H11X 6169   7.014   2.573  11.437  0.7217  0.4980  2.0476
   48DOPE  H11Y 6170   6.948   2.722  11.530 -1.7110  1.2901 -0.2178
   48DOPE  C312 6171   6.873   2.521  11.589  0.6401 -0.4504 -0.0497
   48DOPE  H12X 6172   6.866   2.415  11.555  3.4286  0.1794 -3.1691
   48DOPE  H12Y 6173   6.775   2.553  11.630  1.3025  1.3554  0.1862
   48DOPE  C313 6174   6.963   2.523  11.709 -0.1738  0.1628  0.3202
   48DOPE  H13X 6175   7.063   2.478  11.688 -0.2612  0.4420 -0.7492
   48DOPE  H13Y 6176   6.977   2.628  11.743  0.1766  0.7346 -1.5001
   48DOPE  C314 6177   6.894   2.440  11.826 -0.4568  0.2903 -0.0828
   48DOPE  H14X 6178   6.867   2.340  11.785  2.1455 -1.2616  1.7072
   48DOPE  H14Y 6179   6.804   2.496  11.859 -0.3918  0.8051 -0.7376
   48DOPE  C315 6180   6.985   2.423  11.948  0.1843 -0.2417 -0.5302
   48DOPE  H15X 6181   7.051   2.511  11.959 -0.7739  0.2479  2.2638
   48DOPE  H15Y 6182   7.057   2.340  11.932 -0.8537 -1.0608 -1.0915
   48DOPE  C316 6183   6.915   2.406  12.084 -0.2784 -0.0809 -0.1690
   48DOPE  H16X 6184   6.868   2.306  12.075 -1.5198  0.4588  0.1930
   48DOPE  H16Y 6185   6.843   2.483  12.116  0.7026 -0.4025  3.1670
   48DOPE  C317 6186   7.021   2.408  12.195 -0.3575  0.0451  0.1539
   48DOPE  H17X 6187   6.986   2.365  12.291  0.1291  2.3988  1.4611
   48DOPE  H17Y 6188   7.107   2.347  12.161 -0.3391  0.7773 -1.2087
   48DOPE  C318 6189   7.061   2.544  12.247 -0.5667 -0.2244 -0.0714
   48DOPE  H18X 6190   6.974   2.603  12.284  1.3249  3.5532 -1.1107
   48DOPE  H18Y 6191   7.128   2.541  12.335 -0.4553  1.2486 -0.0725
   48DOPE  H18Z 6192   7.101   2.609  12.167 -1.3108 -2.7246 -2.6410
   49DOPE     N 6193   7.781   5.747  10.721  0.2297  0.6123  0.1427
   49DOPE   HN1 6194   7.835   5.759  10.633  0.7870  2.7708  0.7162
   49DOPE   HN2 6195   7.682   5.772  10.700 -0.0493  0.6782  1.4095
   49DOPE   HN3 6196   7.820   5.816  10.789  2.2884 -0.8485  0.5513
   49DOPE   C12 6197   7.793   5.608  10.774 -0.1547 -0.3829 -0.5416
   49DOPE  H12A 6198   7.740   5.545  10.699 -0.5700  2.3018 -2.6204
   49DOPE  H12B 6199   7.735   5.598  10.869  3.6939 -0.6318  1.9912
   49DOPE   C11 6200   7.937   5.569  10.786 -0.0724 -0.2738 -0.3942
   49DOPE  H11A 6201   7.947   5.472  10.840 -0.2798 -1.6499 -2.6373
   49DOPE  H11B 6202   7.976   5.645  10.856  2.8282  1.0170 -3.1588
   49DOPE     P 6203   8.062   5.455  10.597  0.3543  0.1189 -0.1597
   49DOPE   O13 6204   8.174   5.499  10.507  0.7317 -0.2508 -0.2069
   49DOPE   O14 6205   7.945   5.381  10.539  0.1091 -0.5994  0.4462
   49DOPE   O11 6206   8.113   5.372  10.716 -0.0409  0.4592  0.1277
   49DOPE   O12 6207   8.008   5.581  10.661  0.5380 -0.1326  0.1173
   49DOPE    C1 6208   8.254   5.354  10.752  0.1148 -0.0495 -0.3499
   49DOPE    HA 6209   8.326   5.391  10.676  1.0637  0.7470  0.8719
   49DOPE    HB 6210   8.279   5.247  10.768 -0.5613  0.0904  2.0476
   49DOPE    C2 6211   8.290   5.441  10.882 -0.2337 -0.2416  0.4976
   49DOPE    HS 6212   8.378   5.400  10.935  1.4501  1.2997 -0.9432
   49DOPE   O21 6213   8.171   5.462  10.960  0.0561 -0.2904  0.7459
   49DOPE   C21 6214   8.156   5.359  11.040 -0.2165 -0.1986 -0.2209
   49DOPE   O22 6215   8.237   5.268  11.055 -0.3271  0.8627 -0.6602
   49DOPE   C22 6216   8.013   5.372  11.109  0.4619  0.4701 -0.9110
   49DOPE   H2R 6217   8.010   5.289  11.182 -1.0354  1.2381 -0.0724
   49DOPE   H2S 6218   7.950   5.356  11.019  0.6751  2.9425 -1.5612
   49DOPE    C3 6219   8.328   5.586  10.840 -0.1233 -0.7801  0.3674
   49DOPE    HX 6220   8.237   5.624  10.789 -1.7625 -2.3121  2.0208
   49DOPE    HY 6221   8.416   5.576  10.773  0.5727  0.4045  1.0779
   49DOPE   O31 6222   8.364   5.656  10.961 -0.5575 -0.1810  0.5259
   49DOPE   C31 6223   8.313   5.771  10.986  1.0538  0.1191 -0.2086
   49DOPE   O32 6224   8.232   5.830  10.914 -0.2689 -0.0865  0.0908
   49DOPE   C32 6225   8.371   5.820  11.116 -0.0275 -0.5423 -0.0960
   49DOPE   H2X 6226   8.349   5.746  11.195 -0.8280  0.0429  0.2438
   49DOPE   H2Y 6227   8.480   5.829  11.099 -0.4679  0.3715 -3.0888
   49DOPE   C23 6228   7.980   5.503  11.171 -0.2039 -0.3722 -0.3913
   49DOPE   H3R 6229   7.873   5.502  11.199 -0.5008 -1.6127 -1.4744
   49DOPE   H3S 6230   7.995   5.585  11.097  2.1497 -0.2449  0.1546
   49DOPE   C24 6231   8.053   5.539  11.294  0.6965 -0.5707 -0.2002
   49DOPE   H4R 6232   8.160   5.552  11.268  0.3077  1.6606 -0.8472
   49DOPE   H4S 6233   8.041   5.461  11.372  2.0086 -1.8341 -1.1998
   49DOPE   C25 6234   8.003   5.671  11.356  0.6956 -0.5774  0.1774
   49DOPE   H5R 6235   7.894   5.657  11.372  0.7564 -1.9751 -0.4552
   49DOPE   H5S 6236   8.020   5.756  11.287  0.1448  0.0733  0.8189
   49DOPE   C26 6237   8.063   5.707  11.487 -0.4338 -0.2776 -0.1827
   49DOPE   H6R 6238   8.173   5.699  11.474 -0.0572 -1.0776  2.8701
   49DOPE   H6S 6239   8.033   5.627  11.558 -1.3289  0.7489  0.6274
   49DOPE   C27 6240   8.032   5.846  11.548 -0.5076  0.0836 -0.0610
   49DOPE   H7R 6241   7.924   5.867  11.562 -1.1685 -1.5473 -2.2735
   49DOPE   H7S 6242   8.077   5.920  11.479 -0.0533 -0.3890 -0.2767
   49DOPE   C28 6243   8.108   5.869  11.680  0.3217  0.1777  0.1557
   49DOPE   H8R 6244   8.215   5.849  11.659  0.8907  1.6343  1.5336
   49DOPE   H8S 6245   8.061   5.796  11.750 -0.5966 -0.3478 -0.9568
   49DOPE   C29 6246   8.106   6.014  11.734 -0.9828 -0.0536  0.0842
   49DOPE   H9R 6247   8.083   6.087  11.654 -0.6946  0.1945  0.2238
   49DOPE  C210 6248   8.146   6.064  11.851  0.8983  0.6393  0.6809
   49DOPE  H10R 6249   8.128   6.170  11.877  0.1197 -0.0708  3.4009
   49DOPE  C211 6250   8.202   5.979  11.963 -0.4914 -0.2764 -0.2895
   49DOPE  H11R 6251   8.198   5.871  11.939  1.5168  0.0321 -2.3235
   49DOPE  H11S 6252   8.135   5.991  12.051 -1.0532 -4.8936  0.1378
   49DOPE  C212 6253   8.355   6.002  12.009 -0.7008  0.7413  0.8638
   49DOPE  H12R 6254   8.354   5.957  12.110 -1.5953 -0.7937  0.2054
   49DOPE  H12S 6255   8.382   6.110  12.018  0.5580  0.8438 -2.6376
   49DOPE  C213 6256   8.463   5.936  11.917 -0.3263  0.3039  0.6310
   49DOPE  H13R 6257   8.569   5.942  11.950 -0.9356  0.2329  2.7520
   49DOPE  H13S 6258   8.459   5.968  11.810 -1.9279  0.5306  0.7334
   49DOPE  C214 6259   8.435   5.783  11.904  0.1723  0.4162  0.4384
   49DOPE  H14R 6260   8.347   5.753  11.844  1.7000  0.1148 -1.7739
   49DOPE  H14S 6261   8.444   5.735  12.003 -0.7712  0.1616  0.4098
   49DOPE  C215 6262   8.547   5.716  11.818  0.0425  0.1211  0.3078
   49DOPE  H15R 6263   8.639   5.734  11.878 -0.1592  1.4138  0.2542
   49DOPE  H15S 6264   8.564   5.766  11.721  2.4745  2.5419  1.8247
   49DOPE  C216 6265   8.543   5.565  11.802 -0.0190 -0.2602  1.1511
   49DOPE  H16R 6266   8.451   5.516  11.764  1.0910 -1.1120 -0.5285
   49DOPE  H16S 6267   8.558   5.522  11.904 -0.0513 -1.2119  0.7633
   49DOPE  C217 6268   8.668   5.509  11.724 -0.5154  0.0433  0.7346
   49DOPE  H17R 6269   8.755   5.570  11.756  1.1160 -1.5849 -0.4310
   49DOPE  H17S 6270   8.649   5.547  11.622  0.9117 -2.2775 -0.4957
   49DOPE  C218 6271   8.699   5.363  11.719 -0.5416 -0.0978 -0.7909
   49DOPE  H18R 6272   8.612   5.309  11.676 -0.0919 -0.7049 -0.9499
   49DOPE  H18S 6273   8.716   5.316  11.818 -1.2654 -0.0723 -0.6461
   49DOPE  H18T 6274   8.784   5.357  11.647  0.7120 -1.5236  0.7390
   49DOPE   C33 6275   8.306   5.958  11.161  0.3849  0.3293  0.3758
   49DOPE   H3X 6276   8.197   5.970  11.140  0.2297 -0.4869  0.6573
   49DOPE   H3Y 6277   8.356   6.030  11.094 -0.1491  0.4287  0.0757
   49DOPE   C34 6278   8.326   5.986  11.312 -0.1415 -0.6306 -0.5159
   49DOPE   H4X 6279   8.294   6.090  11.332  4.0301  0.9590 -0.9444
   49DOPE   H4Y 6280   8.251   5.919  11.359 -1.0137  0.5603 -0.1593
   49DOPE   C35 6281   8.467   5.959  11.370 -0.1370 -0.2989 -0.4631
   49DOPE   H5X 6282   8.538   6.032  11.325  0.3116  0.9906  2.1659
   49DOPE   H5Y 6283   8.509   5.858  11.348  0.9860 -0.3676  1.7309
   49DOPE   C36 6284   8.483   5.990  11.530  0.7609 -0.0805  0.9807
   49DOPE   H6X 6285   8.584   5.960  11.565  0.0355 -1.0765  2.3073
   49DOPE   H6Y 6286   8.407   5.919  11.570 -0.0888  0.1988 -0.0869
   49DOPE   C37 6287   8.440   6.131  11.570 -0.0691  0.2383 -0.5611
   49DOPE   H7X 6288   8.337   6.145  11.531 -0.6427  1.1212  1.1706
   49DOPE   H7Y 6289   8.423   6.140  11.679  0.8607  0.9250 -0.4588
   49DOPE   C38 6290   8.539   6.241  11.517 -0.1869 -0.1535 -0.1862
   49DOPE   H8X 6291   8.566   6.221  11.411 -0.6494 -1.5559 -0.0718
   49DOPE   H8Y 6292   8.634   6.227  11.574 -0.7218  2.8017  1.6360
   49DOPE   C39 6293   8.483   6.384  11.545  0.3623  0.5408 -0.2955
   49DOPE   H9X 6294   8.374   6.390  11.530  0.2752 -1.2904 -0.6925
   49DOPE  C310 6295   8.542   6.491  11.609  0.2991  0.1100 -0.7960
   49DOPE  H10X 6296   8.482   6.579  11.635  0.6702 -0.1242  0.9766
   49DOPE  C311 6297   8.683   6.492  11.668 -0.2320  0.3700  0.9531
   49DOPE  H11X 6298   8.739   6.402  11.634 -0.0201  0.3539  1.3419
   49DOPE  H11Y 6299   8.742   6.576  11.625  0.7885 -0.1663  1.2719
   49DOPE  C312 6300   8.686   6.492  11.823 -0.4630  0.0610 -0.3204
   49DOPE  H12X 6301   8.633   6.582  11.863  0.5041 -0.4940  2.4573
   49DOPE  H12Y 6302   8.790   6.494  11.863 -0.1646 -1.8455 -0.9430
   49DOPE  C313 6303   8.632   6.360  11.888  0.2506 -0.5938  0.8718
   49DOPE  H13X 6304   8.527   6.366  11.924  0.3050 -1.2657  1.1549
   49DOPE  H13Y 6305   8.625   6.279  11.812  2.9831 -1.9775  1.9449
   49DOPE  C314 6306   8.704   6.318  12.020 -0.2225  0.3900  0.1682
   49DOPE  H14X 6307   8.668   6.382  12.103  0.5893 -0.0841  0.8983
   49DOPE  H14Y 6308   8.810   6.340  11.998  0.0918 -1.1612 -0.0304
   49DOPE  C315 6309   8.681   6.176  12.072 -0.5511 -0.5101  0.0104
   49DOPE  H15X 6310   8.720   6.105  11.996 -0.1770  0.6572 -0.9102
   49DOPE  H15Y 6311   8.573   6.151  12.077  0.0990 -3.7319  0.5477
   49DOPE  C316 6312   8.747   6.160  12.206 -0.4317  0.5322 -0.2010
   49DOPE  H16X 6313   8.692   6.222  12.280 -1.3628  1.0556 -1.3012
   49DOPE  H16Y 6314   8.857   6.176  12.202 -0.6635  1.9034 -3.2373
   49DOPE  C317 6315   8.729   6.021  12.251 -0.2624  0.4773 -0.0901
   49DOPE  H17X 6316   8.620   6.000  12.240  0.1723 -2.1231 -0.1438
   49DOPE  H17Y 6317   8.773   5.946  12.182  0.9346  1.2440 -0.1753
   49DOPE  C318 6318   8.782   5.983  12.390 -0.4573 -0.0652  0.2796
   49DOPE  H18X 6319   8.750   6.054  12.470 -1.5243 -0.7937  0.5292
   49DOPE  H18Y 6320   8.728   5.890  12.420  2.0856 -1.2215  1.6134
   49DOPE  H18Z 6321   8.893   5.975  12.394 -0.3641  0.4812 -1.0115
   50DOPE     N 6322   0.005   6.585  11.103 -0.1567 -0.3459  0.1191
   50DOPE   HN1 6323   0.074   6.508  11.114 -1.6125 -1.6995 -0.0223
   50DOPE   HN2 6324   0.022   6.658  11.175  1.2196  0.7800 -1.2526
   50DOPE   HN3 6325  -0.083   6.538  11.129 -0.6146  0.9004  0.9088
   50DOPE   C12 6326   0.013   6.623  10.958  0.0935  0.9394  0.5638
   50DOPE  H12A 6327  -0.051   6.712  10.936  0.1282  0.9414  0.4671
   50DOPE  H12B 6328  -0.022   6.535  10.901 -0.4159  0.4223  1.6530
   50DOPE   C11 6329   0.148   6.646  10.913 -0.7423 -0.2485 -0.4752
   50DOPE  H11A 6330   0.168   6.752  10.939 -1.3927 -0.3523  0.4832
   50DOPE  H11B 6331   0.159   6.647  10.802 -2.2330 -1.7018 -0.6835
   50DOPE     P 6332   0.283   6.425  10.886  0.0135 -0.3449 -0.2988
   50DOPE   O13 6333   0.357   6.458  10.761  0.5856 -0.3343 -0.3619
   50DOPE   O14 6334   0.153   6.353  10.864 -0.1817  0.3851 -0.1128
   50DOPE   O11 6335   0.374   6.345  10.995  0.1738 -0.3190  0.1306
   50DOPE   O12 6336   0.243   6.552  10.969 -0.0416 -0.3191  0.1928
   50DOPE    C1 6337   0.498   6.400  11.038 -0.0264 -0.0948  0.0680
   50DOPE    HA 6338   0.501   6.398  11.149 -1.0780  0.9837  0.1435
   50DOPE    HB 6339   0.498   6.504  10.998 -0.5230  0.3565  1.1816
   50DOPE    C2 6340   0.626   6.319  10.989  0.2809 -0.2629  0.1449
   50DOPE    HS 6341   0.606   6.308  10.880  0.4520  3.6636 -0.4319
   50DOPE   O21 6342   0.633   6.195  11.054 -0.0119  0.0750 -0.3690
   50DOPE   C21 6343   0.703   6.098  10.999  0.6453  0.7534  0.7828
   50DOPE   O22 6344   0.758   6.097  10.891 -0.4827  0.4160  0.2270
   50DOPE   C22 6345   0.696   5.983  11.094  0.0042 -0.0125 -0.5839
   50DOPE   H2R 6346   0.612   5.912  11.072  0.8234 -1.7959  1.6673
   50DOPE   H2S 6347   0.680   6.023  11.196 -0.2436 -0.4723 -0.4369
   50DOPE    C3 6348   0.755   6.400  11.015  0.4079  0.2256 -0.6078
   50DOPE    HX 6349   0.740   6.489  10.949  0.1707  0.6483  0.0062
   50DOPE    HY 6350   0.846   6.342  10.987 -0.9304 -1.3157 -1.9247
   50DOPE   O31 6351   0.758   6.436  11.163 -0.3372  0.5826  0.0681
   50DOPE   C31 6352   0.824   6.358  11.254  0.2226 -0.2649 -0.8541
   50DOPE   O32 6353   0.885   6.256  11.227  0.4232 -0.3740 -0.5353
   50DOPE   C32 6354   0.823   6.417  11.392 -0.2253 -0.1209  0.0344
   50DOPE   H2X 6355   0.877   6.514  11.391 -2.2463  1.1029  1.7422
   50DOPE   H2Y 6356   0.720   6.450  11.418 -0.0683  0.5437 -0.1604
   50DOPE   C23 6357   0.837   5.909  11.099 -0.2665 -0.4565 -0.3055
   50DOPE   H3R 6358   0.919   5.985  11.090 -0.3175 -0.0197  2.1864
   50DOPE   H3S 6359   0.857   5.844  11.011  2.4559 -0.7066  0.3956
   50DOPE   C24 6360   0.854   5.825  11.226  0.3186 -0.1266  0.3908
   50DOPE   H4R 6361   0.930   5.749  11.199  2.0648  1.0169  1.8669
   50DOPE   H4S 6362   0.761   5.770  11.252 -0.1099  1.4253  2.4000
   50DOPE   C25 6363   0.910   5.892  11.347  0.1958 -0.7308 -0.5476
   50DOPE   H5R 6364   0.843   5.967  11.393 -0.7877 -1.2448 -1.1025
   50DOPE   H5S 6365   1.005   5.937  11.313  0.3810  0.2813  1.2182
   50DOPE   C26 6366   0.969   5.791  11.450  0.2261  0.3538 -0.1956
   50DOPE   H6R 6367   1.053   5.729  11.413  0.1172  0.3751 -0.4798
   50DOPE   H6S 6368   0.884   5.720  11.463  0.9960 -0.6060 -0.2845
   50DOPE   C27 6369   1.016   5.852  11.582  0.6250  0.7440 -0.7356
   50DOPE   H7R 6370   0.941   5.931  11.608  2.5139  2.4065 -0.0535
   50DOPE   H7S 6371   1.105   5.916  11.564 -0.0806  2.0815  0.3164
   50DOPE   C28 6372   0.995   5.769  11.708  0.1939 -0.4577 -0.0851
   50DOPE   H8R 6373   0.906   5.703  11.700 -0.8008  0.7720  0.5838
   50DOPE   H8S 6374   0.969   5.843  11.786 -0.6702  0.2609 -1.0171
   50DOPE   C29 6375   1.110   5.681  11.731  0.0118 -0.4642  0.1395
   50DOPE   H9R 6376   1.122   5.604  11.654  1.1720  0.8874 -1.0876
   50DOPE  C210 6377   1.189   5.675  11.841 -0.0051  0.4414 -0.7061
   50DOPE  H10R 6378   1.279   5.613  11.835 -0.5362 -0.3524 -0.6616
   50DOPE  C211 6379   1.174   5.765  11.961 -0.0500  0.1671  0.4797
   50DOPE  H11R 6380   1.111   5.851  11.931  0.0515 -0.5980 -2.1877
   50DOPE  H11S 6381   1.270   5.811  11.992  0.2089  0.4782 -0.7160
   50DOPE  C212 6382   1.119   5.688  12.082  0.0735 -0.8373  0.4207
   50DOPE  H12R 6383   1.205   5.627  12.117  0.6871  0.9981  2.3599
   50DOPE  H12S 6384   1.040   5.616  12.052 -1.5534  1.8944 -2.4765
   50DOPE  C213 6385   1.060   5.789  12.183 -0.4991 -0.0053  0.6294
   50DOPE  H13R 6386   0.988   5.852  12.127  1.2543  2.7224  1.2256
   50DOPE  H13S 6387   1.147   5.850  12.216 -1.4555  0.5197  2.3322
   50DOPE  C214 6388   1.008   5.721  12.313 -0.1636 -0.3011  0.4216
   50DOPE  H14R 6389   0.994   5.797  12.393  1.3087  1.0050 -0.5019
   50DOPE  H14S 6390   1.068   5.634  12.347 -1.0993 -1.6669 -1.2173
   50DOPE  C215 6391   0.862   5.667  12.284 -0.9029 -0.0901  0.1509
   50DOPE  H15R 6392   0.873   5.578  12.218 -0.6992  1.6921 -2.3689
   50DOPE  H15S 6393   0.803   5.741  12.224  2.5318  0.5606 -2.7673
   50DOPE  C216 6394   0.786   5.634  12.407 -0.0669 -0.1136  0.2799
   50DOPE  H16R 6395   0.787   5.716  12.482  2.4879  0.5938 -0.4508
   50DOPE  H16S 6396   0.837   5.551  12.461 -0.2179 -0.7191 -0.4834
   50DOPE  C217 6397   0.642   5.596  12.393  0.3328  0.2054  0.0081
   50DOPE  H17R 6398   0.605   5.540  12.481 -0.5678  2.7618  1.3697
   50DOPE  H17S 6399   0.621   5.530  12.306  0.7232 -0.9189  0.7549
   50DOPE  C218 6400   0.530   5.705  12.389  0.3328 -0.1599 -0.1065
   50DOPE  H18R 6401   0.439   5.642  12.385  1.8243 -2.4195 -0.3039
   50DOPE  H18S 6402   0.528   5.773  12.302 -0.6461  0.0326  0.0566
   50DOPE  H18T 6403   0.523   5.767  12.481 -1.3779  0.6093 -0.7255
   50DOPE   C33 6404   0.869   6.323  11.510 -0.9209  0.0429 -0.0377
   50DOPE   H3X 6405   0.821   6.223  11.502 -2.2769  0.6477  0.3887
   50DOPE   H3Y 6406   0.827   6.365  11.603  0.0416 -2.4865  1.6746
   50DOPE   C34 6407   1.020   6.306  11.521  0.3071 -0.6294 -0.3809
   50DOPE   H4X 6408   1.060   6.226  11.455  1.2062 -0.9644  0.5315
   50DOPE   H4Y 6409   1.072   6.399  11.490  3.1511 -1.5737  1.2379
   50DOPE   C35 6410   1.065   6.268  11.663  0.4017 -0.1453 -0.2443
   50DOPE   H5X 6411   1.022   6.167  11.676  0.1783 -0.0096  0.0799
   50DOPE   H5Y 6412   1.019   6.328  11.744  0.3020 -0.1597 -0.2901
   50DOPE   C36 6413   1.216   6.272  11.693  1.1218  0.6843  0.8268
   50DOPE   H6X 6414   1.247   6.375  11.666  1.0609  0.0186 -2.0922
   50DOPE   H6Y 6415   1.256   6.206  11.613 -0.5806  1.6502 -0.8978
   50DOPE   C37 6416   1.248   6.221  11.836  0.0393  0.0489 -0.3245
   50DOPE   H7X 6417   1.209   6.296  11.909  1.3807 -0.4563  0.9690
   50DOPE   H7Y 6418   1.180   6.135  11.852  1.7694 -0.7776  3.8815
   50DOPE   C38 6419   1.391   6.198  11.886  0.2676 -0.4832  0.3461
   50DOPE   H8X 6420   1.434   6.300  11.881 -0.4947 -0.0708  1.6591
   50DOPE   H8Y 6421   1.453   6.139  11.816 -0.8739 -0.5469 -0.6508
   50DOPE   C39 6422   1.405   6.143  12.028  0.3176 -0.1747 -0.3506
   50DOPE   H9X 6423   1.454   6.044  12.024  1.3007  0.3079 -0.4953
   50DOPE  C310 6424   1.385   6.208  12.143 -0.0526 -0.3996  0.1639
   50DOPE  H10X 6425   1.386   6.150  12.236 -0.4513 -1.8741 -0.7072
   50DOPE  C311 6426   1.353   6.358  12.163  0.2933 -0.0539  0.1755
   50DOPE  H11X 6427   1.451   6.410  12.168  0.4177 -0.2632 -0.0605
   50DOPE  H11Y 6428   1.298   6.399  12.076 -3.1478 -5.5937 -0.7156
   50DOPE  C312 6429   1.285   6.372  12.304 -0.2513  0.0155 -0.2012
   50DOPE  H12X 6430   1.208   6.293  12.319  0.7474 -0.9881 -0.2321
   50DOPE  H12Y 6431   1.245   6.476  12.314 -0.6608 -0.1910  0.3927
   50DOPE  C313 6432   1.386   6.356  12.416 -0.0510  0.1654  0.4095
   50DOPE  H13X 6433   1.404   6.251  12.449  2.8960  0.4577  0.0638
   50DOPE  H13Y 6434   1.484   6.399  12.384 -1.1468  1.4181 -1.4962
   50DOPE  C314 6435   1.345   6.436  12.537 -0.3957 -0.2995 -1.0381
   50DOPE  H14X 6436   1.235   6.426  12.551 -0.2377 -0.6724  0.0296
   50DOPE  H14Y 6437   1.361   6.545  12.520  0.7011 -0.2304  0.3198
   50DOPE  C315 6438   1.426   6.399  12.665  0.1218  0.5415 -0.4091
   50DOPE  H15X 6439   1.532   6.377  12.640 -0.4789 -2.4843 -0.7174
   50DOPE  H15Y 6440   1.385   6.306  12.711  0.0274 -0.6158 -2.6429
   50DOPE  C316 6441   1.433   6.520  12.768  0.3052  0.1843 -0.1859
   50DOPE  H16X 6442   1.349   6.509  12.841  0.7494 -1.1556  0.1548
   50DOPE  H16Y 6443   1.425   6.617  12.714  0.7229  0.0518 -0.4864
   50DOPE  C317 6444   1.551   6.505  12.867 -0.8630  0.2911  0.4163
   50DOPE  H17X 6445   1.517   6.541  12.967 -1.1959 -0.9277  0.7545
   50DOPE  H17Y 6446   1.568   6.396  12.879 -1.6301  0.3037  1.9241
   50DOPE  C318 6447   1.675   6.581  12.819  0.0806  0.2123 -0.7265
   50DOPE  H18X 6448   1.746   6.562  12.902 -0.2495  0.3381 -0.4127
   50DOPE  H18Y 6449   1.711   6.551  12.718  0.0375  0.1426 -0.7215
   50DOPE  H18Z 6450   1.647   6.688  12.818 -1.1588 -0.0577  0.8788
   51DOPE     N 6451   4.989   0.640  10.955  0.1919 -0.5783 -0.3454
   51DOPE   HN1 6452   5.070   0.575  10.952 -0.2594 -1.5058  3.0776
   51DOPE   HN2 6453   4.922   0.615  10.880  0.6735 -3.3680  0.0529
   51DOPE   HN3 6454   5.017   0.738  10.935  0.6892 -0.9959 -1.7848
   51DOPE   C12 6455   4.931   0.624  11.101 -0.3208 -0.8778 -0.5187
   51DOPE  H12A 6456   5.000   0.691  11.158  0.6144 -0.0015 -2.5886
   51DOPE  H12B 6457   4.956   0.521  11.135  2.8924 -0.2581 -0.6731
   51DOPE   C11 6458   4.787   0.660  11.125 -1.2231 -0.1660  0.4346
   51DOPE  H11A 6459   4.769   0.764  11.090 -0.1383 -0.7617 -2.1811
   51DOPE  H11B 6460   4.773   0.655  11.235  0.6176 -1.3522  0.6704
   51DOPE     P 6461   4.662   0.608  10.907  0.2169 -0.0543  0.1160
   51DOPE   O13 6462   4.774   0.581  10.813  0.2604  0.6862 -0.1542
   51DOPE   O14 6463   4.607   0.743  10.898 -0.1983  0.1326 -0.0199
   51DOPE   O11 6464   4.554   0.499  10.886  0.3429 -0.8679 -0.3002
   51DOPE   O12 6465   4.697   0.566  11.062 -0.4119  0.3772  0.0370
   51DOPE    C1 6466   4.563   0.366  10.930  0.0895 -0.2599 -0.3645
   51DOPE    HA 6467   4.532   0.359  11.036  0.4711  1.6766 -0.1018
   51DOPE    HB 6468   4.670   0.342  10.911  0.3280  0.2978  0.2441
   51DOPE    C2 6469   4.481   0.262  10.842 -0.0007 -0.2685 -0.1018
   51DOPE    HS 6470   4.507   0.294  10.739 -1.0952 -1.6747 -0.8397
   51DOPE   O21 6471   4.340   0.281  10.872  0.4283 -0.3207 -0.3185
   51DOPE   C21 6472   4.263   0.240  10.776 -0.3206  0.2901  0.1931
   51DOPE   O22 6473   4.297   0.198  10.664 -0.3468  0.5315  0.0025
   51DOPE   C22 6474   4.125   0.261  10.803  0.0534  0.7394 -0.6598
   51DOPE   H2R 6475   4.065   0.228  10.716  0.9341  1.0406 -1.4076
   51DOPE   H2S 6476   4.105   0.370  10.814  0.2071  1.0213 -2.7788
   51DOPE    C3 6477   4.527   0.114  10.866 -0.4144 -0.1159  1.0680
   51DOPE    HX 6478   4.638   0.119  10.862 -0.2792 -1.4521  2.4349
   51DOPE    HY 6479   4.487   0.059  10.779  0.5927 -0.1224  0.5944
   51DOPE   O31 6480   4.501   0.071  11.003 -0.1502  0.6832 -0.1130
   51DOPE   C31 6481   4.399  -0.006  11.009 -0.2319  0.4426 -0.4226
   51DOPE   O32 6482   4.320  -0.038  10.919 -0.2214 -0.0384 -0.9596
   51DOPE   C32 6483   4.397  -0.065  11.156  0.6158 -0.1741 -0.0462
   51DOPE   H2X 6484   4.439  -0.167  11.141  0.8802  0.0058 -0.5359
   51DOPE   H2Y 6485   4.467  -0.011  11.223  0.4691 -0.1240  0.0681
   51DOPE   C23 6486   4.080   0.186  10.929  0.4380  0.6226 -0.3449
   51DOPE   H3R 6487   4.042   0.264  10.998  0.5363  0.2923  0.0841
   51DOPE   H3S 6488   4.160   0.135  10.987 -0.4195 -0.2020  0.1247
   51DOPE   C24 6489   3.967   0.088  10.896 -1.0525 -0.0727  0.3811
   51DOPE   H4R 6490   4.008   0.018  10.820 -0.8740  0.3130  0.1185
   51DOPE   H4S 6491   3.878   0.128  10.844 -1.2209  0.2038  0.8780
   51DOPE   C25 6492   3.915   0.011  11.015 -0.4507  0.1135 -0.4439
   51DOPE   H5R 6493   4.004  -0.039  11.057 -1.0919  0.7695  1.8069
   51DOPE   H5S 6494   3.844  -0.064  10.974 -0.6669  1.3722 -2.5929
   51DOPE   C26 6495   3.841   0.089  11.123 -0.0624  0.3225 -0.7598
   51DOPE   H6R 6496   3.752   0.133  11.073 -1.2950 -3.2663 -2.1162
   51DOPE   H6S 6497   3.911   0.163  11.165 -1.2397  1.0508 -0.0260
   51DOPE   C27 6498   3.778  -0.002  11.234  0.7116  0.3360  0.1166
   51DOPE   H7R 6499   3.853  -0.079  11.263  0.6324  0.4489  0.6344
   51DOPE   H7S 6500   3.686  -0.048  11.192  0.1006  0.2983  1.4624
   51DOPE   C28 6501   3.725   0.089  11.355 -0.1862  0.4144  0.5415
   51DOPE   H8R 6502   3.656   0.030  11.419  2.5437 -1.9556  1.5307
   51DOPE   H8S 6503   3.673   0.177  11.311 -1.7424 -0.1091  1.2751
   51DOPE   C29 6504   3.825   0.157  11.439 -0.5749  0.4019 -0.0507
   51DOPE   H9R 6505   3.930   0.128  11.423  0.0677  1.9253  1.0892
   51DOPE  C210 6506   3.799   0.256  11.525 -0.2009  0.4875  0.8396
   51DOPE  H10R 6507   3.889   0.291  11.577  0.3283  3.0952 -1.6050
   51DOPE  C211 6508   3.666   0.327  11.553 -0.6476 -0.3198  0.5692
   51DOPE  H11R 6509   3.592   0.315  11.470  0.4207  3.4743 -1.1673
   51DOPE  H11S 6510   3.674   0.437  11.542 -0.5911 -0.4625 -1.1756
   51DOPE  C212 6511   3.601   0.286  11.682  0.1096 -0.0761 -0.4849
   51DOPE  H12R 6512   3.581   0.178  11.699  3.8251 -0.3656  4.6442
   51DOPE  H12S 6513   3.506   0.344  11.689 -0.1489 -0.1829 -2.5477
   51DOPE  C213 6514   3.679   0.316  11.816  0.6608  0.2600  0.6147
   51DOPE  H13R 6515   3.700   0.425  11.812 -2.3237  0.9874  2.1984
   51DOPE  H13S 6516   3.772   0.255  11.825  1.6605  1.4174 -1.2506
   51DOPE  C214 6517   3.589   0.300  11.938  0.3631 -0.6476 -0.9164
   51DOPE  H14R 6518   3.481   0.284  11.918  0.0762 -1.7102  1.1816
   51DOPE  H14S 6519   3.590   0.390  12.002 -0.1649 -1.7297  0.6863
   51DOPE  C215 6520   3.623   0.175  12.030  0.0074  0.9341  0.5701
   51DOPE  H15R 6521   3.573   0.193  12.128 -0.1444  0.0170  0.6684
   51DOPE  H15S 6522   3.733   0.176  12.040 -0.0323  0.4491  1.0983
   51DOPE  C216 6523   3.573   0.047  11.971  0.5436  0.2813  0.4118
   51DOPE  H16R 6524   3.627   0.034  11.875 -2.3057  0.7934 -1.3949
   51DOPE  H16S 6525   3.469   0.057  11.932 -0.5355  3.4418  3.5051
   51DOPE  C217 6526   3.592  -0.080  12.058 -0.3537 -0.2645 -0.0648
   51DOPE  H17R 6527   3.548  -0.055  12.157 -1.2371  0.3868 -0.6068
   51DOPE  H17S 6528   3.702  -0.089  12.071 -0.2199 -0.6764 -1.3696
   51DOPE  C218 6529   3.538  -0.207  11.993 -0.4604 -0.5844 -0.7975
   51DOPE  H18R 6530   3.550  -0.206  11.883 -1.8273  0.8608 -0.9633
   51DOPE  H18S 6531   3.429  -0.215  12.014 -0.3974  1.2108  0.4247
   51DOPE  H18T 6532   3.593  -0.298  12.027  1.5818  0.0606 -2.1681
   51DOPE   C33 6533   4.255  -0.083  11.219 -0.0211 -0.9650  0.4125
   51DOPE   H3X 6534   4.248  -0.183  11.267 -1.5629 -1.1284 -0.0923
   51DOPE   H3Y 6535   4.183  -0.083  11.135  0.3052  3.8297 -0.1715
   51DOPE   C34 6536   4.202   0.033  11.313 -0.1472 -0.5634 -0.0322
   51DOPE   H4X 6537   4.248   0.122  11.265 -0.2282  0.1468  1.1773
   51DOPE   H4Y 6538   4.091   0.028  11.318 -0.2556  0.5507 -0.9669
   51DOPE   C35 6539   4.261   0.030  11.457 -0.3045 -0.4111  0.5448
   51DOPE   H5X 6540   4.283   0.135  11.486 -1.4173  0.4001 -1.3695
   51DOPE   H5Y 6541   4.357  -0.026  11.456 -0.4834 -0.7710  1.7203
   51DOPE   C36 6542   4.175  -0.036  11.556  0.0467  0.3917 -0.0635
   51DOPE   H6X 6543   4.144  -0.126  11.498 -0.4013 -0.0025  0.7714
   51DOPE   H6Y 6544   4.079   0.017  11.575  0.5251  2.2026 -2.2191
   51DOPE   C37 6545   4.239  -0.083  11.684 -0.0659 -0.1833  0.5851
   51DOPE   H7X 6546   4.198  -0.178  11.723  0.3889  0.1613  1.9506
   51DOPE   H7Y 6547   4.350  -0.085  11.670 -0.1650  0.2729 -0.3529
   51DOPE   C38 6548   4.222   0.020  11.796  0.0521 -0.3083 -0.5252
   51DOPE   H8X 6549   4.254  -0.037  11.886 -0.1281 -0.3759 -0.5040
   51DOPE   H8Y 6550   4.112   0.034  11.802 -0.0533  0.0777 -2.5887
   51DOPE   C39 6551   4.292   0.154  11.786 -0.3750 -0.0278  0.3867
   51DOPE   H9X 6552   4.399   0.149  11.759 -0.9523 -1.3065 -1.9522
   51DOPE  C310 6553   4.221   0.261  11.807 -0.8094  0.4356  0.1182
   51DOPE  H10X 6554   4.272   0.359  11.811  0.5167 -0.2575  1.2720
   51DOPE  C311 6555   4.079   0.272  11.862 -0.5046  0.4050  0.4803
   51DOPE  H11X 6556   4.043   0.377  11.854  2.1232  1.2142 -2.3348
   51DOPE  H11Y 6557   4.003   0.223  11.798 -1.4232  3.5676 -1.0748
   51DOPE  C312 6558   4.053   0.230  12.007  0.4517  0.3476 -0.4593
   51DOPE  H12X 6559   4.094   0.128  12.018  0.6565  0.3066 -1.5672
   51DOPE  H12Y 6560   3.945   0.229  12.034  0.6951  0.2771  0.5693
   51DOPE  C313 6561   4.113   0.336  12.106  0.0920 -0.0180 -0.6631
   51DOPE  H13X 6562   4.138   0.290  12.205 -0.3458  1.4866  0.1755
   51DOPE  H13Y 6563   4.211   0.359  12.058  0.8942 -1.3430  0.2642
   51DOPE  C314 6564   4.014   0.456  12.128 -0.1289  0.1557  0.2131
   51DOPE  H14X 6565   3.918   0.417  12.168  1.3550  0.7054  4.9070
   51DOPE  H14Y 6566   3.993   0.510  12.034 -0.8526 -1.7776 -0.8020
   51DOPE  C315 6567   4.060   0.543  12.242  0.2715  0.6571 -0.3495
   51DOPE  H15X 6568   4.155   0.597  12.223  0.5900 -0.4862 -2.2792
   51DOPE  H15Y 6569   4.081   0.475  12.328  3.0748  0.5671 -1.0044
   51DOPE  C316 6570   3.952   0.634  12.297 -0.0549  0.1272  0.6671
   51DOPE  H16X 6571   3.857   0.577  12.306 -0.7642  1.1125 -0.2474
   51DOPE  H16Y 6572   3.945   0.716  12.222  0.2183 -0.2852  0.1791
   51DOPE  C317 6573   3.994   0.699  12.426  0.0556  1.0747  0.5332
   51DOPE  H17X 6574   4.000   0.620  12.504  0.1115  2.3716  1.8879
   51DOPE  H17Y 6575   4.104   0.711  12.413  0.1413  0.4717  0.6832
   51DOPE  C318 6576   3.913   0.816  12.473  0.0087 -0.0792  0.0318
   51DOPE  H18X 6577   3.971   0.873  12.548 -1.2967  2.2271 -0.5961
   51DOPE  H18Y 6578   3.898   0.893  12.395 -0.7001  1.6996  1.8354
   51DOPE  H18Z 6579   3.816   0.785  12.520 -0.6358 -0.4817 -1.4961
   52DOPE     N 6580   7.823   4.267  10.886  0.1648 -0.1122  0.3156
   52DOPE   HN1 6581   7.730   4.311  10.897  0.8814  1.6855 -0.3528
   52DOPE   HN2 6582   7.893   4.342  10.905 -0.2536  0.2839  0.3269
   52DOPE   HN3 6583   7.826   4.252  10.783 -0.7889  1.0574  0.0955
   52DOPE   C12 6584   7.840   4.139  10.966 -0.0759 -0.2555 -0.3386
   52DOPE  H12A 6585   7.773   4.155  11.053 -2.0748 -0.8088 -1.6993
   52DOPE  H12B 6586   7.944   4.135  11.005 -0.4601 -0.7458  0.6723
   52DOPE   C11 6587   7.794   4.010  10.895  0.9746  0.3232  0.5547
   52DOPE  H11A 6588   7.819   3.928  10.966 -0.8661  0.2949  1.2190
   52DOPE  H11B 6589   7.858   3.986  10.807 -0.9950 -2.1002 -0.3535
   52DOPE     P 6590   7.531   3.988  10.940  0.2998  0.4865  0.2038
   52DOPE   O13 6591   7.424   3.914  10.869 -0.4202  0.1955  0.1217
   52DOPE   O14 6592   7.493   4.121  10.993  0.1483  1.2485 -0.0822
   52DOPE   O11 6593   7.589   3.894  11.054 -0.0125 -0.5352  0.3089
   52DOPE   O12 6594   7.653   4.002  10.848 -0.0279 -0.0536 -0.1749
   52DOPE    C1 6595   7.600   3.934  11.190  0.1874  0.3108 -0.1908
   52DOPE    HA 6596   7.637   4.039  11.191 -0.5837  0.5987 -0.8286
   52DOPE    HB 6597   7.678   3.871  11.237  0.4958 -0.7199 -2.0057
   52DOPE    C2 6598   7.468   3.920  11.279 -0.0538  0.4754  0.9409
   52DOPE    HS 6599   7.493   3.915  11.387  1.6166  0.9890  0.6092
   52DOPE   O21 6600   7.396   3.802  11.245 -0.1428  0.7382 -0.1439
   52DOPE   C21 6601   7.440   3.695  11.298 -0.4607 -0.5813 -0.1981
   52DOPE   O22 6602   7.530   3.694  11.380  1.0810 -0.3741 -0.3773
   52DOPE   C22 6603   7.371   3.575  11.232  0.3734 -0.4471  0.2677
   52DOPE   H2R 6604   7.413   3.569  11.130 -1.7989  0.9329 -0.7794
   52DOPE   H2S 6605   7.264   3.596  11.217  0.7401  0.1946 -1.6574
   52DOPE    C3 6606   7.375   4.045  11.267  0.4348 -0.3953  0.0574
   52DOPE    HX 6607   7.336   4.049  11.163  1.3835 -1.0293 -0.3340
   52DOPE    HY 6608   7.440   4.134  11.284 -1.4519  0.9466  0.5579
   52DOPE   O31 6609   7.274   4.058  11.367 -0.2443 -0.1859 -0.5108
   52DOPE   C31 6610   7.149   4.014  11.326 -0.0237  0.5013  0.2006
   52DOPE   O32 6611   7.124   3.962  11.217 -0.3416  0.1870 -0.0450
   52DOPE   C32 6612   7.040   4.043  11.432  0.3811 -0.6872  0.1892
   52DOPE   H2X 6613   7.095   4.096  11.513 -0.4920 -0.9539  0.9701
   52DOPE   H2Y 6614   6.977   4.117  11.378 -0.4797 -0.7065  1.1441
   52DOPE   C23 6615   7.388   3.448  11.325 -0.7118 -0.1029 -0.0310
   52DOPE   H3R 6616   7.358   3.479  11.428 -1.6935 -2.4971  0.4682
   52DOPE   H3S 6617   7.496   3.422  11.333 -1.2601 -3.2975 -1.6445
   52DOPE   C24 6618   7.293   3.327  11.288 -0.2781 -0.6258  0.3696
   52DOPE   H4R 6619   7.304   3.308  11.179  0.9162  0.5455  0.2576
   52DOPE   H4S 6620   7.187   3.354  11.304 -0.5518 -1.3424 -0.1816
   52DOPE   C25 6621   7.327   3.210  11.384 -0.1713 -0.6665 -0.8696
   52DOPE   H5R 6622   7.435   3.190  11.403 -0.5967 -1.6503  0.7491
   52DOPE   H5S 6623   7.282   3.117  11.344  0.1205 -2.6814  3.0409
   52DOPE   C26 6624   7.270   3.237  11.522 -0.4228 -0.1261  0.4224
   52DOPE   H6R 6625   7.164   3.262  11.499  0.8521  3.3182 -2.4966
   52DOPE   H6S 6626   7.318   3.322  11.574 -0.2334  0.1447 -0.1942
   52DOPE   C27 6627   7.277   3.117  11.616 -0.0357  0.3227  0.2285
   52DOPE   H7R 6628   7.382   3.084  11.624  0.5817  1.7110 -1.5455
   52DOPE   H7S 6629   7.216   3.030  11.585  1.6349 -0.2519 -1.6659
   52DOPE   C28 6630   7.238   3.138  11.765 -0.0671 -0.0556  0.1783
   52DOPE   H8R 6631   7.130   3.158  11.780  0.2081  1.7046 -0.0252
   52DOPE   H8S 6632   7.293   3.232  11.786  1.4099 -0.4429 -1.6506
   52DOPE   C29 6633   7.282   3.022  11.850 -0.2617 -0.0722  0.0983
   52DOPE   H9R 6634   7.246   2.923  11.817  0.2435 -0.4901  0.7631
   52DOPE  C210 6635   7.373   3.021  11.942  0.4014 -0.7229 -0.1426
   52DOPE  H10R 6636   7.395   2.924  11.989 -0.1749 -0.8145 -0.0609
   52DOPE  C211 6637   7.469   3.142  11.965  0.1868  0.3308 -0.6854
   52DOPE  H11R 6638   7.507   3.173  11.865  2.3751 -2.7636 -0.9659
   52DOPE  H11S 6639   7.560   3.120  12.024  0.2379 -0.2652 -0.9815
   52DOPE  C212 6640   7.420   3.263  12.039  0.5945 -0.6058 -0.0016
   52DOPE  H12R 6641   7.379   3.247  12.142 -2.3578  1.0000 -0.8019
   52DOPE  H12S 6642   7.329   3.309  11.996 -1.6522 -1.4957  3.3846
   52DOPE  C213 6643   7.527   3.372  12.063 -0.4715 -0.5287 -0.0746
   52DOPE  H13R 6644   7.623   3.319  12.079 -1.1130 -1.8055 -0.3256
   52DOPE  H13S 6645   7.505   3.441  12.147 -0.7993 -1.4847  0.6451
   52DOPE  C214 6646   7.551   3.458  11.935 -0.1110 -0.5430 -0.5998
   52DOPE  H14R 6647   7.549   3.404  11.839 -1.9788  0.8372 -1.3926
   52DOPE  H14S 6648   7.648   3.509  11.955 -1.0197  0.9556  0.2005
   52DOPE  C215 6649   7.445   3.568  11.913 -0.0895 -0.2836 -0.6787
   52DOPE  H15R 6650   7.450   3.641  11.996 -0.2992 -1.5962  0.5353
   52DOPE  H15S 6651   7.345   3.523  11.899 -0.8485  1.6199 -1.6427
   52DOPE  C216 6652   7.467   3.651  11.784 -0.0543  0.7438 -0.4016
   52DOPE  H16R 6653   7.384   3.723  11.766  0.2981  0.9583 -1.1958
   52DOPE  H16S 6654   7.463   3.580  11.699 -1.1763  1.1930 -0.7468
   52DOPE  C217 6655   7.596   3.731  11.761 -0.0241 -0.6379  0.2793
   52DOPE  H17R 6656   7.590   3.801  11.674  1.0613  1.8103  2.0729
   52DOPE  H17S 6657   7.685   3.671  11.733  0.2271  0.0248 -0.4022
   52DOPE  C218 6658   7.647   3.803  11.890  0.1881 -0.1328 -0.1325
   52DOPE  H18R 6659   7.672   3.725  11.965 -0.1965 -1.0056 -0.8895
   52DOPE  H18S 6660   7.738   3.857  11.859 -0.0678  0.3912  0.0178
   52DOPE  H18T 6661   7.572   3.869  11.939 -0.6344 -1.1462  0.0094
   52DOPE   C33 6662   6.956   3.923  11.477  0.4217 -0.3145 -0.0051
   52DOPE   H3X 6663   6.955   3.845  11.398 -0.1550  2.7738 -3.2841
   52DOPE   H3Y 6664   6.850   3.956  11.476  0.5000 -0.0347 -2.1601
   52DOPE   C34 6665   6.989   3.858  11.613  0.2034 -1.5336 -0.3907
   52DOPE   H4X 6666   6.990   3.941  11.687 -0.5501  0.4842 -2.5160
   52DOPE   H4Y 6667   6.915   3.785  11.651 -1.6497  0.4339 -0.0918
   52DOPE   C35 6668   7.130   3.805  11.631 -0.4305 -0.0922  0.3550
   52DOPE   H5X 6669   7.144   3.792  11.740 -1.1659  0.7405  0.5590
   52DOPE   H5Y 6670   7.207   3.878  11.595  0.0242 -0.8834 -0.3239
   52DOPE   C36 6671   7.177   3.685  11.553 -1.0906  0.0409  0.1901
   52DOPE   H6X 6672   7.286   3.670  11.567 -1.4594 -1.9035  1.4861
   52DOPE   H6Y 6673   7.165   3.691  11.443 -2.3733  1.7104  0.3761
   52DOPE   C37 6674   7.094   3.560  11.584  0.2856 -0.5192 -0.2319
   52DOPE   H7X 6675   6.989   3.591  11.569 -1.0448 -3.4632  1.9122
   52DOPE   H7Y 6676   7.112   3.473  11.516 -1.2829  0.0065 -1.3675
   52DOPE   C38 6677   7.113   3.499  11.728 -0.9625  0.1538  0.1185
   52DOPE   H8X 6678   7.109   3.581  11.802 -0.0980  0.5702 -0.2756
   52DOPE   H8Y 6679   7.214   3.454  11.739 -1.3366 -0.6667  0.2611
   52DOPE   C39 6680   7.006   3.394  11.748 -0.8634  0.3109  0.0746
   52DOPE   H9X 6681   7.020   3.307  11.683  0.1067  0.9901 -0.6589
   52DOPE  C310 6682   6.903   3.408  11.833 -0.0684 -0.4074  0.3231
   52DOPE  H10X 6683   6.850   3.316  11.860  0.6881 -1.3621 -1.3048
   52DOPE  C311 6684   6.874   3.530  11.913  0.0651 -0.4209 -0.2326
   52DOPE  H11X 6685   6.917   3.619  11.862 -2.8273 -0.0928 -2.3405
   52DOPE  H11Y 6686   6.764   3.540  11.921  0.0864  0.0742 -0.4867
   52DOPE  C312 6687   6.934   3.503  12.054 -0.0889  0.1040  0.3693
   52DOPE  H12X 6688   7.043   3.486  12.060 -0.1985 -1.8791 -1.6993
   52DOPE  H12Y 6689   6.893   3.405  12.087  0.2755 -1.0012 -2.2491
   52DOPE  C313 6690   6.913   3.621  12.153  0.7874  0.4608 -0.0824
   52DOPE  H13X 6691   6.944   3.719  12.111  1.6715  0.4260  0.4510
   52DOPE  H13Y 6692   6.805   3.641  12.170  1.1005  2.0580  0.1636
   52DOPE  C314 6693   6.968   3.582  12.289  0.6365 -0.6419 -0.1998
   52DOPE  H14X 6694   7.079   3.577  12.289  0.7857  1.1559 -1.7061
   52DOPE  H14Y 6695   6.925   3.482  12.310 -0.9054  0.2259  0.9980
   52DOPE  C315 6696   6.925   3.677  12.405  0.0468  0.4861  0.5799
   52DOPE  H15X 6697   6.818   3.707  12.395 -0.0845 -0.2986 -0.6494
   52DOPE  H15Y 6698   6.995   3.759  12.429  1.0079 -0.0783 -0.2385
   52DOPE  C316 6699   6.914   3.587  12.525 -0.7204  0.0610  0.1260
   52DOPE  H16X 6700   7.015   3.541  12.532 -1.1048 -1.1106 -1.3830
   52DOPE  H16Y 6701   6.847   3.499  12.512  1.1484 -1.5185  0.5529
   52DOPE  C317 6702   6.896   3.663  12.657 -0.0146 -0.3782  0.5042
   52DOPE  H17X 6703   6.946   3.762  12.660 -0.8114  0.1294 -1.3538
   52DOPE  H17Y 6704   6.786   3.682  12.652  0.1340  0.2260 -2.8350
   52DOPE  C318 6705   6.946   3.576  12.772  0.7961 -0.3999 -0.4682
   52DOPE  H18X 6706   6.913   3.619  12.870  1.2485  1.1790 -0.9788
   52DOPE  H18Y 6707   6.910   3.472  12.760 -0.9717  0.3136 -1.8332
   52DOPE  H18Z 6708   7.056   3.564  12.774  0.9070  0.0716 -2.2757
   53DOPE     N 6709   7.097   7.249  10.517 -0.1513  0.2079 -0.3852
   53DOPE   HN1 6710   7.014   7.212  10.567 -0.6458  1.2222 -0.4396
   53DOPE   HN2 6711   7.066   7.321  10.449  0.4528  1.9760  1.1480
   53DOPE   HN3 6712   7.140   7.175  10.457  0.4064  1.2202 -1.2845
   53DOPE   C12 6713   7.215   7.298  10.596  0.1535  0.2909  0.2708
   53DOPE  H12A 6714   7.185   7.372  10.674 -0.2874  2.0797 -1.5143
   53DOPE  H12B 6715   7.282   7.343  10.519 -0.7503 -1.5893 -1.7013
   53DOPE   C11 6716   7.284   7.185  10.678 -0.7835 -0.6495  0.0276
   53DOPE  H11A 6717   7.213   7.153  10.757 -0.2727  0.1875  0.8432
   53DOPE  H11B 6718   7.369   7.230  10.734 -1.9708 -0.7957  2.0217
   53DOPE     P 6719   7.408   6.951  10.667 -0.1342  0.0737 -0.0782
   53DOPE   O13 6720   7.546   6.962  10.621  0.3258  0.4056  0.1133
   53DOPE   O14 6721   7.338   6.822  10.641  0.1915  0.4311  0.5531
   53DOPE   O11 6722   7.398   6.991  10.815 -0.0861  0.0569 -0.0686
   53DOPE   O12 6723   7.336   7.074  10.597  0.3960 -0.3272 -0.3442
   53DOPE    C1 6724   7.491   6.969  10.917  0.3372  0.3431  0.1164
   53DOPE    HA 6725   7.596   6.977  10.882 -0.0103 -0.0551 -1.0750
   53DOPE    HB 6726   7.491   6.862  10.944  1.5932  0.4175  0.4829
   53DOPE    C2 6727   7.476   7.052  11.047  0.5236 -0.7505  0.6169
   53DOPE    HS 6728   7.570   7.026  11.102  1.5692 -2.0987 -1.6783
   53DOPE   O21 6729   7.354   7.013  11.107  0.4857 -0.3370  0.2952
   53DOPE   C21 6730   7.356   6.906  11.184 -1.4344  0.2707 -0.2223
   53DOPE   O22 6731   7.463   6.843  11.201 -0.1286  0.1371 -0.4535
   53DOPE   C22 6732   7.230   6.881  11.260  0.0668 -0.1692 -0.0119
   53DOPE   H2R 6733   7.203   6.776  11.236 -2.1619  0.4414 -0.4238
   53DOPE   H2S 6734   7.145   6.944  11.224  1.0602  0.2980 -1.6866
   53DOPE    C3 6735   7.472   7.198  11.012 -0.4425 -0.1438  0.0384
   53DOPE    HX 6736   7.376   7.224  10.963  0.2454 -0.6904 -1.6951
   53DOPE    HY 6737   7.554   7.216  10.939  0.8216  0.1132  1.4644
   53DOPE   O31 6738   7.507   7.276  11.124  0.1117 -0.6218 -0.2678
   53DOPE   C31 6739   7.403   7.322  11.193  0.1605  0.5007  0.5668
   53DOPE   O32 6740   7.285   7.315  11.157 -0.0213 -0.3995 -0.4529
   53DOPE   C32 6741   7.450   7.375  11.324  0.6151 -0.2486 -0.2205
   53DOPE   H2X 6742   7.492   7.292  11.384  1.8060 -0.3126 -1.1097
   53DOPE   H2Y 6743   7.531   7.451  11.315  0.4613 -0.1889 -1.2692
   53DOPE   C23 6744   7.259   6.902  11.410  0.6078  0.5330  0.9784
   53DOPE   H3R 6745   7.344   6.834  11.434 -0.6237 -2.4371 -2.1540
   53DOPE   H3S 6746   7.179   6.876  11.481 -0.2966 -1.7653 -0.7563
   53DOPE   C24 6747   7.301   7.043  11.448 -0.6302  0.1614 -0.0376
   53DOPE   H4R 6748   7.250   7.113  11.378 -1.7350  1.2748  1.7967
   53DOPE   H4S 6749   7.411   7.053  11.434 -0.2996 -0.6642  1.6644
   53DOPE   C25 6750   7.267   7.093  11.591 -0.4444  0.0899  0.0876
   53DOPE   H5R 6751   7.158   7.075  11.596 -0.0733 -2.1646  1.8258
   53DOPE   H5S 6752   7.279   7.203  11.604  1.1409  0.1166 -1.3455
   53DOPE   C26 6753   7.343   7.027  11.705 -0.1889 -0.2685  0.6101
   53DOPE   H6R 6754   7.449   7.055  11.689  0.0223 -1.5995 -0.5884
   53DOPE   H6S 6755   7.350   6.918  11.684  1.5492 -0.2331  0.9010
   53DOPE   C27 6756   7.295   7.062  11.850  0.5158 -0.0787 -0.3034
   53DOPE   H7R 6757   7.192   7.104  11.848  0.5246  0.0397  0.8705
   53DOPE   H7S 6758   7.363   7.137  11.897  0.0469 -0.9523  1.8733
   53DOPE   C28 6759   7.292   6.937  11.933 -0.0240  0.7618 -0.4620
   53DOPE   H8R 6760   7.368   6.859  11.911  0.6163  1.1758  0.2647
   53DOPE   H8S 6761   7.196   6.883  11.916  0.5041 -0.6663  0.8196
   53DOPE   C29 6762   7.314   6.970  12.073 -0.0232 -0.2058 -0.8220
   53DOPE   H9R 6763   7.309   7.077  12.101 -0.5557 -0.1989 -0.9272
   53DOPE  C210 6764   7.312   6.880  12.172  0.1804 -0.0161 -0.0702
   53DOPE  H10R 6765   7.327   6.920  12.274 -1.7912  5.5429 -1.6114
   53DOPE  C211 6766   7.324   6.730  12.155 -0.0350 -0.5942  0.8007
   53DOPE  H11R 6767   7.424   6.698  12.193  0.1326 -0.6857  0.2845
   53DOPE  H11S 6768   7.330   6.688  12.053 -0.1032 -0.6140  0.8045
   53DOPE  C212 6769   7.210   6.662  12.237 -0.7465 -0.2346 -0.0108
   53DOPE  H12R 6770   7.199   6.703  12.340 -0.1513  0.2334 -0.1266
   53DOPE  H12S 6771   7.235   6.554  12.243 -1.0381 -0.3203 -0.3038
   53DOPE  C213 6772   7.081   6.695  12.164 -0.3260  0.2289  0.2233
   53DOPE  H13R 6773   7.068   6.627  12.076  2.7642  0.2019 -0.3289
   53DOPE  H13S 6774   7.074   6.798  12.123 -0.7151 -0.7387 -2.3533
   53DOPE  C214 6775   6.951   6.683  12.248 -0.6209 -0.2502  0.0947
   53DOPE  H14R 6776   6.863   6.676  12.180 -0.1182  1.4940 -0.8001
   53DOPE  H14S 6777   6.947   6.779  12.304 -1.7327 -1.4080  2.0990
   53DOPE  C215 6778   6.946   6.565  12.338 -0.3358  0.2083  0.2059
   53DOPE  H15R 6779   7.049   6.554  12.379 -0.7857 -0.0856  1.3095
   53DOPE  H15S 6780   6.921   6.467  12.291  0.4469  0.3476 -0.5110
   53DOPE  C216 6781   6.845   6.577  12.450  0.3565  0.5991 -0.3830
   53DOPE  H16R 6782   6.867   6.662  12.517 -0.3631 -0.9865  1.9782
   53DOPE  H16S 6783   6.854   6.491  12.520 -0.0967  0.6001 -0.3212
   53DOPE  C217 6784   6.697   6.595  12.404  0.5045  0.0500  0.5157
   53DOPE  H17R 6785   6.676   6.677  12.331  1.1701 -0.8971 -0.7877
   53DOPE  H17S 6786   6.638   6.624  12.494  0.5215 -0.7097  0.7741
   53DOPE  C218 6787   6.636   6.460  12.339  0.7048  0.0431  1.0426
   53DOPE  H18R 6788   6.527   6.449  12.351  0.7633 -5.1496 -0.8889
   53DOPE  H18S 6789   6.673   6.365  12.383 -1.2586 -2.4298 -2.2500
   53DOPE  H18T 6790   6.650   6.461  12.229  3.4653  0.3249  1.3157
   53DOPE   C33 6791   7.326   7.432  11.401 -0.3559 -0.2683 -0.3600
   53DOPE   H3X 6792   7.247   7.356  11.418 -0.1088 -0.6905 -1.0146
   53DOPE   H3Y 6793   7.286   7.516  11.341 -0.1751 -0.6691 -1.0579
   53DOPE   C34 6794   7.376   7.472  11.535 -0.1253  0.4944 -0.1473
   53DOPE   H4X 6795   7.452   7.399  11.569  1.3471  1.8496 -0.3917
   53DOPE   H4Y 6796   7.424   7.572  11.521 -1.9737  1.1966 -2.0017
   53DOPE   C35 6797   7.260   7.494  11.636 -0.1437  0.2783 -0.1835
   53DOPE   H5X 6798   7.201   7.400  11.641  0.6236 -0.1695  0.6165
   53DOPE   H5Y 6799   7.201   7.575  11.587  0.8551  0.6604 -0.7770
   53DOPE   C36 6800   7.308   7.532  11.776  0.2357  0.2232 -0.2841
   53DOPE   H6X 6801   7.385   7.612  11.779  0.1061  0.4014 -1.4429
   53DOPE   H6Y 6802   7.361   7.440  11.810  2.1780  1.4917  0.3513
   53DOPE   C37 6803   7.193   7.579  11.869 -0.2027  0.5576 -0.0395
   53DOPE   H7X 6804   7.108   7.629  11.817 -0.8603 -2.4303 -2.1321
   53DOPE   H7Y 6805   7.151   7.483  11.907 -2.1345  0.5956 -1.8344
   53DOPE   C38 6806   7.250   7.678  11.978  0.2190  0.4557 -0.6703
   53DOPE   H8X 6807   7.158   7.707  12.033 -1.3021 -0.0068 -2.8341
   53DOPE   H8Y 6808   7.292   7.774  11.940 -1.4504  1.5806  0.1649
   53DOPE   C39 6809   7.351   7.615  12.063 -0.1287  0.1712  0.1666
   53DOPE   H9X 6810   7.452   7.623  12.020 -0.1342 -0.2465  0.0730
   53DOPE  C310 6811   7.335   7.538  12.175 -0.0813 -0.1759 -0.0184
   53DOPE  H10X 6812   7.419   7.487  12.224 -1.3498 -2.7886 -0.3720
   53DOPE  C311 6813   7.204   7.493  12.240 -0.3531  0.6279  0.4663
   53DOPE  H11X 6814   7.171   7.566  12.318  0.8993 -0.1250  1.7515
   53DOPE  H11Y 6815   7.122   7.503  12.165  0.2747  1.7647 -0.0941
   53DOPE  C312 6816   7.202   7.350  12.299 -0.0048 -0.3659  0.2174
   53DOPE  H12X 6817   7.244   7.270  12.235 -0.4091 -1.2789  1.0618
   53DOPE  H12Y 6818   7.094   7.329  12.288  0.2935 -2.0235  0.1302
   53DOPE  C313 6819   7.252   7.336  12.447 -0.1677  0.7605  1.0676
   53DOPE  H13X 6820   7.361   7.355  12.457 -0.2152  2.2311 -0.7570
   53DOPE  H13Y 6821   7.208   7.419  12.508  0.5550  0.0457  2.6322
   53DOPE  C314 6822   7.227   7.195  12.518 -0.1412  0.5670  1.0251
   53DOPE  H14X 6823   7.283   7.190  12.614  0.2216 -1.6260  0.7570
   53DOPE  H14Y 6824   7.279   7.111  12.467 -1.5689 -1.1306  2.2238
   53DOPE  C315 6825   7.086   7.155  12.546  0.3519  0.6658 -0.0523
   53DOPE  H15X 6826   7.030   7.149  12.450  3.3879 -1.8134 -1.8233
   53DOPE  H15Y 6827   7.039   7.227  12.617  3.5105  0.6500  2.2395
   53DOPE  C316 6828   7.080   7.019  12.621  0.3289  0.6935  0.5162
   53DOPE  H16X 6829   6.977   7.014  12.663  1.1635  3.0346  3.1883
   53DOPE  H16Y 6830   7.149   7.034  12.707 -0.2144  0.0691  1.0737
   53DOPE  C317 6831   7.121   6.896  12.538  0.5459  0.3830 -0.1697
   53DOPE  H17X 6832   7.039   6.877  12.466  1.0772  0.8225 -0.9111
   53DOPE  H17Y 6833   7.215   6.922  12.484  1.3879 -1.3789  0.3964
   53DOPE  C318 6834   7.118   6.764  12.618 -0.0369 -0.6810 -0.0448
   53DOPE  H18X 6835   7.013   6.747  12.650 -1.0218  1.6129 -1.7853
   53DOPE  H18Y 6836   7.158   6.675  12.564  0.7350  0.8538 -2.1294
   53DOPE  H18Z 6837   7.176   6.765  12.713  0.4165 -0.9133 -0.3190
   54DOPE     N 6838   1.086   3.197  10.441  0.4692  0.2734 -0.1570
   54DOPE   HN1 6839   1.060   3.175  10.343  0.1504 -1.7867  0.3327
   54DOPE   HN2 6840   0.999   3.199  10.499  0.4662  0.5245 -0.1690
   54DOPE   HN3 6841   1.117   3.296  10.448 -2.4097  1.2700  0.0255
   54DOPE   C12 6842   1.195   3.102  10.484  0.7666 -1.1230 -0.7763
   54DOPE  H12A 6843   1.295   3.142  10.461  0.6389  0.7896  1.5805
   54DOPE  H12B 6844   1.179   3.011  10.422 -1.6069 -3.2515  2.5783
   54DOPE   C11 6845   1.194   3.067  10.632 -0.0872 -0.0580 -0.3449
   54DOPE  H11A 6846   1.243   3.159  10.672 -2.8979  0.9712  0.9951
   54DOPE  H11B 6847   1.262   2.980  10.643 -0.2665 -0.1571  0.0223
   54DOPE     P 6848   1.024   2.927  10.766 -0.2559 -0.0434 -0.0070
   54DOPE   O13 6849   1.020   2.806  10.684  0.0428 -0.0380 -0.2794
   54DOPE   O14 6850   0.908   2.972  10.840 -0.0239  1.0536  0.9173
   54DOPE   O11 6851   1.146   2.922  10.860  0.4239 -0.6106 -0.4547
   54DOPE   O12 6852   1.060   3.051  10.680 -0.6978 -0.1695  0.3842
   54DOPE    C1 6853   1.150   2.844  10.981 -0.6701 -0.7149  0.1914
   54DOPE    HA 6854   1.254   2.806  10.992 -0.0079  0.1309 -2.4241
   54DOPE    HB 6855   1.085   2.753  10.975  0.2842 -1.3167 -1.9838
   54DOPE    C2 6856   1.112   2.931  11.107 -0.0985 -0.3393  0.5841
   54DOPE    HS 6857   1.005   2.958  11.095 -0.2107 -0.3148  1.5542
   54DOPE   O21 6858   1.195   3.045  11.105 -0.7164  0.6197  0.0859
   54DOPE   C21 6859   1.138   3.160  11.126  0.9177 -0.6632 -0.8847
   54DOPE   O22 6860   1.018   3.173  11.156  0.3865  1.2472 -0.3562
   54DOPE   C22 6861   1.233   3.277  11.107 -0.1411 -1.0481  0.0835
   54DOPE   H2R 6862   1.207   3.356  11.034  0.2675  0.5098  1.5515
   54DOPE   H2S 6863   1.333   3.244  11.072 -1.0955 -2.1566 -1.7138
   54DOPE    C3 6864   1.132   2.842  11.240  0.0805  0.0548 -0.2821
   54DOPE    HX 6865   1.235   2.803  11.231 -0.1603 -0.5873 -0.2920
   54DOPE    HY 6866   1.064   2.754  11.239 -0.9576  0.6719  2.9933
   54DOPE   O31 6867   1.108   2.915  11.362 -0.1288  0.0022 -0.8532
   54DOPE   C31 6868   0.980   2.955  11.389 -0.2321 -0.2997  0.2760
   54DOPE   O32 6869   0.880   2.935  11.318 -0.2523 -0.0922 -0.0609
   54DOPE   C32 6870   0.988   3.032  11.523 -0.3330 -0.9289 -0.8431
   54DOPE   H2X 6871   1.070   2.991  11.586  0.6574  1.7876 -0.2557
   54DOPE   H2Y 6872   1.007   3.138  11.498  1.4764 -0.8609  0.6037
   54DOPE   C23 6873   1.242   3.344  11.247 -0.8614  0.0941 -0.0688
   54DOPE   H3R 6874   1.144   3.388  11.277 -0.5152  0.6212  0.2950
   54DOPE   H3S 6875   1.310   3.431  11.231 -0.9918  0.5183  1.4682
   54DOPE   C24 6876   1.305   3.262  11.365 -0.2113 -0.0152  0.5997
   54DOPE   H4R 6877   1.401   3.218  11.330 -0.3740 -1.4885  1.9436
   54DOPE   H4S 6878   1.238   3.183  11.403  0.1441 -0.5323  0.1670
   54DOPE   C25 6879   1.329   3.358  11.484 -0.5038 -1.4439 -0.5730
   54DOPE   H5R 6880   1.230   3.397  11.516  0.4169  0.9459 -0.4430
   54DOPE   H5S 6881   1.378   3.444  11.435 -0.2865 -1.9729 -1.3000
   54DOPE   C26 6882   1.408   3.314  11.606 -0.7046 -0.4289  0.6096
   54DOPE   H6R 6883   1.506   3.295  11.557 -0.2082  2.1024  0.4815
   54DOPE   H6S 6884   1.382   3.213  11.642  0.5535 -0.5066  1.3565
   54DOPE   C27 6885   1.429   3.419  11.710  0.0558  0.0779  0.1940
   54DOPE   H7R 6886   1.326   3.429  11.752  0.0955  0.2215  0.2565
   54DOPE   H7S 6887   1.454   3.516  11.662  1.2272  0.1595  0.9525
   54DOPE   C28 6888   1.516   3.383  11.825 -0.7745 -0.4887 -0.6339
   54DOPE   H8R 6889   1.618   3.361  11.788 -0.2882 -0.8536  0.8302
   54DOPE   H8S 6890   1.486   3.289  11.877  2.1508 -0.1965  1.8696
   54DOPE   C29 6891   1.529   3.479  11.939 -0.2655 -0.5853  0.4759
   54DOPE   H9R 6892   1.438   3.538  11.957 -0.6965 -0.2988 -2.1778
   54DOPE  C210 6893   1.649   3.508  11.999  0.0533  0.5858 -0.0690
   54DOPE  H10R 6894   1.658   3.587  12.075 -1.8649  0.5409  0.2506
   54DOPE  C211 6895   1.787   3.449  11.967  0.2477 -0.1089  0.0634
   54DOPE  H11R 6896   1.813   3.462  11.860 -0.5570  0.7527 -0.0503
   54DOPE  H11S 6897   1.790   3.340  11.986  0.8401  0.0786  1.1426
   54DOPE  C212 6898   1.902   3.499  12.053  0.4890 -1.0517 -0.8349
   54DOPE  H12R 6899   1.902   3.609  12.034  0.6600 -0.7484  0.7593
   54DOPE  H12S 6900   1.998   3.460  12.013 -1.1352 -4.1006 -1.9965
   54DOPE  C213 6901   1.882   3.463  12.203 -0.1902 -1.2367  0.2810
   54DOPE  H13R 6902   1.832   3.366  12.221 -1.5717 -0.7000 -0.5003
   54DOPE  H13S 6903   1.822   3.542  12.255  0.1890 -1.2561  0.7569
   54DOPE  C214 6904   2.016   3.475  12.278 -0.4488  0.2716 -0.9585
   54DOPE  H14R 6905   2.093   3.426  12.213  2.3766  1.0529  1.5761
   54DOPE  H14S 6906   2.000   3.433  12.379  1.4125  3.6678  0.9264
   54DOPE  C215 6907   2.057   3.621  12.294  0.1767  0.1237  0.3198
   54DOPE  H15R 6908   1.974   3.692  12.271 -1.3721 -2.2958 -1.9701
   54DOPE  H15S 6909   2.139   3.646  12.223 -0.6190 -0.8190 -0.9711
   54DOPE  C216 6910   2.090   3.655  12.442  0.1393  0.2074  0.1432
   54DOPE  H16R 6911   2.146   3.565  12.475 -0.3190  0.0322  0.4569
   54DOPE  H16S 6912   2.003   3.666  12.511  0.1787  1.9847 -0.0571
   54DOPE  C217 6913   2.174   3.786  12.454 -0.0833 -0.3864 -0.4830
   54DOPE  H17R 6914   2.108   3.871  12.430  1.9744  1.0988 -1.1566
   54DOPE  H17S 6915   2.246   3.784  12.369  0.6652 -1.4046  0.1452
   54DOPE  C218 6916   2.241   3.817  12.587 -0.0523 -0.0544  0.3364
   54DOPE  H18R 6917   2.296   3.724  12.612  0.7778  0.4437  0.3796
   54DOPE  H18S 6918   2.173   3.832  12.674  1.0139  0.6506  1.0692
   54DOPE  H18T 6919   2.319   3.894  12.575  0.0796 -0.3930 -1.2002
   54DOPE   C33 6920   0.853   3.006  11.600 -0.3857 -0.1032  0.1974
   54DOPE   H3X 6921   0.869   3.027  11.708 -1.2058  1.7492  0.0032
   54DOPE   H3Y 6922   0.828   2.898  11.605 -0.1858 -0.1012  1.6724
   54DOPE   C34 6923   0.742   3.096  11.554 -0.4853 -0.9631 -0.6187
   54DOPE   H4X 6924   0.777   3.201  11.550 -1.0571 -0.6727  1.1072
   54DOPE   H4Y 6925   0.705   3.069  11.453  0.3254  1.7637 -1.7468
   54DOPE   C35 6926   0.624   3.108  11.656 -0.1362  1.1302  0.4014
   54DOPE   H5X 6927   0.555   3.184  11.613  1.6198  1.5553 -1.8355
   54DOPE   H5Y 6928   0.660   3.162  11.746 -0.3022  2.1522 -0.1307
   54DOPE   C36 6929   0.555   2.978  11.687 -0.3919  0.4879  0.3798
   54DOPE   H6X 6930   0.477   2.986  11.765 -0.5906  0.5913  0.1703
   54DOPE   H6Y 6931   0.635   2.907  11.718  1.2156  1.8801 -0.4230
   54DOPE   C37 6932   0.504   2.902  11.562 -0.3251  0.3664  0.5077
   54DOPE   H7X 6933   0.420   2.961  11.521 -0.6021  0.3325  1.0223
   54DOPE   H7Y 6934   0.587   2.898  11.488  0.3755 -1.2176  1.3091
   54DOPE   C38 6935   0.466   2.754  11.583  0.4843 -0.0112 -0.2242
   54DOPE   H8X 6936   0.425   2.740  11.686 -0.2398  0.2321 -0.4681
   54DOPE   H8Y 6937   0.559   2.694  11.575  1.3140  1.2855 -0.5400
   54DOPE   C39 6938   0.374   2.721  11.478  0.4762 -0.0499 -0.4704
   54DOPE   H9X 6939   0.295   2.795  11.457 -0.7843 -0.9791  0.8700
   54DOPE  C310 6940   0.388   2.612  11.403  0.6720 -0.1937 -0.3317
   54DOPE  H10X 6941   0.326   2.612  11.312  1.1606 -0.6117 -0.6689
   54DOPE  C311 6942   0.477   2.490  11.420 -0.1049 -0.8148  0.4661
   54DOPE  H11X 6943   0.536   2.463  11.330  1.5966 -1.4421  1.7099
   54DOPE  H11Y 6944   0.564   2.514  11.484 -0.0901  2.4841 -0.6327
   54DOPE  C312 6945   0.391   2.375  11.492 -0.6077  0.2981  0.5227
   54DOPE  H12X 6946   0.439   2.275  11.485  0.8722  0.9001  1.4857
   54DOPE  H12Y 6947   0.295   2.361  11.439 -0.4172 -0.2367  0.3117
   54DOPE  C313 6948   0.381   2.396  11.637  0.3925  0.1025  0.7597
   54DOPE  H13X 6949   0.480   2.410  11.687  0.2512 -1.1540  1.4277
   54DOPE  H13Y 6950   0.318   2.487  11.648 -0.6917 -0.5777  0.2720
   54DOPE  C314 6951   0.312   2.290  11.714 -0.0428  0.4198  0.0373
   54DOPE  H14X 6952   0.368   2.195  11.698  2.2737  0.7253  4.6043
   54DOPE  H14Y 6953   0.208   2.282  11.677 -0.1288 -1.7589  0.5845
   54DOPE  C315 6954   0.308   2.320  11.867 -0.4546 -0.2490  0.7409
   54DOPE  H15X 6955   0.224   2.389  11.888 -0.9406  0.0418 -1.7796
   54DOPE  H15Y 6956   0.398   2.379  11.892  0.6596  0.2979 -3.6880
   54DOPE  C316 6957   0.302   2.199  11.964 -0.1413  0.3057 -0.0800
   54DOPE  H16X 6958   0.328   2.227  12.069 -0.5260  0.0183  0.0920
   54DOPE  H16Y 6959   0.383   2.127  11.938  0.5431  1.7067 -2.0049
   54DOPE  C317 6960   0.160   2.146  11.964  0.4184  0.1302 -0.1357
   54DOPE  H17X 6961   0.089   2.228  11.989 -2.1234 -1.8735 -0.4565
   54DOPE  H17Y 6962   0.127   2.110  11.864  2.1209 -0.2086 -0.6094
   54DOPE  C318 6963   0.128   2.026  12.051  0.0992 -0.2143 -0.4473
   54DOPE  H18X 6964   0.151   2.054  12.156  0.7028  0.3807 -0.7248
   54DOPE  H18Y 6965   0.020   2.002  12.043  0.2095 -0.3892 -1.5027
   54DOPE  H18Z 6966   0.189   1.934  12.037 -0.6242 -0.4723 -2.0918
   55DOPE     N 6967   1.523   4.728  10.424  0.0606 -0.7276 -0.3434
   55DOPE   HN1 6968   1.552   4.809  10.483 -1.9964  1.7475 -2.4942
   55DOPE   HN2 6969   1.574   4.759  10.339  1.5664 -0.0043  0.7658
   55DOPE   HN3 6970   1.420   4.716  10.419 -0.0347  0.2461 -0.9728
   55DOPE   C12 6971   1.573   4.591  10.465 -0.1075  0.1356 -0.4800
   55DOPE  H12A 6972   1.579   4.524  10.377 -1.2515 -1.7988  0.8355
   55DOPE  H12B 6973   1.507   4.542  10.540  1.2280 -1.3807 -0.2342
   55DOPE   C11 6974   1.719   4.594  10.523 -0.0500 -0.7104  0.2178
   55DOPE  H11A 6975   1.784   4.591  10.433 -0.1609  1.6740 -0.0084
   55DOPE  H11B 6976   1.733   4.499  10.579 -2.2520 -0.7296  0.8253
   55DOPE     P 6977   1.745   4.716  10.761  0.4112  0.1782 -0.1212
   55DOPE   O13 6978   1.728   4.853  10.816 -0.0145 -0.0115  0.1129
   55DOPE   O14 6979   1.865   4.642  10.811  0.4129  0.3566 -0.2670
   55DOPE   O11 6980   1.613   4.633  10.791 -0.2291  0.2268  0.5164
   55DOPE   O12 6981   1.754   4.709  10.599  0.1449  0.2397  0.8256
   55DOPE    C1 6982   1.490   4.706  10.801 -0.2215  0.9192 -0.0473
   55DOPE    HA 6983   1.413   4.630  10.780  1.0034 -0.5424  0.5599
   55DOPE    HB 6984   1.476   4.781  10.720  0.2992  1.4372  0.3368
   55DOPE    C2 6985   1.464   4.759  10.946 -0.1538 -0.4873 -1.0520
   55DOPE    HS 6986   1.559   4.795  10.991  1.5047 -0.8777 -4.0264
   55DOPE   O21 6987   1.403   4.650  11.023 -0.2813 -0.0841  0.6053
   55DOPE   C21 6988   1.495   4.591  11.104  1.1261  0.0382  0.4194
   55DOPE   O22 6989   1.604   4.634  11.128  0.0847  0.0274 -0.2177
   55DOPE   C22 6990   1.441   4.464  11.166  0.2975  0.6562  0.4504
   55DOPE   H2R 6991   1.527   4.394  11.169  0.2680  0.6217  0.4805
   55DOPE   H2S 6992   1.358   4.435  11.099  1.5561  1.3635 -1.5334
   55DOPE    C3 6993   1.361   4.870  10.943  0.1087  0.1290  0.5073
   55DOPE    HX 6994   1.272   4.819  10.901 -0.1259 -0.3879  1.6030
   55DOPE    HY 6995   1.389   4.949  10.870  4.3582 -2.7144 -1.3632
   55DOPE   O31 6996   1.335   4.921  11.071  0.0946  0.5092 -0.5835
   55DOPE   C31 6997   1.429   5.001  11.126 -0.3978  0.8455 -0.1027
   55DOPE   O32 6998   1.535   5.029  11.080 -0.6157  0.5778  0.5794
   55DOPE   C32 6999   1.380   5.061  11.260 -0.3572 -0.4714 -0.1033
   55DOPE   H2X 7000   1.434   5.158  11.256  3.3664 -2.4115 -1.4555
   55DOPE   H2Y 7001   1.273   5.089  11.251 -0.4654 -1.0524 -0.6387
   55DOPE   C23 7002   1.397   4.493  11.310  0.4582 -0.0810  0.4940
   55DOPE   H3R 7003   1.325   4.412  11.333 -2.5969  1.8995 -1.2067
   55DOPE   H3S 7004   1.337   4.587  11.312 -1.1845 -1.1013  0.9443
   55DOPE   C24 7005   1.512   4.515  11.409 -0.6434 -0.2567 -0.3707
   55DOPE   H4R 7006   1.590   4.589  11.381  0.6956 -1.9578 -1.3182
   55DOPE   H4S 7007   1.558   4.415  11.426  1.2259  0.4371 -1.0508
   55DOPE   C25 7008   1.465   4.565  11.551 -0.4377 -0.0697  0.5364
   55DOPE   H5R 7009   1.392   4.489  11.587  0.4408 -1.0005  0.3916
   55DOPE   H5S 7010   1.414   4.663  11.541  0.2047  0.1032 -1.2854
   55DOPE   C26 7011   1.580   4.571  11.654  0.4935 -0.1594  0.6738
   55DOPE   H6R 7012   1.666   4.611  11.594  1.6881 -2.4814  0.7354
   55DOPE   H6S 7013   1.604   4.469  11.691  0.5076  0.6455  3.0945
   55DOPE   C27 7014   1.554   4.663  11.775  0.3619  0.1617  0.4996
   55DOPE   H7R 7015   1.458   4.637  11.825  0.7235  0.0925  1.1697
   55DOPE   H7S 7016   1.539   4.759  11.722  0.0240  2.4710  4.3949
   55DOPE   C28 7017   1.666   4.666  11.877 -0.3053  0.7651  0.0786
   55DOPE   H8R 7018   1.758   4.696  11.821  1.6164 -2.0459  1.4944
   55DOPE   H8S 7019   1.671   4.560  11.909  1.0226  0.7460 -0.1018
   55DOPE   C29 7020   1.619   4.761  11.991  0.1861 -0.5449  0.7673
   55DOPE   H9R 7021   1.543   4.712  12.053  0.3972 -1.1612  0.5454
   55DOPE  C210 7022   1.669   4.881  12.009  0.2224  0.2749 -0.1328
   55DOPE  H10R 7023   1.631   4.948  12.088 -2.1029  0.6463 -1.4548
   55DOPE  C211 7024   1.769   4.947  11.918  0.4666  0.3832  0.0705
   55DOPE  H11R 7025   1.728   4.960  11.815 -0.7665 -1.8480  0.2058
   55DOPE  H11S 7026   1.861   4.888  11.899  1.1157  1.4734 -0.1889
   55DOPE  C212 7027   1.815   5.085  11.970 -0.6359  0.1704 -0.0533
   55DOPE  H12R 7028   1.835   5.080  12.079 -1.1463 -0.2032  0.0287
   55DOPE  H12S 7029   1.727   5.154  11.970 -0.6223  0.2451  1.9312
   55DOPE  C213 7030   1.923   5.146  11.889 -0.3146 -0.0131  0.2293
   55DOPE  H13R 7031   1.896   5.135  11.782 -1.0170 -0.5250  0.4452
   55DOPE  H13S 7032   2.020   5.093  11.889 -0.9349 -1.1979  0.6689
   55DOPE  C214 7033   1.952   5.290  11.930  0.2475 -0.9246 -0.2493
   55DOPE  H14R 7034   1.999   5.293  12.031  0.3084 -1.9858 -0.2415
   55DOPE  H14S 7035   1.853   5.340  11.929  0.3380 -0.7043  0.9633
   55DOPE  C215 7036   2.031   5.369  11.820  0.9706 -0.1139  0.6848
   55DOPE  H15R 7037   1.968   5.374  11.729 -0.5058 -1.3786  1.5939
   55DOPE  H15S 7038   2.130   5.332  11.785  1.0014  0.2161  0.4157
   55DOPE  C216 7039   2.055   5.515  11.867  0.3020  0.2077 -0.0584
   55DOPE  H16R 7040   2.122   5.524  11.956  0.7968 -0.2148 -0.3845
   55DOPE  H16S 7041   1.955   5.556  11.895 -0.4313 -1.5430  0.0333
   55DOPE  C217 7042   2.118   5.592  11.753  0.4127 -0.4214 -0.8460
   55DOPE  H17R 7043   2.176   5.519  11.693  1.3048 -0.7636  0.3863
   55DOPE  H17S 7044   2.194   5.659  11.799 -1.1561  0.9229 -0.1172
   55DOPE  C218 7045   2.033   5.668  11.655  0.7851 -0.1371  0.1775
   55DOPE  H18R 7046   1.946   5.604  11.628  1.0296 -0.0570 -0.8745
   55DOPE  H18S 7047   2.076   5.702  11.558  1.5069  0.1816  0.6051
   55DOPE  H18T 7048   1.990   5.759  11.701 -1.7280 -1.4431  0.6030
   55DOPE   C33 7049   1.418   4.969  11.380  0.7131 -0.4227 -0.1637
   55DOPE   H3X 7050   1.344   4.886  11.384 -0.7713  0.8917  1.7633
   55DOPE   H3Y 7051   1.408   5.024  11.476  1.9831  0.8203 -0.7053
   55DOPE   C34 7052   1.561   4.914  11.390 -0.1834 -0.0880 -0.0081
   55DOPE   H4X 7053   1.555   4.842  11.474 -0.2389  0.2489  0.2786
   55DOPE   H4Y 7054   1.601   4.854  11.305  1.5191 -1.5429  1.7101
   55DOPE   C35 7055   1.677   5.012  11.425 -0.3162  0.1456 -0.0068
   55DOPE   H5X 7056   1.679   5.048  11.530 -1.0374  0.7416 -0.1879
   55DOPE   H5Y 7057   1.668   5.106  11.365 -0.0232 -0.1772 -0.5688
   55DOPE   C36 7058   1.816   4.942  11.399  0.1096  0.1550  0.0261
   55DOPE   H6X 7059   1.812   4.900  11.296 -1.8672 -3.1078  1.2744
   55DOPE   H6Y 7060   1.822   4.856  11.469 -0.2450  0.7106  0.7512
   55DOPE   C37 7061   1.935   5.041  11.411  0.5162  0.2449  0.3189
   55DOPE   H7X 7062   1.941   5.099  11.316  0.8917  0.3902  0.4323
   55DOPE   H7Y 7063   1.921   5.114  11.493  2.2789  0.2324  0.6530
   55DOPE   C38 7064   2.076   4.976  11.426 -0.7204 -0.0922 -0.1390
   55DOPE   H8X 7065   2.148   5.051  11.385 -1.1519 -0.4704 -1.6244
   55DOPE   H8Y 7066   2.090   4.891  11.357 -0.1272  0.6071 -0.9081
   55DOPE   C39 7067   2.093   4.922  11.567 -0.8122 -0.4227  0.5691
   55DOPE   H9X 7068   2.009   4.859  11.600 -0.0556 -2.0531 -0.4620
   55DOPE  C310 7069   2.209   4.943  11.641 -1.0215  0.1997 -0.3446
   55DOPE  H10X 7070   2.203   4.921  11.749  0.0956 -1.3962 -0.5786
   55DOPE  C311 7071   2.332   5.024  11.600 -0.0720  0.3328  0.3553
   55DOPE  H11X 7072   2.360   4.999  11.495 -1.1182 -0.0778  0.1580
   55DOPE  H11Y 7073   2.307   5.132  11.614  1.1921  0.4799  1.6639
   55DOPE  C312 7074   2.458   4.995  11.678  0.3455 -0.0495 -0.1796
   55DOPE  H12X 7075   2.519   5.080  11.640  1.0920 -0.3182  0.4038
   55DOPE  H12Y 7076   2.515   4.901  11.660 -1.0722 -0.5200 -2.7019
   55DOPE  C313 7077   2.453   5.004  11.833  0.6571 -0.6140 -0.2753
   55DOPE  H13X 7078   2.400   5.093  11.875  0.8448 -0.9968  0.8094
   55DOPE  H13Y 7079   2.390   4.923  11.877 -0.1712  0.1952  0.0829
   55DOPE  C314 7080   2.589   5.001  11.894 -0.4592  0.0402 -0.2436
   55DOPE  H14X 7081   2.660   5.070  11.843 -0.5133  0.0496 -0.3052
   55DOPE  H14Y 7082   2.630   4.898  11.898  0.2570  0.3349  0.3285
   55DOPE  C315 7083   2.599   5.049  12.043  0.0193  0.8448  0.2807
   55DOPE  H15X 7084   2.520   4.996  12.100  1.9944 -0.0470  2.3264
   55DOPE  H15Y 7085   2.568   5.156  12.042 -0.8909  0.6153 -2.0851
   55DOPE  C316 7086   2.736   5.044  12.104 -0.0399  0.2676  0.7708
   55DOPE  H16X 7087   2.812   5.083  12.032 -1.3798 -1.7670 -1.9250
   55DOPE  H16Y 7088   2.764   4.937  12.116  3.0759  0.8167 -0.4994
   55DOPE  C317 7089   2.760   5.125  12.230 -0.5362 -0.3889  0.1083
   55DOPE  H17X 7090   2.757   5.232  12.201 -0.6110 -0.6713 -1.0081
   55DOPE  H17Y 7091   2.671   5.113  12.295 -0.0989  1.4889  1.1108
   55DOPE  C318 7092   2.888   5.078  12.303  0.1601 -0.0854  0.0520
   55DOPE  H18X 7093   2.923   5.166  12.362 -0.5845  0.8416 -0.8605
   55DOPE  H18Y 7094   2.857   5.003  12.379  0.0263  1.5484  1.6973
   55DOPE  H18Z 7095   2.967   5.037  12.237 -1.4132  0.2443 -2.1504
   56DOPE     N 7096   0.299   6.633  10.535 -0.3718 -0.2297  0.4008
   56DOPE   HN1 7097   0.318   6.565  10.611  2.2926 -1.1124 -0.9287
   56DOPE   HN2 7098   0.204   6.675  10.529  0.1898  1.0190 -0.3498
   56DOPE   HN3 7099   0.326   6.602  10.439 -0.9672 -1.6929  0.6919
   56DOPE   C12 7100   0.378   6.761  10.565  0.7500  0.0227 -0.8281
   56DOPE  H12A 7101   0.479   6.757  10.520  0.4429 -0.9758 -1.4437
   56DOPE  H12B 7102   0.388   6.764  10.676  0.7393  1.8447 -0.8323
   56DOPE   C11 7103   0.297   6.884  10.514 -0.3352  0.6924 -0.5708
   56DOPE  H11A 7104   0.314   6.894  10.405  2.4137 -2.0297 -0.5241
   56DOPE  H11B 7105   0.343   6.973  10.562 -0.2121  0.7829 -0.8553
   56DOPE     P 7106   0.061   6.934  10.642 -0.2447 -0.2026  0.1822
   56DOPE   O13 7107  -0.058   6.848  10.665 -0.9800 -0.9717 -0.5997
   56DOPE   O14 7108   0.045   7.073  10.590 -0.3776  0.4243 -0.1383
   56DOPE   O11 7109   0.149   6.929  10.772 -0.0484  0.0668 -0.1644
   56DOPE   O12 7110   0.156   6.864  10.542  0.2884  0.1382  0.3428
   56DOPE    C1 7111   0.218   7.049  10.819  0.3209  0.0416 -0.2390
   56DOPE    HA 7112   0.178   7.146  10.783 -1.1945 -0.6137 -0.3892
   56DOPE    HB 7113   0.327   7.048  10.795  0.5509 -1.6414  0.7190
   56DOPE    C2 7114   0.206   7.054  10.974 -0.4844  0.2034 -0.6732
   56DOPE    HS 7115   0.245   7.156  10.993 -0.3121  0.2588 -1.2974
   56DOPE   O21 7116   0.292   6.950  11.027  0.1706  0.4302 -0.2220
   56DOPE   C21 7117   0.421   6.949  11.000 -0.1011 -0.3722  0.0530
   56DOPE   O22 7118   0.482   7.049  10.971 -0.3278 -0.0461  0.1154
   56DOPE   C22 7119   0.473   6.807  11.020  0.3476  0.0290  0.6765
   56DOPE   H2R 7120   0.457   6.746  10.929 -2.4931  0.7114  0.6158
   56DOPE   H2S 7121   0.417   6.763  11.105 -1.2377  2.2740  0.9075
   56DOPE    C3 7122   0.064   7.045  11.028  0.0008 -0.0674 -0.0370
   56DOPE    HX 7123   0.020   6.948  10.995  1.5373 -1.1195  0.9084
   56DOPE    HY 7124   0.006   7.131  10.987 -1.2026  0.0149  1.7335
   56DOPE   O31 7125   0.065   7.062  11.170  0.5112  0.3765  0.0110
   56DOPE   C31 7126   0.075   6.950  11.241 -0.1554  0.2023  0.5526
   56DOPE   O32 7127   0.043   6.838  11.207  0.0624 -0.1547  0.4038
   56DOPE   C32 7128   0.114   6.987  11.382 -0.0837 -0.4618 -0.8953
   56DOPE   H2X 7129   0.203   7.053  11.380 -0.3037  0.2501  3.4550
   56DOPE   H2Y 7130   0.024   7.031  11.430  0.8678 -0.2041  0.7307
   56DOPE   C23 7131   0.621   6.823  11.060 -0.3941  0.2142  0.2443
   56DOPE   H3R 7132   0.684   6.909  11.029 -0.1704  0.3433  1.0207
   56DOPE   H3S 7133   0.672   6.739  11.008  2.4022  1.6292  0.5026
   56DOPE   C24 7134   0.639   6.815  11.203 -0.3030  0.4756 -0.0778
   56DOPE   H4R 7135   0.747   6.810  11.228 -0.1263  2.7785 -0.1914
   56DOPE   H4S 7136   0.599   6.720  11.246  1.0426  0.5896  1.5422
   56DOPE   C25 7137   0.593   6.937  11.289 -0.1750  0.3993  0.4405
   56DOPE   H5R 7138   0.482   6.943  11.291 -0.3054 -1.2907 -0.0374
   56DOPE   H5S 7139   0.634   7.034  11.253  0.2442  0.9480  2.2767
   56DOPE   C26 7140   0.641   6.924  11.437  0.8574  0.4316  0.7423
   56DOPE   H6R 7141   0.604   7.014  11.489  0.8561  0.6184  0.4210
   56DOPE   H6S 7142   0.751   6.912  11.452  0.8521 -0.0962  0.4155
   56DOPE   C27 7143   0.575   6.805  11.513  0.0542 -0.0253  0.4467
   56DOPE   H7R 7144   0.610   6.720  11.451  0.8070  0.1322  0.6440
   56DOPE   H7S 7145   0.464   6.809  11.517 -0.0980 -2.1608 -0.3586
   56DOPE   C28 7146   0.636   6.789  11.649 -0.2647  0.0683 -0.1990
   56DOPE   H8R 7147   0.747   6.793  11.637 -0.3170  3.1035 -0.3151
   56DOPE   H8S 7148   0.598   6.688  11.677  1.0825  0.2068  2.3807
   56DOPE   C29 7149   0.580   6.895  11.737  0.9362  0.5309 -0.7017
   56DOPE   H9R 7150   0.470   6.892  11.733  0.8120  0.7849  1.3081
   56DOPE  C210 7151   0.627   6.977  11.830 -0.2291  1.5080 -0.1287
   56DOPE  H10R 7152   0.555   7.045  11.879 -0.7318 -0.6241  2.3551
   56DOPE  C211 7153   0.770   6.973  11.873 -0.7735  0.6306  0.9149
   56DOPE  H11R 7154   0.818   6.891  11.816 -0.5803  1.7480 -0.6070
   56DOPE  H11S 7155   0.784   6.943  11.979  1.3327  0.2198  0.5763
   56DOPE  C212 7156   0.845   7.103  11.839 -0.1267 -0.5597 -0.5803
   56DOPE  H12R 7157   0.936   7.112  11.901  0.8614 -0.0486 -2.0391
   56DOPE  H12S 7158   0.784   7.193  11.865 -1.8097 -2.2212  1.5425
   56DOPE  C213 7159   0.872   7.129  11.691 -0.2766  0.4540  0.1749
   56DOPE  H13R 7160   0.777   7.117  11.633 -0.6516  0.2267  0.8234
   56DOPE  H13S 7161   0.921   7.038  11.650 -1.9463 -1.5442  2.3410
   56DOPE  C214 7162   0.949   7.261  11.653  0.0079 -0.3464 -0.8321
   56DOPE  H14R 7163   1.037   7.266  11.720  1.6623 -1.0981 -2.8235
   56DOPE  H14S 7164   0.896   7.350  11.694  0.8526  0.4774 -1.4777
   56DOPE  C215 7165   0.982   7.277  11.506 -0.6434  0.6639  0.4850
   56DOPE  H15R 7166   1.021   7.379  11.490 -0.4835  0.6170  0.5787
   56DOPE  H15S 7167   0.887   7.276  11.448 -0.5398  0.7834  0.3137
   56DOPE  C216 7168   1.070   7.167  11.443  0.2880 -0.3391 -0.4568
   56DOPE  H16R 7169   1.015   7.071  11.448 -0.6923  0.2668  1.0292
   56DOPE  H16S 7170   1.162   7.158  11.505 -0.2784 -0.9836  0.3076
   56DOPE  C217 7171   1.111   7.171  11.290  0.5492 -0.2026 -0.2771
   56DOPE  H17R 7172   1.195   7.098  11.287 -0.6159 -1.7610  2.1524
   56DOPE  H17S 7173   1.144   7.271  11.255 -2.6361  0.8762 -0.5405
   56DOPE  C218 7174   0.997   7.121  11.199  0.8521  0.5045  0.2241
   56DOPE  H18R 7175   0.970   7.014  11.185 -1.9669  1.2787 -1.0739
   56DOPE  H18S 7176   1.019   7.144  11.093 -1.0510  0.3158 -0.2549
   56DOPE  H18T 7177   0.894   7.156  11.225 -0.0890 -1.1092 -1.1544
   56DOPE   C33 7178   0.150   6.869  11.470  0.2239  0.4670  0.2986
   56DOPE   H3X 7179   0.218   6.795  11.421 -0.7052 -1.1071  1.2829
   56DOPE   H3Y 7180   0.052   6.817  11.476 -0.6716  1.9009 -1.1390
   56DOPE   C34 7181   0.196   6.903  11.620  0.0640 -0.6437  0.6858
   56DOPE   H4X 7182   0.242   6.808  11.656  1.8108  0.6993  2.1535
   56DOPE   H4Y 7183   0.271   6.985  11.619 -0.0458 -0.5476  0.1558
   56DOPE   C35 7184   0.075   6.920  11.714  0.8216  0.3652 -0.3022
   56DOPE   H5X 7185  -0.001   6.845  11.686  0.5051  0.5374  0.0906
   56DOPE   H5Y 7186   0.036   7.023  11.700  1.2114  0.3936 -1.3054
   56DOPE   C36 7187   0.095   6.880  11.860 -0.5481 -0.1764  0.0596
   56DOPE   H6X 7188   0.157   6.788  11.860  0.7940  0.6974 -0.1871
   56DOPE   H6Y 7189  -0.002   6.857  11.910 -0.5033 -0.3301  0.0772
   56DOPE   C37 7190   0.165   6.997  11.938  0.1023 -0.2896  0.2985
   56DOPE   H7X 7191   0.232   7.045  11.863 -0.8850 -2.2756 -1.9932
   56DOPE   H7Y 7192   0.087   7.076  11.949  0.0150 -0.1341 -1.1438
   56DOPE   C38 7193   0.240   6.950  12.069  0.5288  0.7148 -1.0804
   56DOPE   H8X 7194   0.322   7.023  12.085 -0.2184  1.3778 -0.1972
   56DOPE   H8Y 7195   0.286   6.849  12.062 -3.1535 -1.0439 -3.1999
   56DOPE   C39 7196   0.151   6.953  12.191  0.0571 -0.2604 -0.1246
   56DOPE   H9X 7197   0.116   7.057  12.195  0.3920  0.0240 -2.7229
   56DOPE  C310 7198   0.118   6.857  12.278 -0.0999  0.2945 -0.2564
   56DOPE  H10X 7199   0.059   6.876  12.369  2.0152 -0.0813  1.2918
   56DOPE  C311 7200   0.162   6.717  12.270  0.1541  0.1277 -0.5075
   56DOPE  H11X 7201   0.064   6.666  12.283 -0.1979  1.2655  1.9847
   56DOPE  H11Y 7202   0.211   6.684  12.176  1.2904 -3.7191  1.2432
   56DOPE  C312 7203   0.243   6.677  12.397 -0.4277 -0.6197 -0.6324
   56DOPE  H12X 7204   0.319   6.754  12.424  0.5412 -1.1405 -1.7515
   56DOPE  H12Y 7205   0.312   6.593  12.370  1.5093  0.4768  0.6483
   56DOPE  C313 7206   0.157   6.656  12.525 -0.9217 -0.2054  0.1445
   56DOPE  H13X 7207   0.076   6.732  12.524  0.5057  1.4137  1.5259
   56DOPE  H13Y 7208   0.109   6.556  12.519 -0.2769 -0.5535  0.6195
   56DOPE  C314 7209   0.244   6.669  12.654 -0.3108  0.6886  0.3216
   56DOPE  H14X 7210   0.194   6.671  12.753  0.4641  0.3043  0.7340
   56DOPE  H14Y 7211   0.278   6.774  12.639  1.6710 -0.0160 -0.5052
   56DOPE  C315 7212   0.361   6.563  12.664 -0.0229  0.1872  0.4386
   56DOPE  H15X 7213   0.416   6.586  12.758  1.8823  2.2424 -1.1112
   56DOPE  H15Y 7214   0.423   6.579  12.574 -0.5068 -1.9279 -0.3316
   56DOPE  C316 7215   0.310   6.415  12.679  0.3235  0.9142 -0.7393
   56DOPE  H16X 7216   0.401   6.352  12.687 -0.4846 -0.1993 -0.0905
   56DOPE  H16Y 7217   0.248   6.385  12.592 -1.2237 -0.2199  0.6865
   56DOPE  C317 7218   0.227   6.389  12.802 -0.0243  0.4990 -0.1039
   56DOPE  H17X 7219   0.282   6.306  12.851 -1.6688 -0.6424 -0.1087
   56DOPE  H17Y 7220   0.226   6.469  12.879 -2.1197 -1.3065  1.9164
   56DOPE  C318 7221   0.088   6.343  12.778  0.2371  0.4788  0.0346
   56DOPE  H18X 7222   0.047   6.307  12.875 -1.5886  0.1263 -0.8264
   56DOPE  H18Y 7223   0.030   6.433  12.746  0.5335  1.6409  2.4910
   56DOPE  H18Z 7224   0.078   6.262  12.703  1.8557 -0.2260  0.5303
   57DOPE     N 7225   0.880   2.601  10.540 -0.1072  0.3996 -1.2211
   57DOPE   HN1 7226   0.869   2.676  10.468 -0.6400  1.5146 -0.0370
   57DOPE   HN2 7227   0.928   2.640  10.624  1.0277 -0.6169 -1.3837
   57DOPE   HN3 7228   0.942   2.530  10.497  0.5587  1.1555 -1.5391
   57DOPE   C12 7229   0.757   2.546  10.600  1.2248 -0.4796  0.4980
   57DOPE  H12A 7230   0.689   2.514  10.518  2.0529 -0.9077 -0.0314
   57DOPE  H12B 7231   0.695   2.624  10.648  0.3436 -0.6626 -0.3200
   57DOPE   C11 7232   0.796   2.429  10.689  0.1569  0.5209 -0.7280
   57DOPE  H11A 7233   0.874   2.361  10.648  1.2685  0.4132  1.4151
   57DOPE  H11B 7234   0.705   2.372  10.719  1.8708 -2.2731 -0.4290
   57DOPE     P 7235   0.791   2.509  10.946  0.1061  0.2072  0.3131
   57DOPE   O13 7236   0.690   2.615  10.929  0.3033  0.1033  0.8507
   57DOPE   O14 7237   0.895   2.541  11.047  0.4137  0.6525 -0.5488
   57DOPE   O11 7238   0.707   2.387  10.983 -0.4726  0.3439 -0.7358
   57DOPE   O12 7239   0.860   2.477  10.810  0.0368 -0.1959 -0.0809
   57DOPE    C1 7240   0.756   2.252  10.980 -0.2165  0.4048 -0.3893
   57DOPE    HA 7241   0.865   2.243  11.000 -0.5661 -1.8539  0.6813
   57DOPE    HB 7242   0.741   2.207  10.880 -2.2945 -0.6091  0.3462
   57DOPE    C2 7243   0.670   2.158  11.078 -0.5859 -0.0215  0.4237
   57DOPE    HS 7244   0.567   2.194  11.057 -0.1948  0.2952 -1.1278
   57DOPE   O21 7245   0.721   2.174  11.211 -0.4359  0.0238  0.8376
   57DOPE   C21 7246   0.627   2.172  11.307  0.1234  0.6537  0.1861
   57DOPE   O22 7247   0.509   2.147  11.300  0.4385  0.1280 -0.0397
   57DOPE   C22 7248   0.702   2.176  11.439  0.4450 -0.0175  0.0001
   57DOPE   H2R 7249   0.686   2.281  11.472 -0.7880  0.5699 -2.2775
   57DOPE   H2S 7250   0.810   2.161  11.417 -0.1080 -0.2056 -2.9815
   57DOPE    C3 7251   0.672   2.009  11.031 -0.5323  0.4000  0.0560
   57DOPE    HX 7252   0.775   1.985  10.998 -0.6310 -0.4292  0.3151
   57DOPE    HY 7253   0.600   1.999  10.946  1.9399 -2.5772 -1.8970
   57DOPE   O31 7254   0.630   1.918  11.130 -1.1847  0.3344 -0.7081
   57DOPE   C31 7255   0.637   1.792  11.097 -0.1249 -0.0299 -0.4315
   57DOPE   O32 7256   0.662   1.751  10.987 -0.7770  0.0060  0.2754
   57DOPE   C32 7257   0.601   1.711  11.226  0.0408 -0.1747 -0.4146
   57DOPE   H2X 7258   0.527   1.759  11.293  0.7956  0.6093 -0.1254
   57DOPE   H2Y 7259   0.571   1.610  11.191 -1.4782 -0.3762  1.3212
   57DOPE   C23 7260   0.634   2.084  11.555 -0.1287 -0.6778  0.7912
   57DOPE   H3R 7261   0.524   2.099  11.569  0.0970  0.1498  1.7786
   57DOPE   H3S 7262   0.678   2.114  11.652 -1.2753 -0.0865  1.1605
   57DOPE   C24 7263   0.650   1.929  11.536 -1.0121  0.3485  0.7257
   57DOPE   H4R 7264   0.747   1.897  11.492 -0.8815  1.1036  0.4495
   57DOPE   H4S 7265   0.576   1.896  11.461 -1.1241  0.8904  0.5921
   57DOPE   C25 7266   0.631   1.843  11.664 -0.0286 -0.4111 -0.3250
   57DOPE   H5R 7267   0.704   1.875  11.742  0.2659  1.1634 -1.1927
   57DOPE   H5S 7268   0.645   1.736  11.637 -0.9755 -0.5961 -0.1134
   57DOPE   C26 7269   0.498   1.853  11.725  0.7430  0.0437 -0.1936
   57DOPE   H6R 7270   0.491   1.947  11.784 -0.4027 -0.4003  0.4011
   57DOPE   H6S 7271   0.480   1.776  11.803  0.0228  1.3939  1.0254
   57DOPE   C27 7272   0.373   1.846  11.632  0.3192  0.2696 -0.1475
   57DOPE   H7R 7273   0.382   1.771  11.551 -0.2880 -0.3228  0.3227
   57DOPE   H7S 7274   0.382   1.945  11.582  0.6695  2.0814  3.1801
   57DOPE   C28 7275   0.241   1.839  11.710 -0.7543 -0.0613 -0.2412
   57DOPE   H8R 7276   0.238   1.928  11.776  2.7374  0.3512 -0.4676
   57DOPE   H8S 7277   0.236   1.754  11.781  1.5303  0.4724  0.6282
   57DOPE   C29 7278   0.129   1.856  11.607  0.0565 -0.2141  0.1577
   57DOPE   H9R 7279   0.153   1.912  11.516 -0.6839  1.6951  1.0863
   57DOPE  C210 7280   0.010   1.793  11.604  0.0434  0.0482  0.3403
   57DOPE  H10R 7281  -0.061   1.803  11.521 -1.9663 -1.6491  1.7410
   57DOPE  C211 7282  -0.039   1.698  11.718  0.7483  0.9480 -0.3058
   57DOPE  H11R 7283   0.045   1.645  11.769  0.2535  2.5776  2.3794
   57DOPE  H11S 7284  -0.111   1.621  11.683 -0.2717  1.6281  0.2637
   57DOPE  C212 7285  -0.112   1.766  11.840  0.0645 -0.1077  0.6999
   57DOPE  H12R 7286  -0.196   1.829  11.803  1.3085  1.6599  0.7610
   57DOPE  H12S 7287  -0.036   1.834  11.885  0.3121  0.7174 -0.8750
   57DOPE  C213 7288  -0.163   1.663  11.937 -0.3424 -0.3487 -0.2329
   57DOPE  H13R 7289  -0.089   1.583  11.961  0.8611  1.1630  1.3237
   57DOPE  H13S 7290  -0.243   1.605  11.885  0.9338 -1.9607 -0.4987
   57DOPE  C214 7291  -0.190   1.718  12.078 -0.0314  0.3430  0.4423
   57DOPE  H14R 7292  -0.267   1.798  12.084  0.4918  0.9948 -0.9357
   57DOPE  H14S 7293  -0.091   1.762  12.104  0.9518 -1.0852 -0.7170
   57DOPE  C215 7294  -0.201   1.619  12.191 -0.1224  0.5239  0.6048
   57DOPE  H15R 7295  -0.192   1.670  12.289 -0.9032  1.8516 -0.0017
   57DOPE  H15S 7296  -0.108   1.560  12.175 -0.1862 -0.1024  2.3399
   57DOPE  C216 7297  -0.323   1.531  12.189  0.0046  0.1566  0.6452
   57DOPE  H16R 7298  -0.356   1.501  12.088 -2.5726  0.5899  1.2881
   57DOPE  H16S 7299  -0.401   1.601  12.228 -0.0745 -0.1069  0.9628
   57DOPE  C217 7300  -0.311   1.408  12.274  0.5259  0.9510  0.2043
   57DOPE  H17R 7301  -0.289   1.443  12.377 -1.1828 -1.3314  1.4291
   57DOPE  H17S 7302  -0.231   1.340  12.237  1.3845  1.1478  1.6289
   57DOPE  C218 7303  -0.447   1.334  12.294  0.2924 -0.0022 -0.6112
   57DOPE  H18R 7304  -0.432   1.229  12.328 -2.0896  0.0587  0.8642
   57DOPE  H18S 7305  -0.499   1.324  12.196 -0.6775  0.2576 -0.1352
   57DOPE  H18T 7306  -0.511   1.382  12.370  1.4674  0.0364  0.3841
   57DOPE   C33 7307   0.742   1.691  11.299 -0.5870 -0.1487  0.0438
   57DOPE   H3X 7308   0.719   1.664  11.404 -3.8310 -1.5037 -0.8591
   57DOPE   H3Y 7309   0.787   1.792  11.300  0.0641 -0.3939 -1.4505
   57DOPE   C34 7310   0.825   1.566  11.249 -0.0488  0.2681  0.1563
   57DOPE   H4X 7311   0.762   1.475  11.258 -2.5178  1.5687 -2.3065
   57DOPE   H4Y 7312   0.842   1.587  11.141 -2.7226 -0.5017 -0.4962
   57DOPE   C35 7313   0.960   1.554  11.317 -0.3217 -0.3654  0.4092
   57DOPE   H5X 7314   1.012   1.651  11.303  0.3200 -0.6000  1.0543
   57DOPE   H5Y 7315   1.023   1.476  11.267 -0.6467  0.7178 -1.8336
   57DOPE   C36 7316   0.948   1.519  11.458 -0.4790 -0.1971 -0.4139
   57DOPE   H6X 7317   0.879   1.432  11.459  1.4701 -1.8168 -0.5082
   57DOPE   H6Y 7318   0.881   1.588  11.514 -0.8925  0.0518 -1.2109
   57DOPE   C37 7319   1.074   1.476  11.534 -0.5045 -0.0809 -0.4566
   57DOPE   H7X 7320   1.114   1.572  11.574  0.8396 -0.6928 -0.2829
   57DOPE   H7Y 7321   1.051   1.424  11.630  2.5154  1.8626  1.4666
   57DOPE   C38 7322   1.183   1.392  11.472  0.2224  0.2166  0.0702
   57DOPE   H8X 7323   1.270   1.397  11.542  0.5414 -0.1113 -0.3008
   57DOPE   H8Y 7324   1.224   1.441  11.381 -0.1960 -0.9640 -0.7718
   57DOPE   C39 7325   1.140   1.251  11.448  0.3303  0.5955 -0.8292
   57DOPE   H9X 7326   1.089   1.236  11.352 -0.9056  0.4414 -0.1643
   57DOPE  C310 7327   1.162   1.145  11.533  0.0461 -0.1180  0.2525
   57DOPE  H10X 7328   1.117   1.046  11.514  0.3102 -0.1100 -0.4497
   57DOPE  C311 7329   1.248   1.129  11.656 -0.0838 -0.2888  0.2925
   57DOPE  H11X 7330   1.330   1.058  11.629 -0.9225 -1.0676 -0.2641
   57DOPE  H11Y 7331   1.300   1.224  11.681  0.8376 -0.2876 -1.4510
   57DOPE  C312 7332   1.160   1.079  11.777 -0.2093  0.1491  0.0596
   57DOPE  H12X 7333   1.229   1.058  11.861 -0.6162  1.1472  0.6728
   57DOPE  H12Y 7334   1.099   0.988  11.757 -0.8546  0.7909 -1.0118
   57DOPE  C313 7335   1.070   1.195  11.821 -0.0661  0.4888 -0.4805
   57DOPE  H13X 7336   1.003   1.229  11.739 -1.6881  0.5919  0.8404
   57DOPE  H13Y 7337   0.996   1.156  11.894 -0.6204 -0.0928 -1.3420
   57DOPE  C314 7338   1.139   1.319  11.890  0.7705 -0.8122  0.0028
   57DOPE  H14X 7339   1.087   1.406  11.845 -0.0803 -1.1964  0.2137
   57DOPE  H14Y 7340   1.248   1.327  11.869  0.8938  0.3637  0.9932
   57DOPE  C315 7341   1.111   1.332  12.044  0.2987  0.2445  0.2821
   57DOPE  H15X 7342   1.176   1.256  12.093  1.2930 -0.4452 -1.9821
   57DOPE  H15Y 7343   1.006   1.315  12.077  0.6594  1.0581  1.9677
   57DOPE  C316 7344   1.146   1.474  12.100  0.5165  0.5934  0.4036
   57DOPE  H16X 7345   1.091   1.559  12.054 -1.7089 -1.5666 -1.1613
   57DOPE  H16Y 7346   1.254   1.480  12.075  0.5006 -1.1494 -0.2266
   57DOPE  C317 7347   1.136   1.485  12.250 -0.3281  0.6439  1.5393
   57DOPE  H17X 7348   1.037   1.463  12.293 -0.7132 -2.3194 -0.5968
   57DOPE  H17Y 7349   1.202   1.408  12.294  0.5876 -0.4306 -1.4270
   57DOPE  C318 7350   1.199   1.618  12.299 -0.2746  0.8927 -0.7005
   57DOPE  H18X 7351   1.299   1.629  12.251 -0.4069 -0.6675 -1.3804
   57DOPE  H18Y 7352   1.145   1.714  12.283  0.8368  1.2371 -2.6721
   57DOPE  H18Z 7353   1.213   1.603  12.409 -1.6741 -1.2658 -0.7547
   58DOPE     N 7354   0.344   3.902  11.125  0.1443 -0.1353  0.3207
   58DOPE   HN1 7355   0.399   3.943  11.203  1.4925 -1.1401 -0.0662
   58DOPE   HN2 7356   0.245   3.935  11.130 -0.0224 -0.4917 -0.4274
   58DOPE   HN3 7357   0.350   3.802  11.155 -1.8621 -0.4248 -0.0855
   58DOPE   C12 7358   0.408   3.922  10.988 -0.2378  0.1296 -0.2548
   58DOPE  H12A 7359   0.385   4.027  10.959  3.2188  1.4012  1.1421
   58DOPE  H12B 7360   0.355   3.855  10.916  1.0391  1.2716 -2.3496
   58DOPE   C11 7361   0.563   3.895  10.990  0.6369 -0.3009  0.4340
   58DOPE  H11A 7362   0.610   3.967  11.061  0.8524  0.7094 -0.6986
   58DOPE  H11B 7363   0.593   3.928  10.888 -0.1879  2.4614  0.9949
   58DOPE     P 7364   0.678   3.724  11.151  0.0135  0.0183  0.1977
   58DOPE   O13 7365   0.817   3.776  11.149  0.2540  0.2065  0.3115
   58DOPE   O14 7366   0.670   3.577  11.170 -0.2245 -0.2082 -0.6884
   58DOPE   O11 7367   0.594   3.794  11.271  0.1149  0.1177 -0.2400
   58DOPE   O12 7368   0.606   3.761  11.013  0.2454 -0.3287 -0.5957
   58DOPE    C1 7369   0.579   3.734  11.392  0.2144  0.1479  0.3289
   58DOPE    HA 7370   0.678   3.711  11.436 -1.1282 -3.3090  1.9057
   58DOPE    HB 7371   0.530   3.635  11.378 -1.0909  0.9816 -1.4263
   58DOPE    C2 7372   0.495   3.817  11.482  0.0256  0.3270  0.0797
   58DOPE    HS 7373   0.394   3.821  11.437  0.7359 -3.3398 -2.2770
   58DOPE   O21 7374   0.550   3.949  11.498  0.6224  0.1329 -0.1599
   58DOPE   C21 7375   0.532   4.045  11.421  0.5713  0.0979  0.5337
   58DOPE   O22 7376   0.456   4.049  11.327 -0.4095 -0.5048 -0.0722
   58DOPE   C22 7377   0.632   4.154  11.474  0.0021  0.4731  0.4688
   58DOPE   H2R 7378   0.652   4.215  11.384  0.2890  0.7300  0.7015
   58DOPE   H2S 7379   0.720   4.093  11.504 -0.5277 -0.1184  0.8680
   58DOPE    C3 7380   0.469   3.749  11.622 -0.2053 -0.6749  0.0262
   58DOPE    HX 7381   0.389   3.799  11.681  2.0308  1.8695  1.0989
   58DOPE    HY 7382   0.553   3.770  11.691 -0.3550  2.1262 -0.5308
   58DOPE   O31 7383   0.450   3.608  11.615  0.9030  0.1735 -0.6831
   58DOPE   C31 7384   0.340   3.567  11.568  0.1936 -0.5387 -0.3538
   58DOPE   O32 7385   0.255   3.631  11.509  0.4455  0.1238 -0.1501
   58DOPE   C32 7386   0.325   3.420  11.592 -0.5037 -0.2230 -0.1218
   58DOPE   H2X 7387   0.394   3.374  11.518 -1.3658  0.4715 -1.3993
   58DOPE   H2Y 7388   0.363   3.395  11.694 -0.3635  1.4789  0.2759
   58DOPE   C23 7389   0.571   4.228  11.594  0.2000  0.5652  0.6771
   58DOPE   H3R 7390   0.661   4.267  11.646  0.3587  1.2647 -0.1142
   58DOPE   H3S 7391   0.526   4.155  11.666 -1.0113 -0.4635 -1.0540
   58DOPE   C24 7392   0.465   4.338  11.559 -0.2218 -0.0197 -0.2413
   58DOPE   H4R 7393   0.387   4.302  11.488  0.5216  0.5260 -1.3744
   58DOPE   H4S 7394   0.517   4.414  11.497  0.3632 -0.6012 -0.4747
   58DOPE   C25 7395   0.397   4.395  11.678  0.6161  0.2507 -1.1066
   58DOPE   H5R 7396   0.472   4.435  11.750  1.4446 -0.9394 -1.2938
   58DOPE   H5S 7397   0.344   4.310  11.725 -0.2487 -0.2132 -2.8255
   58DOPE   C26 7398   0.282   4.499  11.647  0.2736 -1.0884  0.1043
   58DOPE   H6R 7399   0.244   4.543  11.742  1.6861  0.6761 -0.1066
   58DOPE   H6S 7400   0.197   4.446  11.598 -0.6051  1.4204 -1.2114
   58DOPE   C27 7401   0.326   4.620  11.565  0.8098 -0.2946 -0.5116
   58DOPE   H7R 7402   0.231   4.677  11.557 -0.6542 -2.5294  0.0236
   58DOPE   H7S 7403   0.341   4.589  11.459  1.4173 -0.3784 -0.4055
   58DOPE   C28 7404   0.446   4.699  11.618 -0.3851  1.3192  0.5171
   58DOPE   H8R 7405   0.529   4.625  11.608 -2.3401 -0.6528 -2.7235
   58DOPE   H8S 7406   0.441   4.722  11.727  0.8133 -0.4198  0.9858
   58DOPE   C29 7407   0.481   4.823  11.544  0.0236 -0.1008  0.1434
   58DOPE   H9R 7408   0.554   4.821  11.462 -1.3328  0.5235 -1.1244
   58DOPE  C210 7409   0.422   4.943  11.551  0.3831 -0.5367  0.3881
   58DOPE  H10R 7410   0.463   5.036  11.509 -1.5460  0.7228  1.1600
   58DOPE  C211 7411   0.312   4.978  11.641  0.3042 -0.7202  0.3380
   58DOPE  H11R 7412   0.326   5.060  11.715 -0.8206 -0.1751 -0.0347
   58DOPE  H11S 7413   0.274   4.892  11.700 -0.1794  0.7048  2.2206
   58DOPE  C212 7414   0.185   5.025  11.564  1.2709  0.7296 -0.4755
   58DOPE  H12R 7415   0.177   4.999  11.457 -2.5528  1.8481 -0.6150
   58DOPE  H12S 7416   0.176   5.135  11.574  1.9888  0.6050  2.8328
   58DOPE  C213 7417   0.059   4.948  11.622  0.1753 -0.4582 -0.2066
   58DOPE  H13R 7418   0.073   4.838  11.620 -2.1754 -0.9713  3.4686
   58DOPE  H13S 7419  -0.025   4.975  11.555  0.0533 -1.8060 -0.6236
   58DOPE  C214 7420   0.017   4.994  11.768 -0.2430 -0.4064 -0.1943
   58DOPE  H14R 7421   0.007   5.105  11.761  1.0861 -0.2514 -0.0199
   58DOPE  H14S 7422   0.108   4.985  11.832  0.2475  0.6504 -0.7187
   58DOPE  C215 7423  -0.097   4.909  11.815  0.0087 -0.2460  0.6482
   58DOPE  H15R 7424  -0.071   4.801  11.826  1.1981 -0.2026 -1.1571
   58DOPE  H15S 7425  -0.189   4.909  11.753 -0.2385 -0.2204  1.0149
   58DOPE  C216 7426  -0.148   4.972  11.953  0.3537  0.4848  1.0229
   58DOPE  H16R 7427  -0.158   5.080  11.928  1.5115  0.7369  1.5970
   58DOPE  H16S 7428  -0.063   4.964  12.023  1.5323 -3.9304 -0.5659
   58DOPE  C217 7429  -0.286   4.917  11.993 -0.0164  0.1089 -0.5291
   58DOPE  H17R 7430  -0.364   4.963  11.930  1.9772  2.6584 -1.2983
   58DOPE  H17S 7431  -0.306   4.949  12.097 -1.2169 -2.3184  0.0631
   58DOPE  C218 7432  -0.296   4.765  11.981  0.7916 -0.7738 -0.3293
   58DOPE  H18R 7433  -0.391   4.727  12.023  0.1102  0.2457 -0.9100
   58DOPE  H18S 7434  -0.211   4.723  12.040 -0.4515 -0.9555  1.4023
   58DOPE  H18T 7435  -0.284   4.731  11.876 -1.5853  0.6134 -1.1298
   58DOPE   C33 7436   0.199   3.350  11.561  0.8729  0.1537 -0.1783
   58DOPE   H3X 7437   0.219   3.246  11.594 -1.8337 -0.4170 -0.1638
   58DOPE   H3Y 7438   0.170   3.366  11.455 -2.4348  0.7169  0.7160
   58DOPE   C34 7439   0.078   3.403  11.636 -0.2898  0.1396 -0.0329
   58DOPE   H4X 7440   0.117   3.399  11.740  1.4449 -0.7627 -0.6862
   58DOPE   H4Y 7441   0.059   3.510  11.613 -0.2187  0.2133  0.2453
   58DOPE   C35 7442  -0.052   3.317  11.624  0.3166 -0.3164  0.0192
   58DOPE   H5X 7443  -0.124   3.335  11.706  0.9725  0.8199  0.3642
   58DOPE   H5Y 7444  -0.017   3.211  11.635 -1.2542 -0.6693  2.0763
   58DOPE   C36 7445  -0.115   3.344  11.485  0.2097 -0.0017 -0.8679
   58DOPE   H6X 7446  -0.074   3.278  11.406  1.0880  1.3548 -1.5710
   58DOPE   H6Y 7447  -0.093   3.451  11.468 -0.7531  1.1742  3.7133
   58DOPE   C37 7448  -0.268   3.323  11.481  0.0067  0.2631 -0.2629
   58DOPE   H7X 7449  -0.306   3.309  11.378 -0.6774  0.9135 -0.1143
   58DOPE   H7Y 7450  -0.290   3.226  11.531 -1.1205  0.4505 -0.3724
   58DOPE   C38 7451  -0.350   3.427  11.557  0.0843  0.6447  0.6730
   58DOPE   H8X 7452  -0.320   3.526  11.517 -0.0976 -0.4776 -2.4998
   58DOPE   H8Y 7453  -0.332   3.422  11.666  0.8206 -0.7974  0.5087
   58DOPE   C39 7454  -0.497   3.407  11.523 -0.6497  0.1501  0.2249
   58DOPE   H9X 7455  -0.531   3.437  11.422  0.4501 -1.1930 -0.5780
   58DOPE  C310 7456  -0.593   3.374  11.611 -0.2674  0.6509  0.2520
   58DOPE  H10X 7457  -0.693   3.359  11.569  0.2866 -1.9247 -0.3037
   58DOPE  C311 7458  -0.576   3.331  11.761  0.0711 -0.4914 -0.5888
   58DOPE  H11X 7459  -0.468   3.328  11.784 -0.1509  1.5046  1.0750
   58DOPE  H11Y 7460  -0.625   3.407  11.826  0.6744  1.8272 -2.7075
   58DOPE  C312 7461  -0.629   3.186  11.780  0.4411 -0.2236 -0.2403
   58DOPE  H12X 7462  -0.577   3.130  11.700  0.2326  0.4870 -0.8882
   58DOPE  H12Y 7463  -0.738   3.188  11.761  0.4953 -0.7921 -0.6244
   58DOPE  C313 7464  -0.604   3.126  11.919  0.1240 -0.4312  0.2384
   58DOPE  H13X 7465  -0.499   3.147  11.946 -0.3675  1.9811  0.5683
   58DOPE  H13Y 7466  -0.668   3.164  12.001 -1.2790 -3.6022  0.7673
   58DOPE  C314 7467  -0.615   2.972  11.918 -1.4684 -0.4065 -0.1698
   58DOPE  H14X 7468  -0.537   2.924  11.855 -0.8343 -0.7525  0.8538
   58DOPE  H14Y 7469  -0.710   2.949  11.866 -0.9394  0.5953 -1.6630
   58DOPE  C315 7470  -0.622   2.897  12.056 -0.1865  0.8177  0.7351
   58DOPE  H15X 7471  -0.656   2.794  12.032 -1.3505  1.7098 -1.6950
   58DOPE  H15Y 7472  -0.707   2.944  12.110 -1.0761 -0.0220  0.0977
   58DOPE  C316 7473  -0.486   2.896  12.122  0.1150 -0.0887 -0.3605
   58DOPE  H16X 7474  -0.465   2.992  12.174 -0.9535 -0.4733  0.8595
   58DOPE  H16Y 7475  -0.410   2.895  12.041  1.1301 -0.3863  0.5615
   58DOPE  C317 7476  -0.470   2.776  12.213 -0.2134  0.5200  0.4461
   58DOPE  H17X 7477  -0.456   2.689  12.146 -0.4043  0.2476  0.7530
   58DOPE  H17Y 7478  -0.381   2.803  12.274  0.5248  0.2172 -0.4770
   58DOPE  C318 7479  -0.578   2.743  12.321 -0.6065 -0.4421 -0.5909
   58DOPE  H18X 7480  -0.661   2.691  12.270 -0.7180  0.0931 -0.9615
   58DOPE  H18Y 7481  -0.541   2.694  12.414 -1.9389  2.9901  1.9898
   58DOPE  H18Z 7482  -0.605   2.840  12.367  1.1422  0.4917 -1.4391
   59DOPE     N 7483   8.429   0.183  10.557  0.3603  0.3789 -0.3052
   59DOPE   HN1 7484   8.473   0.276  10.545  1.8050  0.0719  1.9839
   59DOPE   HN2 7485   8.490   0.105  10.525  0.5487 -0.0393  1.0061
   59DOPE   HN3 7486   8.340   0.186  10.503  1.0952  1.3779 -1.5152
   59DOPE   C12 7487   8.398   0.159  10.705 -0.5363  0.4407 -0.4216
   59DOPE  H12A 7488   8.490   0.175  10.764  1.4170 -0.6967 -2.9849
   59DOPE  H12B 7489   8.356   0.057  10.712 -2.5871  1.2765  0.2606
   59DOPE   C11 7490   8.285   0.252  10.747  0.1540 -0.2292 -0.1192
   59DOPE  H11A 7491   8.236   0.227  10.843 -3.2000  0.0798 -1.5937
   59DOPE  H11B 7492   8.199   0.249  10.676  1.9156  1.0992 -2.4541
   59DOPE     P 7493   8.393   0.469  10.849 -0.2235  0.3365 -0.1085
   59DOPE   O13 7494   8.284   0.544  10.918 -0.3647  0.3819 -0.2627
   59DOPE   O14 7495   8.511   0.542  10.802 -0.3532 -0.0300 -0.3386
   59DOPE   O11 7496   8.443   0.355  10.947 -0.2783 -0.3106 -0.1779
   59DOPE   O12 7497   8.329   0.384  10.732 -0.5182  0.2728  0.4733
   59DOPE    C1 7498   8.380   0.312  11.065  0.0233  0.2824 -0.9833
   59DOPE    HA 7499   8.402   0.205  11.086 -0.7506  0.2161 -0.4606
   59DOPE    HB 7500   8.270   0.322  11.062 -0.5593 -2.0803  3.3819
   59DOPE    C2 7501   8.433   0.376  11.196 -0.2032 -0.4147  0.7699
   59DOPE    HS 7502   8.403   0.483  11.193 -2.4394 -0.9770  0.7742
   59DOPE   O21 7503   8.574   0.349  11.201  0.3257 -0.0008  0.6178
   59DOPE   C21 7504   8.645   0.446  11.247 -0.1058 -0.8135 -0.2770
   59DOPE   O22 7505   8.598   0.549  11.294  0.2934 -0.0269 -0.2169
   59DOPE   C22 7506   8.797   0.424  11.231 -0.0523 -0.0947 -0.0231
   59DOPE   H2R 7507   8.823   0.450  11.126 -1.2790  0.1935 -0.2677
   59DOPE   H2S 7508   8.811   0.313  11.236  0.0083 -0.0881 -0.0438
   59DOPE    C3 7509   8.367   0.313  11.324 -0.2375 -0.4348 -0.7359
   59DOPE    HX 7510   8.396   0.210  11.351 -1.7749 -0.4709  0.9767
   59DOPE    HY 7511   8.258   0.321  11.303 -0.9078 -0.2171  2.2655
   59DOPE   O31 7512   8.399   0.390  11.445  0.9027 -0.0226 -0.0807
   59DOPE   C31 7513   8.301   0.446  11.512 -0.3791 -0.0116  0.3582
   59DOPE   O32 7514   8.182   0.432  11.485  0.0651 -0.2042 -0.4606
   59DOPE   C32 7515   8.359   0.528  11.632  0.5450  0.3018  0.2032
   59DOPE   H2X 7516   8.376   0.447  11.707  0.0121 -0.0141 -0.0093
   59DOPE   H2Y 7517   8.454   0.568  11.590  0.1341  0.0867 -0.9626
   59DOPE   C23 7518   8.877   0.508  11.334 -0.9130  0.2327  0.2974
   59DOPE   H3R 7519   8.839   0.482  11.435  0.9333 -1.9655  0.5210
   59DOPE   H3S 7520   8.859   0.615  11.311 -0.2016 -0.0644 -1.9438
   59DOPE   C24 7521   9.029   0.488  11.326 -0.3854  0.4177 -0.1912
   59DOPE   H4R 7522   9.067   0.519  11.226  2.2731 -3.4247 -0.5545
   59DOPE   H4S 7523   9.053   0.380  11.326  2.9308  0.9888 -2.3818
   59DOPE   C25 7524   9.118   0.562  11.437  0.1615  0.3937 -0.0148
   59DOPE   H5R 7525   9.066   0.537  11.532  0.4976 -1.8286 -0.3610
   59DOPE   H5S 7526   9.109   0.671  11.414  0.5825  0.5576  0.5800
   59DOPE   C26 7527   9.257   0.506  11.441 -0.2347  0.5171 -0.4643
   59DOPE   H6R 7528   9.328   0.559  11.374  2.1317  0.8893  2.1613
   59DOPE   H6S 7529   9.256   0.397  11.419  2.2479  0.0826  1.2174
   59DOPE   C27 7530   9.317   0.511  11.583 -0.6464  0.2113  0.5978
   59DOPE   H7R 7531   9.251   0.444  11.643  1.4818 -3.8632 -1.2419
   59DOPE   H7S 7532   9.297   0.617  11.610 -0.3292  0.1163  1.2254
   59DOPE   C28 7533   9.468   0.462  11.590 -0.3489  0.0161  0.0988
   59DOPE   H8R 7534   9.489   0.498  11.693 -0.0768  0.3571 -0.0693
   59DOPE   H8S 7535   9.531   0.522  11.521  0.5121 -1.2292 -0.2318
   59DOPE   C29 7536   9.490   0.308  11.581 -0.4980  0.5556 -0.5398
   59DOPE   H9R 7537   9.417   0.243  11.633  0.0406 -0.0484 -0.5159
   59DOPE  C210 7538   9.592   0.257  11.519 -0.2848 -0.5630  0.1187
   59DOPE  H10R 7539   9.602   0.147  11.514 -1.8063 -0.8856  2.4683
   59DOPE  C211 7540   9.693   0.331  11.438  0.0073  0.2022  0.5559
   59DOPE  H11R 7541   9.721   0.431  11.478  0.9040  0.6925 -1.2428
   59DOPE  H11S 7542   9.640   0.354  11.343 -2.3169  0.2878  1.7756
   59DOPE  C212 7543   9.825   0.244  11.425  0.8128 -0.1571  0.4883
   59DOPE  H12R 7544   9.803   0.136  11.438 -0.8269 -0.0650 -1.1137
   59DOPE  H12S 7545   9.889   0.281  11.508  1.5196 -1.1496  0.4012
   59DOPE  C213 7546   9.897   0.279  11.290  0.6118  0.1105 -0.0883
   59DOPE  H13R 7547   9.919   0.386  11.274  0.8647 -0.0090 -0.5569
   59DOPE  H13S 7548   9.836   0.237  11.207 -0.8310 -1.6795  1.7620
   59DOPE  C214 7549  10.036   0.202  11.278 -0.5741 -0.3539 -0.1663
   59DOPE  H14R 7550  10.023   0.093  11.289 -0.0092 -0.3880  0.1858
   59DOPE  H14S 7551  10.106   0.241  11.355 -0.4858  0.9217 -0.8581
   59DOPE  C215 7552  10.107   0.228  11.146  0.2774 -0.1342  0.1836
   59DOPE  H15R 7553  10.206   0.180  11.135 -0.2881 -0.8365 -2.6121
   59DOPE  H15S 7554  10.130   0.337  11.138  1.8045 -0.4453  0.0154
   59DOPE  C216 7555  10.017   0.190  11.025  0.3786  0.0518 -0.5694
   59DOPE  H16R 7556   9.932   0.262  11.021 -1.1103 -1.2600  2.8813
   59DOPE  H16S 7557   9.965   0.093  11.039  2.5329 -1.2360 -0.9482
   59DOPE  C217 7558  10.087   0.171  10.885 -1.1050  0.0727  0.8576
   59DOPE  H17R 7559  10.160   0.088  10.902 -0.4024  0.0588 -1.8185
   59DOPE  H17S 7560  10.151   0.258  10.857  0.6854 -1.6277 -0.6477
   59DOPE  C218 7561   9.989   0.122  10.771  0.3293  0.1295 -0.0334
   59DOPE  H18R 7562   9.921   0.207  10.748  0.3889  1.2474  3.3203
   59DOPE  H18S 7563   9.928   0.033  10.798 -0.3956  0.9609  1.2043
   59DOPE  H18T 7564  10.042   0.093  10.679 -0.6105 -1.7989 -0.0162
   59DOPE   C33 7565   8.258   0.628  11.681 -0.2681  0.4180 -0.2352
   59DOPE   H3X 7566   8.180   0.573  11.738 -1.9788  3.2858  0.4086
   59DOPE   H3Y 7567   8.209   0.677  11.594  0.8090 -0.6744 -1.5023
   59DOPE   C34 7568   8.324   0.741  11.765  0.3056 -0.1949  0.5742
   59DOPE   H4X 7569   8.334   0.725  11.874 -0.2651 -0.9336  0.5234
   59DOPE   H4Y 7570   8.426   0.750  11.722  0.8587  0.1284  1.9018
   59DOPE   C35 7571   8.253   0.878  11.750  0.4053  0.1079  0.0434
   59DOPE   H5X 7572   8.153   0.860  11.795  0.7966 -0.9072  0.5357
   59DOPE   H5Y 7573   8.246   0.903  11.642  1.8661  0.1464 -0.0622
   59DOPE   C36 7574   8.330   0.983  11.821  0.1503  0.0691 -0.0281
   59DOPE   H6X 7575   8.424   1.002  11.765 -0.0279  1.1033 -0.0026
   59DOPE   H6Y 7576   8.355   0.946  11.922  4.3499  3.0254  0.2544
   59DOPE   C37 7577   8.243   1.108  11.843  0.1514  0.0981  0.1803
   59DOPE   H7X 7578   8.181   1.146  11.759 -0.6973  1.5608  1.4093
   59DOPE   H7Y 7579   8.175   1.086  11.929 -1.1944  2.2990 -0.2231
   59DOPE   C38 7580   8.327   1.231  11.882  0.0103  0.1204  0.3238
   59DOPE   H8X 7581   8.386   1.206  11.973 -0.7279 -0.8031  0.5589
   59DOPE   H8Y 7582   8.246   1.299  11.915 -1.6183 -1.3724 -0.4660
   59DOPE   C39 7583   8.398   1.293  11.766  0.2205  0.6017  0.6681
   59DOPE   H9X 7584   8.343   1.320  11.674  0.6315 -0.8109 -0.0299
   59DOPE  C310 7585   8.529   1.319  11.756  0.1057 -0.3587  0.2904
   59DOPE  H10X 7586   8.569   1.358  11.661  0.7437  1.8922  1.4074
   59DOPE  C311 7587   8.634   1.302  11.860  0.4577  0.3173  0.5078
   59DOPE  H11X 7588   8.602   1.242  11.948 -0.4159 -0.5771 -0.3895
   59DOPE  H11Y 7589   8.729   1.269  11.813  0.6355  0.3763  0.8262
   59DOPE  C312 7590   8.668   1.437  11.926 -0.6667  0.5744  0.0834
   59DOPE  H12X 7591   8.576   1.482  11.968 -0.3450  1.3763 -0.0587
   59DOPE  H12Y 7592   8.704   1.500  11.842  2.3090  0.2435  0.9801
   59DOPE  C313 7593   8.770   1.411  12.030 -0.0487  0.0746 -0.3669
   59DOPE  H13X 7594   8.722   1.358  12.115  0.6039 -0.9004 -0.5963
   59DOPE  H13Y 7595   8.850   1.355  11.979 -1.2806 -1.0731 -1.0880
   59DOPE  C314 7596   8.832   1.544  12.085 -0.3299  0.0595 -0.0146
   59DOPE  H14X 7597   8.880   1.588  11.995 -0.5969 -0.2644 -0.3198
   59DOPE  H14Y 7598   8.916   1.531  12.157 -0.6485  0.3567  0.4185
   59DOPE  C315 7599   8.731   1.641  12.139  0.3350 -0.0213 -0.7364
   59DOPE  H15X 7600   8.675   1.580  12.214 -0.3784 -0.8450 -1.9147
   59DOPE  H15Y 7601   8.655   1.657  12.060  2.2607  1.1388 -2.4374
   59DOPE  C316 7602   8.791   1.761  12.208 -0.0291 -0.0681  0.1963
   59DOPE  H16X 7603   8.846   1.724  12.297  0.7608 -0.6119 -0.5066
   59DOPE  H16Y 7604   8.703   1.828  12.225 -0.2920  0.1507 -1.7897
   59DOPE  C317 7605   8.889   1.835  12.117  0.3047  0.6801 -0.3126
   59DOPE  H17X 7606   8.980   1.772  12.115 -0.0991 -0.1031  2.5182
   59DOPE  H17Y 7607   8.850   1.850  12.014  1.0166  1.1639 -0.5206
   59DOPE  C318 7608   8.944   1.966  12.167 -0.0631 -0.0813  0.4256
   59DOPE  H18X 7609   8.982   1.964  12.271  1.0224 -1.7215  0.0259
   59DOPE  H18Y 7610   9.022   2.013  12.103  0.2092 -1.9552 -0.6679
   59DOPE  H18Z 7611   8.861   2.040  12.159 -0.8934 -1.1633 -2.3331
   60DOPE     N 7612   0.025   7.582  10.450 -0.0117 -0.0392 -0.2129
   60DOPE   HN1 7613   0.020   7.682  10.477 -1.4441  0.7864 -3.1982
   60DOPE   HN2 7614   0.038   7.536  10.543  0.3550  1.9743  0.7811
   60DOPE   HN3 7615   0.109   7.557  10.394  0.3271 -2.3294  1.1774
   60DOPE   C12 7616  -0.107   7.543  10.389  0.7060  0.1122 -0.3457
   60DOPE  H12A 7617  -0.098   7.436  10.362  0.4448 -0.0078  0.0250
   60DOPE  H12B 7618  -0.102   7.603  10.296  0.8310 -0.2280 -0.5592
   60DOPE   C11 7619  -0.215   7.586  10.491 -0.0381 -0.6758 -0.8146
   60DOPE  H11A 7620  -0.206   7.538  10.591 -0.4589 -0.3323 -0.6099
   60DOPE  H11B 7621  -0.308   7.544  10.448  0.1681 -1.3827 -0.5984
   60DOPE     P 7622  -0.323   7.806  10.589 -0.1595  0.4003  0.0325
   60DOPE   O13 7623  -0.448   7.800  10.513 -0.5809 -0.3183  0.0032
   60DOPE   O14 7624  -0.277   7.943  10.625  0.2586  0.5546 -0.0794
   60DOPE   O11 7625  -0.327   7.715  10.718 -0.0953  0.6117  0.6466
   60DOPE   O12 7626  -0.215   7.729  10.505 -0.9811 -0.4737 -0.0759
   60DOPE    C1 7627  -0.215   7.709  10.807 -0.7871  0.3528 -0.4099
   60DOPE    HA 7628  -0.154   7.801  10.793 -0.7717  0.1384 -1.9290
   60DOPE    HB 7629  -0.150   7.620  10.792  1.0991  1.7198 -0.7990
   60DOPE    C2 7630  -0.253   7.721  10.958  0.5986 -0.2643 -0.1731
   60DOPE    HS 7631  -0.163   7.697  11.018  0.9479  2.0250  0.2923
   60DOPE   O21 7632  -0.366   7.632  10.986  0.3397  0.1518  0.5396
   60DOPE   C21 7633  -0.359   7.559  11.096 -0.3067 -0.2113  0.1078
   60DOPE   O22 7634  -0.266   7.550  11.170 -0.2083  0.3507 -0.3948
   60DOPE   C22 7635  -0.481   7.472  11.106  0.4161  0.5050  0.5389
   60DOPE   H2R 7636  -0.460   7.380  11.046  1.7399 -0.3541  2.2203
   60DOPE   H2S 7637  -0.566   7.534  11.069  0.3914 -0.9234 -2.0565
   60DOPE    C3 7638  -0.296   7.870  10.995  0.5456 -0.5027 -0.6617
   60DOPE    HX 7639  -0.397   7.902  10.962  0.1524  0.8069  1.5821
   60DOPE    HY 7640  -0.222   7.941  10.952 -0.2360  0.4833 -0.4216
   60DOPE   O31 7641  -0.282   7.900  11.138 -0.7401  0.5718  0.2049
   60DOPE   C31 7642  -0.386   7.884  11.209 -0.8010 -0.1810 -0.2127
   60DOPE   O32 7643  -0.501   7.859  11.168 -0.0370 -0.0811  0.1589
   60DOPE   C32 7644  -0.347   7.905  11.360 -0.4274 -0.6701  0.0670
   60DOPE   H2X 7645  -0.288   7.997  11.376 -1.9614  0.3738 -0.0259
   60DOPE   H2Y 7646  -0.445   7.914  11.411 -1.5460  3.1646 -2.3562
   60DOPE   C23 7647  -0.512   7.424  11.249 -0.2324 -0.0751  0.2658
   60DOPE   H3R 7648  -0.414   7.394  11.293 -0.3037 -0.5143  0.1207
   60DOPE   H3S 7649  -0.577   7.335  11.252 -0.0482 -0.1851  2.8399
   60DOPE   C24 7650  -0.582   7.533  11.325 -0.8555  0.0256 -0.0571
   60DOPE   H4R 7651  -0.685   7.541  11.282 -0.3460 -0.1418 -1.3564
   60DOPE   H4S 7652  -0.527   7.629  11.326 -1.8647  0.6557 -1.3510
   60DOPE   C25 7653  -0.604   7.495  11.471 -0.3315 -0.4768  0.4107
   60DOPE   H5R 7654  -0.504   7.470  11.513 -0.8835 -1.3489  1.2440
   60DOPE   H5S 7655  -0.663   7.401  11.473  0.3928 -0.9541 -0.1095
   60DOPE   C26 7656  -0.653   7.598  11.571  0.0058  0.1963 -0.3764
   60DOPE   H6R 7657  -0.748   7.646  11.538  0.7649  1.8825 -0.2400
   60DOPE   H6S 7658  -0.576   7.678  11.577 -0.5857  0.7695 -0.3325
   60DOPE   C27 7659  -0.686   7.536  11.705 -0.4391 -0.4499  0.4948
   60DOPE   H7R 7660  -0.590   7.508  11.755 -0.7183 -0.6850  0.9095
   60DOPE   H7S 7661  -0.742   7.441  11.691 -0.1856 -0.2117 -2.7120
   60DOPE   C28 7662  -0.764   7.633  11.799  0.2903 -0.1966  0.2842
   60DOPE   H8R 7663  -0.806   7.581  11.887  0.8917 -1.3456 -0.0893
   60DOPE   H8S 7664  -0.854   7.663  11.740 -1.2012 -1.8312  1.6046
   60DOPE   C29 7665  -0.685   7.755  11.830 -0.3659  0.1137 -0.2390
   60DOPE   H9R 7666  -0.651   7.817  11.746  0.4701 -2.4897 -1.9506
   60DOPE  C210 7667  -0.646   7.804  11.948 -0.2031  0.2210 -0.5200
   60DOPE  H10R 7668  -0.585   7.895  11.957  0.8422 -0.6367  2.1501
   60DOPE  C211 7669  -0.679   7.734  12.082  0.2333 -0.2866 -0.1458
   60DOPE  H11R 7670  -0.586   7.733  12.143 -0.7169  1.1602  1.4273
   60DOPE  H11S 7671  -0.706   7.626  12.070 -0.7409 -0.1887  0.9407
   60DOPE  C212 7672  -0.795   7.808  12.160 -0.1893 -0.3453  1.1239
   60DOPE  H12R 7673  -0.883   7.799  12.093  1.3042  2.4685 -1.4594
   60DOPE  H12S 7674  -0.778   7.917  12.163  0.1549 -0.2982 -1.1174
   60DOPE  C213 7675  -0.816   7.742  12.289  0.8296 -0.0755 -0.8574
   60DOPE  H13R 7676  -0.818   7.632  12.278 -0.3755 -0.0224 -1.3974
   60DOPE  H13S 7677  -0.912   7.784  12.325  0.5523  1.1492 -2.8569
   60DOPE  C214 7678  -0.701   7.771  12.394 -0.2188 -0.3091  0.7868
   60DOPE  H14R 7679  -0.721   7.875  12.428 -1.4754  0.9419 -3.2990
   60DOPE  H14S 7680  -0.608   7.772  12.333 -0.5301  0.9928  0.3033
   60DOPE  C215 7681  -0.688   7.698  12.518  0.6662  0.2994 -0.2392
   60DOPE  H15R 7682  -0.788   7.676  12.560  0.1905 -2.1684 -2.4156
   60DOPE  H15S 7683  -0.625   7.758  12.587  1.2290 -0.3995 -0.1320
   60DOPE  C216 7684  -0.614   7.568  12.497 -0.2606  0.3819 -0.1266
   60DOPE  H16R 7685  -0.522   7.597  12.441  0.3333 -1.6289 -0.2740
   60DOPE  H16S 7686  -0.667   7.502  12.425 -0.0280  0.6048 -0.5071
   60DOPE  C217 7687  -0.559   7.502  12.635 -0.1746  0.7904  0.0282
   60DOPE  H17R 7688  -0.646   7.489  12.703 -0.6763 -1.8482 -1.0050
   60DOPE  H17S 7689  -0.479   7.570  12.670  0.3763  2.0690 -3.3279
   60DOPE  C218 7690  -0.496   7.368  12.610 -0.3019 -0.9079 -0.4761
   60DOPE  H18R 7691  -0.561   7.313  12.538  1.1568 -2.9895 -0.2709
   60DOPE  H18S 7692  -0.476   7.303  12.698 -2.4802 -0.8984  0.0908
   60DOPE  H18T 7693  -0.400   7.389  12.557 -0.2460  2.4448  0.7093
   60DOPE   C33 7694  -0.271   7.789  11.416  0.2482  0.1770  0.1356
   60DOPE   H3X 7695  -0.188   7.763  11.345 -0.5831  1.6437 -1.4508
   60DOPE   H3Y 7696  -0.332   7.696  11.412 -0.9144  0.8441  1.6096
   60DOPE   C34 7697  -0.212   7.820  11.552 -0.9621  0.1129  0.0366
   60DOPE   H4X 7698  -0.138   7.744  11.584  0.5356  2.1512  1.6875
   60DOPE   H4Y 7699  -0.148   7.910  11.540  1.2756 -1.1603  1.6534
   60DOPE   C35 7700  -0.314   7.842  11.657  0.5622 -0.2992 -0.1048
   60DOPE   H5X 7701  -0.383   7.756  11.669 -0.7923  0.3366 -2.5777
   60DOPE   H5Y 7702  -0.373   7.930  11.623  0.1675 -0.6762 -0.4138
   60DOPE   C36 7703  -0.246   7.882  11.790 -0.0653 -0.1787 -0.4884
   60DOPE   H6X 7704  -0.143   7.842  11.790  0.8118  1.8609  1.3576
   60DOPE   H6Y 7705  -0.301   7.830  11.871  0.3693 -2.1357 -1.3805
   60DOPE   C37 7706  -0.239   8.029  11.821  0.3736  0.2906  0.0599
   60DOPE   H7X 7707  -0.171   8.077  11.747 -0.7798  0.2477 -1.0657
   60DOPE   H7Y 7708  -0.339   8.070  11.795 -0.2625 -0.3602  1.4148
   60DOPE   C38 7709  -0.207   8.063  11.969  0.3322  0.4649 -0.1191
   60DOPE   H8X 7710  -0.286   8.000  12.016 -2.3647  4.0356  0.5803
   60DOPE   H8Y 7711  -0.221   8.171  11.990 -0.6776  0.2325  0.4422
   60DOPE   C39 7712  -0.068   8.025  12.028  0.0411  0.6494  0.6521
   60DOPE   H9X 7713  -0.046   7.919  12.048  2.1867  1.0223  0.5147
   60DOPE  C310 7714   0.030   8.106  12.072  0.0108  0.7621  0.3155
   60DOPE  H10X 7715   0.127   8.059  12.094  0.6768  1.3194 -1.2937
   60DOPE  C311 7716   0.032   8.254  12.066 -0.0246 -0.1167 -0.6279
   60DOPE  H11X 7717   0.046   8.280  11.959 -1.7248  0.3527 -0.7575
   60DOPE  H11Y 7718  -0.068   8.295  12.088 -0.1002 -0.4081 -0.4250
   60DOPE  C312 7719   0.141   8.316  12.159 -0.6588 -0.1998 -0.2633
   60DOPE  H12X 7720   0.233   8.270  12.116 -1.9830 -1.4812 -1.8401
   60DOPE  H12Y 7721   0.121   8.277  12.261 -1.0601 -0.3613 -0.4025
   60DOPE  C313 7722   0.166   8.466  12.157  0.1225 -0.1047 -0.1962
   60DOPE  H13X 7723   0.180   8.500  12.053 -1.0218  1.3341  0.0908
   60DOPE  H13Y 7724   0.074   8.516  12.194  0.2291 -1.1081  1.5350
   60DOPE  C314 7725   0.271   8.508  12.258  0.7401 -0.2172  0.1462
   60DOPE  H14X 7726   0.368   8.513  12.204  0.9777  1.0088  0.6458
   60DOPE  H14Y 7727   0.274   8.447  12.351 -0.3161  1.0398  1.0411
   60DOPE  C315 7728   0.271   8.659  12.293  0.5433 -0.8483  0.5173
   60DOPE  H15X 7729   0.165   8.671  12.326  1.0602 -0.2061  2.0584
   60DOPE  H15Y 7730   0.279   8.716  12.198  0.6740  0.4172  1.2674
   60DOPE  C316 7731   0.371   8.715  12.391 -0.1121  0.6259  0.4073
   60DOPE  H16X 7732   0.398   8.823  12.390 -0.5822  0.7473  0.6123
   60DOPE  H16Y 7733   0.459   8.648  12.378 -1.3156 -0.7514 -0.9317
   60DOPE  C317 7734   0.318   8.693  12.537  0.2284 -0.1905  0.1672
   60DOPE  H17X 7735   0.230   8.759  12.553  0.6787 -0.2104  3.5036
   60DOPE  H17Y 7736   0.274   8.591  12.539  1.6803 -0.8510  1.8458
   60DOPE  C318 7737   0.420   8.715  12.647 -0.2292 -0.0747 -0.4503
   60DOPE  H18X 7738   0.472   8.812  12.633  0.9099 -0.2088  2.2383
   60DOPE  H18Y 7739   0.371   8.712  12.747 -0.0185 -0.2126 -0.3482
   60DOPE  H18Z 7740   0.494   8.632  12.644 -1.5587 -1.2584 -1.6616
   6123SM     N 7741   4.127   5.269  14.298  0.5227  0.0423  0.0142
   6123SM   C15 7742   4.013   5.186  14.223  0.8162 -0.8290 -0.1007
   6123SM  H15A 7743   4.056   5.089  14.204 -0.7788 -1.1866 -2.2452
   6123SM  H15B 7744   3.984   5.219  14.125 -0.7932 -1.9339 -0.0499
   6123SM  H15C 7745   3.929   5.175  14.291  0.6394  0.2671 -0.1134
   6123SM   C14 7746   4.082   5.405  14.313 -0.7707 -0.1426 -0.5673
   6123SM  H14A 7747   3.996   5.409  14.378  0.2578 -0.9578  0.9018
   6123SM  H14B 7748   4.055   5.450  14.218 -2.3495  0.1854  0.0070
   6123SM  H14C 7749   4.154   5.471  14.358 -2.1678  1.8072 -1.0533
   6123SM   C13 7750   4.137   5.197  14.432 -0.5969  0.7545  0.4037
   6123SM  H13A 7751   4.041   5.182  14.479 -1.2034  0.9859 -0.7310
   6123SM  H13B 7752   4.208   5.254  14.491 -0.4856  0.8952  0.1353
   6123SM  H13C 7753   4.188   5.102  14.425  0.5597  1.4502 -1.1649
   6123SM   C12 7754   4.257   5.261  14.213 -0.0914  0.6566  0.4430
   6123SM  H12A 7755   4.336   5.315  14.265 -1.0360  1.4320  1.1193
   6123SM  H12B 7756   4.238   5.306  14.117 -1.3049 -1.9173 -0.5865
   6123SM   C11 7757   4.317   5.125  14.176 -0.4064  0.8089  0.3984
   6123SM  H11A 7758   4.359   5.077  14.267 -1.0368  1.2111  0.9157
   6123SM  H11B 7759   4.410   5.136  14.118  0.5872 -0.5619  1.6466
   6123SM     P 7760   4.233   4.888  14.127 -0.2429  0.2936 -0.1159
   6123SM   O13 7761   4.349   4.824  14.056 -0.5863  0.0158  0.5613
   6123SM   O14 7762   4.220   4.872  14.275 -0.3718 -0.4017  0.5535
   6123SM   O11 7763   4.098   4.839  14.059  0.0290 -0.7926 -0.0210
   6123SM   O12 7764   4.234   5.043  14.104  0.2023 -0.0531  0.1411
   6123SM   C1S 7765   4.014   4.933  13.992 -0.3098  0.9106  0.1709
   6123SM   H1S 7766   4.071   5.019  13.951  0.8006  0.0761 -0.0874
   6123SM   H1T 7767   3.932   4.974  14.055 -0.0150 -0.0263  1.1763
   6123SM    NF 7768   3.880   4.974  13.787  0.8361 -0.4620  0.2615
   6123SM   HNF 7769   3.781   4.974  13.788  0.7478  0.6253 -2.1369
   6123SM   C2S 7770   3.944   4.873  13.872 -0.0734  0.3744 -0.2399
   6123SM   H2S 7771   4.031   4.830  13.819 -0.9066 -0.6500 -0.8122
   6123SM   C3S 7772   3.847   4.770  13.913  0.3490  0.2559 -0.0214
   6123SM   H3S 7773   3.759   4.820  13.959 -0.8416 -0.7017 -1.1717
   6123SM    O3 7774   3.889   4.672  14.006  0.2559  0.1118 -0.0999
   6123SM   HO3 7775   3.973   4.705  14.038  1.5572 -2.4530 -0.6344
   6123SM   C4S 7776   3.789   4.688  13.796  0.0565  0.6819  0.3331
   6123SM   H4S 7777   3.701   4.738  13.751 -1.5635 -2.5172 -0.3417
   6123SM   C5S 7778   3.829   4.572  13.747 -1.1094  0.3387  0.1034
   6123SM   H5S 7779   3.905   4.512  13.799 -1.8532  0.6747  1.6109
   6123SM   C6S 7780   3.763   4.493  13.633 -0.2873 -0.6975 -0.5567
   6123SM   H6S 7781   3.685   4.422  13.670  1.2939 -1.7772  0.8583
   6123SM   H6T 7782   3.840   4.445  13.569  0.5712  3.1400 -2.6927
   6123SM   C7S 7783   3.688   4.591  13.538  0.1278 -0.1941  0.3321
   6123SM   H7S 7784   3.765   4.654  13.490  0.3425 -1.8282 -1.5788
   6123SM   H7T 7785   3.608   4.645  13.594 -0.9084 -0.0385 -1.2475
   6123SM   C8S 7786   3.625   4.522  13.413  0.2059  0.5605 -0.3095
   6123SM   H8S 7787   3.598   4.593  13.332 -0.8656  0.9402  0.3614
   6123SM   H8T 7788   3.529   4.471  13.439 -0.8109  1.5469 -1.9459
   6123SM   C9S 7789   3.721   4.417  13.353  0.7031  0.2263 -0.1028
   6123SM   H9S 7790   3.723   4.324  13.415 -0.0494 -0.6625 -1.3658
   6123SM   H9T 7791   3.820   4.460  13.327  0.6537  0.2628 -0.2269
   6123SM  C10S 7792   3.690   4.360  13.210  0.3260 -0.9605 -0.0202
   6123SM  H10S 7793   3.581   4.337  13.209  0.6242 -2.4236 -0.2360
   6123SM  H10T 7794   3.754   4.272  13.191 -0.4573 -1.6092  0.2882
   6123SM  C11S 7795   3.695   4.467  13.096 -0.0772  0.3824 -0.5166
   6123SM  H11S 7796   3.798   4.509  13.094 -0.1860  0.6490 -2.1336
   6123SM  H11T 7797   3.627   4.551  13.122 -1.2004 -0.7169  0.2006
   6123SM  C12S 7798   3.656   4.411  12.959 -0.3016  0.6206  0.4562
   6123SM  H12S 7799   3.558   4.361  12.978 -0.0726  0.3241  0.8714
   6123SM  H12T 7800   3.721   4.328  12.924  0.2636  0.7964  1.0590
   6123SM  C13S 7801   3.630   4.513  12.849 -0.3496  0.1947  0.0607
   6123SM  H13S 7802   3.580   4.601  12.895  2.0045  1.7498 -0.1409
   6123SM  H13T 7803   3.576   4.475  12.760  0.6147 -0.6381 -0.1913
   6123SM  C14S 7804   3.758   4.574  12.795  0.4914  0.8178  0.0828
   6123SM  H14S 7805   3.803   4.487  12.742  1.3655 -0.1138  2.2302
   6123SM  H14T 7806   3.824   4.602  12.880  2.9767  0.3920 -1.5808
   6123SM  C15S 7807   3.738   4.699  12.700 -0.4197  0.0968  0.2705
   6123SM  H15S 7808   3.839   4.728  12.664  0.3118  1.8511  3.3719
   6123SM  H15T 7809   3.699   4.781  12.764 -0.9310  0.1625 -0.1180
   6123SM  C16S 7810   3.652   4.686  12.581  0.1196 -0.2128  0.5455
   6123SM  H16S 7811   3.549   4.652  12.604 -0.4948  1.4983  0.4945
   6123SM  H16T 7812   3.694   4.602  12.521 -0.0877  1.0903 -1.4932
   6123SM  C17S 7813   3.620   4.804  12.494 -0.2229 -0.3817  0.6376
   6123SM  H17S 7814   3.584   4.886  12.559 -0.9596 -0.0908 -0.1107
   6123SM  H17T 7815   3.534   4.779  12.428  0.5240  2.6120 -1.7201
   6123SM  C18S 7816   3.744   4.844  12.409  1.1430 -0.4741 -0.6312
   6123SM  H18S 7817   3.828   4.885  12.469 -0.0891 -0.5986  1.2784
   6123SM  H18T 7818   3.710   4.923  12.338 -0.8946 -0.8162 -0.1011
   6123SM  H18U 7819   3.783   4.770  12.337  0.6297  1.1181 -2.6228
   6123SM   C1F 7820   3.941   5.062  13.716  0.9936  0.1112  0.5153
   6123SM    OF 7821   4.062   5.055  13.709 -0.8394  0.2271 -0.1422
   6123SM   C2F 7822   3.853   5.175  13.660  0.4553  0.0881  0.3973
   6123SM   H2F 7823   3.826   5.234  13.750  1.1155 -1.4317  1.6508
   6123SM   H2G 7824   3.759   5.134  13.616  1.6324 -1.0130 -1.1781
   6123SM   C3F 7825   3.928   5.260  13.548 -0.1503  0.8296  0.4420
   6123SM   H3F 7826   3.986   5.184  13.490  0.4826  1.3550  0.3679
   6123SM   H3G 7827   4.001   5.331  13.593 -1.4592  2.4324  0.1138
   6123SM   C4F 7828   3.825   5.343  13.464 -0.1826 -0.0623  0.6803
   6123SM   H4F 7829   3.760   5.279  13.402  2.6314 -0.3619 -2.2155
   6123SM   H4G 7830   3.893   5.392  13.390  0.8506 -1.0016  0.9744
   6123SM   C5F 7831   3.747   5.446  13.542 -0.5123  0.4455  0.2067
   6123SM   H5F 7832   3.823   5.494  13.607  0.3352  0.4588 -0.7673
   6123SM   H5G 7833   3.671   5.382  13.592  0.2599  0.9992  2.1589
   6123SM   C6F 7834   3.672   5.543  13.446 -0.0157  0.4187  0.3099
   6123SM   H6F 7835   3.614   5.472  13.384 -0.2063 -0.3570  1.3482
   6123SM   H6G 7836   3.754   5.590  13.388 -0.6380 -1.6811 -2.4525
   6123SM   C7F 7837   3.582   5.650  13.514 -0.5293  0.0643 -0.5734
   6123SM   H7F 7838   3.638   5.702  13.596  0.5590 -2.5847  0.4736
   6123SM   H7G 7839   3.493   5.607  13.566 -0.1582 -0.6863 -0.5456
   6123SM   C8F 7840   3.532   5.743  13.399  0.1021  0.3369 -0.1273
   6123SM   H8F 7841   3.471   5.687  13.325  0.2078 -0.1888  0.1805
   6123SM   H8G 7842   3.620   5.786  13.346 -0.2573  1.9202  0.5049
   6123SM   C9F 7843   3.438   5.851  13.455 -0.5615  0.4996 -0.3525
   6123SM   H9F 7844   3.497   5.942  13.479 -0.4360  0.3391 -0.0401
   6123SM   H9G 7845   3.389   5.810  13.546 -0.5601 -2.2993 -1.5032
   6123SM  C10F 7846   3.327   5.882  13.356 -0.1762 -0.7864  0.7231
   6123SM  H10F 7847   3.283   5.785  13.326 -1.3288 -0.0105 -0.1865
   6123SM  H10G 7848   3.374   5.934  13.269  1.4052 -0.7523  1.5598
   6123SM  C11F 7849   3.212   5.970  13.402  0.1688  0.5492 -0.0932
   6123SM  H11F 7850   3.240   6.068  13.446  1.1921 -0.3583  1.3639
   6123SM  H11G 7851   3.164   5.901  13.475  0.9926  0.2389  0.1617
   6123SM  C12F 7852   3.113   5.982  13.281  0.0587  0.3378 -0.3339
   6123SM  H12F 7853   3.014   6.013  13.322 -0.9939 -1.9329 -1.0222
   6123SM  H12G 7854   3.092   5.884  13.234 -1.3430  0.0300  0.8598
   6123SM  C13F 7855   3.149   6.093  13.175  0.1090  0.0097 -0.8023
   6123SM  H13F 7856   3.235   6.046  13.124  1.2337  2.6067 -1.4130
   6123SM  H13G 7857   3.195   6.177  13.231 -1.8706 -0.2007  1.3217
   6123SM  C14F 7858   3.037   6.128  13.087 -0.0345 -0.3549 -0.0462
   6123SM  H14F 7859   2.946   6.140  13.149  0.3571  1.2672  0.2570
   6123SM  H14G 7860   3.021   6.045  13.014  0.6770  0.0069 -0.6312
   6123SM  C15F 7861   3.053   6.258  13.004  0.4643  0.0335 -0.6857
   6123SM  H15F 7862   3.123   6.249  12.918  0.7837 -2.3092 -0.2336
   6123SM  H15G 7863   3.079   6.340  13.074 -0.2780  0.3837 -0.8106
   6123SM  C16F 7864   2.913   6.301  12.955 -0.3737  0.0601  0.0063
   6123SM  H16F 7865   2.842   6.326  13.036 -0.7551 -1.6489  0.2348
   6123SM  H16G 7866   2.873   6.219  12.891  1.6249 -0.5768 -0.4840
   6123SM  C17F 7867   2.921   6.429  12.869 -0.1837 -0.0926  0.1390
   6123SM  H17F 7868   2.835   6.446  12.801  0.7941 -2.2286 -1.7759
   6123SM  H17G 7869   3.007   6.416  12.800 -0.9113 -2.2981 -0.4488
   6123SM  C18F 7870   2.931   6.552  12.959  0.1351  0.1764 -0.3870
   6123SM  H18F 7871   3.014   6.542  13.032 -0.8905  1.1221  0.9363
   6123SM  H18G 7872   2.835   6.562  13.013 -0.3153  1.9002 -1.4341
   6123SM  C19F 7873   2.930   6.685  12.886  0.6320  0.1622  0.5513
   6123SM  H19F 7874   2.842   6.682  12.818 -0.3894  0.1241  1.8264
   6123SM  H19G 7875   3.024   6.686  12.826  0.0056 -1.7015 -0.5290
   6123SM  C20F 7876   2.902   6.804  12.981 -0.2847 -0.0562 -0.3762
   6123SM  H20F 7877   2.813   6.795  13.047 -0.7158 -0.8032 -1.0421
   6123SM  H20G 7878   2.887   6.903  12.933 -2.0900  0.1972  0.6196
   6123SM  C21F 7879   3.011   6.819  13.095  0.0560  1.1113  0.2339
   6123SM  H21F 7880   3.111   6.831  13.047 -0.3633  0.0211 -0.9594
   6123SM  H21G 7881   3.022   6.724  13.151  1.1943  0.2194 -1.4108
   6123SM  C22F 7882   2.960   6.925  13.193  0.4288 -0.0444  0.4163
   6123SM  H22F 7883   3.004   6.897  13.291 -1.4175  1.6267  1.7951
   6123SM  H22G 7884   2.854   6.900  13.216  0.3942 -0.5002 -0.2217
   6123SM  C23F 7885   2.973   7.071  13.152 -0.3088 -0.3022  0.0609
   6123SM  H23F 7886   3.080   7.100  13.142  0.0198  0.1124  3.4488
   6123SM  H23G 7887   2.946   7.139  13.236 -1.8744 -0.2836 -0.4290
   6123SM  H23H 7888   2.913   7.102  13.065 -0.4126 -0.9892 -0.1184
   6223SM     N 7889   3.614   4.777  14.290  0.2220 -0.1431 -0.5090
   6223SM   C15 7890   3.499   4.693  14.243  0.3352  0.0062  0.1418
   6223SM  H15A 7891   3.411   4.750  14.215  1.3099  1.9063  0.7140
   6223SM  H15B 7892   3.475   4.617  14.315 -1.6116 -1.0773 -1.5453
   6223SM  H15C 7893   3.530   4.641  14.154  0.9191 -0.8896  0.8541
   6223SM   C14 7894   3.626   4.905  14.219  0.1440 -0.2804 -0.1210
   6223SM  H14A 7895   3.663   4.885  14.119  1.6980 -3.1784  0.9091
   6223SM  H14B 7896   3.688   4.968  14.282  0.3829 -0.1735 -0.4593
   6223SM  H14C 7897   3.533   4.959  14.210  0.2347 -0.0644  0.2360
   6223SM   C13 7898   3.600   4.807  14.431 -0.3896  0.5392  0.8227
   6223SM  H13A 7899   3.509   4.864  14.447  1.1730  2.7833  2.3783
   6223SM  H13B 7900   3.689   4.864  14.454 -0.7529  2.3829 -1.9592
   6223SM  H13C 7901   3.600   4.727  14.504 -1.4037  1.7857  2.2787
   6223SM   C12 7902   3.737   4.691  14.266 -0.6302 -0.3617 -0.5160
   6223SM  H12A 7903   3.827   4.751  14.275  0.3898 -1.9783  0.8744
   6223SM  H12B 7904   3.730   4.664  14.162 -0.7353 -1.3609 -0.2534
   6223SM   C11 7905   3.774   4.561  14.348  0.0516 -0.5680  0.3490
   6223SM  H11A 7906   3.770   4.570  14.458 -1.1084 -0.2901  0.2913
   6223SM  H11B 7907   3.878   4.525  14.327 -0.5848 -1.7424 -0.9911
   6223SM     P 7908   3.645   4.342  14.356 -0.0333  0.2037 -0.1557
   6223SM   O13 7909   3.762   4.294  14.426 -0.6054  0.1803 -0.7158
   6223SM   O14 7910   3.520   4.380  14.422  0.2563 -0.2962 -0.3255
   6223SM   O11 7911   3.614   4.249  14.234 -0.0548  0.0295 -0.0996
   6223SM   O12 7912   3.691   4.465  14.285  0.0856  0.6785 -0.0882
   6223SM   C1S 7913   3.535   4.302  14.119 -1.0973  0.2603  0.1498
   6223SM   H1S 7914   3.477   4.393  14.148 -0.0462  0.5339  1.5425
   6223SM   H1T 7915   3.454   4.231  14.093  0.0494 -0.5172 -1.3832
   6223SM    NF 7916   3.536   4.341  13.879  0.7769  0.0805  0.1640
   6223SM   HNF 7917   3.504   4.259  13.831 -0.3802  1.3913 -1.4151
   6223SM   C2S 7918   3.622   4.326  13.994  0.3689  0.1467 -0.2232
   6223SM   H2S 7919   3.688   4.414  14.007  0.3812  0.0536  0.3825
   6223SM   C3S 7920   3.716   4.203  13.977 -0.1445 -0.5233  0.0585
   6223SM   H3S 7921   3.646   4.117  13.967  1.5727 -1.9105 -0.5347
   6223SM    O3 7922   3.808   4.179  14.083 -0.0647 -0.1574 -0.4204
   6223SM   HO3 7923   3.767   4.230  14.153 -0.2414  0.7763 -1.1754
   6223SM   C4S 7924   3.798   4.206  13.848  0.6396 -0.5965  0.5365
   6223SM   H4S 7925   3.743   4.162  13.764  2.6109 -0.6295 -0.8000
   6223SM   C5S 7926   3.933   4.232  13.830  1.1705 -0.4578 -0.4508
   6223SM   H5S 7927   4.003   4.254  13.912  0.0827 -0.8009  0.5883
   6223SM   C6S 7928   4.004   4.213  13.697  0.8800  0.3079 -1.0045
   6223SM   H6S 7929   4.114   4.209  13.709  0.8006  1.8870  0.6202
   6223SM   H6T 7930   3.980   4.307  13.642 -0.3101  0.9736  0.5726
   6223SM   C7S 7931   3.957   4.092  13.608  0.0600  0.8696  0.0593
   6223SM   H7S 7932   3.846   4.090  13.604 -0.0663 -0.1044  2.4236
   6223SM   H7T 7933   3.992   3.994  13.646 -0.1761  0.4228 -0.8576
   6223SM   C8S 7934   4.013   4.109  13.467 -0.8231  0.3526  0.8240
   6223SM   H8S 7935   4.123   4.102  13.473 -0.7604 -1.2373 -1.0062
   6223SM   H8T 7936   3.988   4.200  13.408 -1.4810 -1.5956 -2.1189
   6223SM   C9S 7937   3.977   3.990  13.383  0.3217 -0.0497  0.5786
   6223SM   H9S 7938   3.869   3.973  13.404 -0.3442  1.9074 -0.9139
   6223SM   H9T 7939   4.023   3.899  13.425  1.1511 -0.1933 -0.5971
   6223SM  C10S 7940   4.023   3.990  13.238  0.1093 -0.0894 -0.0027
   6223SM  H10S 7941   4.001   3.888  13.199 -0.3505  0.1061 -0.2666
   6223SM  H10T 7942   4.134   3.997  13.241  0.1301 -0.5024  0.3547
   6223SM  C11S 7943   3.961   4.085  13.140 -0.5592  0.7055  0.3841
   6223SM  H11S 7944   3.966   4.192  13.170  0.2421  1.2673 -1.6281
   6223SM  H11T 7945   3.853   4.061  13.139 -0.0732 -1.6734  0.5981
   6223SM  C12S 7946   4.019   4.078  12.997  0.6433 -0.4111 -0.4673
   6223SM  H12S 7947   4.123   4.112  13.015  0.1270  0.7931  0.4261
   6223SM  H12T 7948   3.962   4.142  12.927 -1.7036 -0.0150  1.6290
   6223SM  C13S 7949   4.036   3.942  12.939 -0.0480 -0.8685  0.8616
   6223SM  H13S 7950   3.937   3.891  12.928 -0.6470  0.1930  1.2035
   6223SM  H13T 7951   4.111   3.893  13.005  1.2580  0.9317  0.7848
   6223SM  C14S 7952   4.097   3.968  12.797 -0.0515  0.5716  0.5961
   6223SM  H14S 7953   4.189   4.030  12.808  0.4347 -0.2510  1.2138
   6223SM  H14T 7954   4.030   4.029  12.733 -0.9930 -1.1802 -0.1642
   6223SM  C15S 7955   4.129   3.839  12.723 -0.0901  0.2094  0.9497
   6223SM  H15S 7956   4.053   3.758  12.726 -0.7854  0.8231  0.3006
   6223SM  H15T 7957   4.220   3.792  12.767 -1.6321 -3.9610  0.1737
   6223SM  C16S 7958   4.148   3.866  12.575  0.0547 -0.0723 -0.8471
   6223SM  H16S 7959   4.247   3.913  12.554  0.0188  0.1874 -0.4385
   6223SM  H16T 7960   4.066   3.932  12.541  1.0937  1.5102 -0.3759
   6223SM  C17S 7961   4.165   3.736  12.495  0.2360  0.3871 -0.6346
   6223SM  H17S 7962   4.069   3.687  12.469 -0.6468  1.8711 -0.3519
   6223SM  H17T 7963   4.234   3.665  12.543  0.0868 -0.7411 -2.0224
   6223SM  C18S 7964   4.230   3.762  12.354 -0.2385 -0.2891  0.0444
   6223SM  H18S 7965   4.336   3.796  12.363 -0.9049  1.7096  1.2276
   6223SM  H18T 7966   4.174   3.835  12.291 -0.2897 -1.7521 -1.6671
   6223SM  H18U 7967   4.228   3.675  12.287  0.8182 -0.3457  0.0657
   6223SM   C1F 7968   3.454   4.443  13.867 -0.9188 -0.9282  0.1666
   6223SM    OF 7969   3.468   4.539  13.943  1.0520 -0.0521 -0.3569
   6223SM   C2F 7970   3.348   4.443  13.761  0.2434 -0.7251  0.7046
   6223SM   H2F 7971   3.271   4.363  13.772 -0.2788 -0.0699  2.0278
   6223SM   H2G 7972   3.392   4.410  13.664  1.1723  0.7094  0.6171
   6223SM   C3F 7973   3.271   4.574  13.742 -0.1899  0.3129 -0.5616
   6223SM   H3F 7974   3.331   4.666  13.763 -0.2489 -0.0952  1.5484
   6223SM   H3G 7975   3.179   4.576  13.804 -1.9402 -1.2969 -2.9191
   6223SM   C4F 7976   3.197   4.578  13.605 -0.1557  0.3248 -0.5394
   6223SM   H4F 7977   3.164   4.683  13.591 -1.8797 -0.2571 -1.1666
   6223SM   H4G 7978   3.101   4.522  13.607 -0.6047  0.9592 -2.5224
   6223SM   C5F 7979   3.278   4.563  13.477  0.2318  0.0263 -0.0687
   6223SM   H5F 7980   3.334   4.467  13.470  1.4573  0.5102  1.9842
   6223SM   H5G 7981   3.362   4.636  13.469 -0.5202  0.7177 -2.2046
   6223SM   C6F 7982   3.187   4.584  13.352 -0.6798  0.4040 -0.4184
   6223SM   H6F 7983   3.133   4.680  13.364 -4.1263 -1.4331  0.3357
   6223SM   H6G 7984   3.112   4.501  13.347 -0.0878 -0.1080 -0.9362
   6223SM   C7F 7985   3.266   4.578  13.219 -0.1496 -0.4899 -0.8003
   6223SM   H7F 7986   3.328   4.487  13.231 -0.7753 -0.9366 -0.8710
   6223SM   H7G 7987   3.327   4.671  13.217 -3.5468  1.9434 -2.2524
   6223SM   C8F 7988   3.172   4.566  13.094  0.4257  0.1461  0.6508
   6223SM   H8F 7989   3.103   4.653  13.097  0.8492  0.4688  1.6533
   6223SM   H8G 7990   3.111   4.474  13.100 -2.4499  1.9621  1.1748
   6223SM   C9F 7991   3.257   4.557  12.966  0.3234  0.6431 -0.0349
   6223SM   H9F 7992   3.351   4.502  12.982 -0.6778 -0.7668  1.2450
   6223SM   H9G 7993   3.287   4.663  12.952  0.1905  0.4833 -1.7692
   6223SM  C10F 7994   3.185   4.495  12.838 -0.9690 -0.0158 -0.1901
   6223SM  H10F 7995   3.095   4.557  12.822  0.3703  2.0355 -0.2503
   6223SM  H10G 7996   3.166   4.388  12.860 -0.9684  0.0962  0.3741
   6223SM  C11F 7997   3.282   4.503  12.715  0.9583  0.4044  0.3515
   6223SM  H11F 7998   3.372   4.443  12.742  0.8876  0.6793  1.2492
   6223SM  H11G 7999   3.314   4.609  12.705  0.9162  0.4889  1.0788
   6223SM  C12F 8000   3.225   4.451  12.582  0.2831 -0.3773  0.3895
   6223SM  H12F 8001   3.285   4.474  12.492 -0.8567 -0.1127 -0.3208
   6223SM  H12G 8002   3.128   4.500  12.561  0.6258 -0.4036 -1.3569
   6223SM  C13F 8003   3.195   4.297  12.588  0.0523  0.1836  0.4078
   6223SM  H13F 8004   3.124   4.274  12.670  0.0677 -0.7005  0.1866
   6223SM  H13G 8005   3.288   4.246  12.621  0.8509  0.6870 -0.9984
   6223SM  C14F 8006   3.162   4.234  12.452 -0.3787 -0.3901  0.1765
   6223SM  H14F 8007   3.192   4.127  12.449  0.7500 -0.1479  1.7747
   6223SM  H14G 8008   3.221   4.278  12.369  0.2712 -3.8283 -1.3565
   6223SM  C15F 8009   3.014   4.241  12.409 -0.6448 -0.0742  0.3122
   6223SM  H15F 8010   2.973   4.344  12.417  2.2133  1.1793 -0.0623
   6223SM  H15G 8011   2.960   4.176  12.481  0.0688  1.8191  2.6725
   6223SM  C16F 8012   2.987   4.199  12.262  0.4273  0.1546 -0.2879
   6223SM  H16F 8013   3.015   4.092  12.253  1.1659  0.1492  1.5843
   6223SM  H16G 8014   3.062   4.259  12.207  0.8953  0.6426  0.8438
   6223SM  C17F 8015   2.837   4.222  12.221  0.1808  0.1359  0.4464
   6223SM  H17F 8016   2.813   4.329  12.239 -1.2076  0.0463 -0.6347
   6223SM  H17G 8017   2.780   4.157  12.291  0.9286 -0.2870  0.6729
   6223SM  C18F 8018   2.812   4.190  12.072 -0.2783 -0.1167  0.2837
   6223SM  H18F 8019   2.813   4.079  12.069 -0.3738 -0.1525  1.2053
   6223SM  H18G 8020   2.902   4.223  12.016 -0.4298  0.2118  0.2286
   6223SM  C19F 8021   2.678   4.239  12.020 -0.0737  0.4625  0.2310
   6223SM  H19F 8022   2.653   4.329  12.081 -0.1597  1.0038 -0.5865
   6223SM  H19G 8023   2.602   4.163  12.046 -0.4451  1.0880  1.0455
   6223SM  C20F 8024   2.665   4.281  11.872  0.1304  0.1319  0.4537
   6223SM  H20F 8025   2.756   4.343  11.854 -0.6228  1.4735  1.0694
   6223SM  H20G 8026   2.573   4.338  11.849  0.6171 -0.2594 -2.8656
   6223SM  C21F 8027   2.672   4.153  11.790  0.6683 -0.3593 -0.4954
   6223SM  H21F 8028   2.576   4.098  11.802 -0.5131  1.8655  0.8945
   6223SM  H21G 8029   2.760   4.095  11.825  0.2491  0.7037  2.5513
   6223SM  C22F 8030   2.695   4.178  11.637  0.1278 -1.3281 -0.2905
   6223SM  H22F 8031   2.693   4.081  11.584  0.8671 -1.7459  0.4282
   6223SM  H22G 8032   2.799   4.213  11.624  0.2008 -2.0958 -2.0226
   6223SM  C23F 8033   2.604   4.288  11.564 -0.0924  0.3524 -0.1813
   6223SM  H23F 8034   2.494   4.284  11.581 -0.3800  1.2257 -1.6694
   6223SM  H23G 8035   2.635   4.278  11.458 -0.3904 -3.3160 -0.0571
   6223SM  H23H 8036   2.625   4.391  11.601  0.6500 -0.0994  0.7153
   6323SM     N 8037   4.492   6.263  14.140 -0.3406 -0.0312 -0.5833
   6323SM   C15 8038   4.603   6.338  14.214  0.1901  0.1570 -0.0356
   6323SM  H15A 8039   4.617   6.306  14.317  2.3254 -1.1246 -0.6612
   6323SM  H15B 8040   4.584   6.444  14.219  2.7568  0.6636  3.0639
   6323SM  H15C 8041   4.702   6.324  14.174  0.2542  0.3903  0.0401
   6323SM   C14 8042   4.366   6.325  14.181  0.5582 -0.1152  0.5868
   6323SM  H14A 8043   4.290   6.280  14.119  0.4409  0.9377 -0.0558
   6323SM  H14B 8044   4.350   6.428  14.153  0.7212 -0.0789  0.6256
   6323SM  H14C 8045   4.346   6.305  14.286 -2.9794 -1.2061 -0.1491
   6323SM   C13 8046   4.515   6.293  14.003  0.3400 -0.5434  0.5775
   6323SM  H13A 8047   4.441   6.248  13.939  0.1262  0.1067  0.3546
   6323SM  H13B 8048   4.614   6.266  13.969  0.7838  2.0132 -0.3971
   6323SM  H13C 8049   4.509   6.400  13.988 -0.2404 -0.5105  1.0079
   6323SM   C12 8050   4.504   6.112  14.177 -0.0698  0.2966 -0.1661
   6323SM  H12A 8051   4.476   6.109  14.281  1.8759  0.9696  0.4305
   6323SM  H12B 8052   4.607   6.083  14.163 -0.6953 -0.7285 -3.4196
   6323SM   C11 8053   4.411   6.018  14.108  0.7897  0.3475  0.4272
   6323SM  H11A 8054   4.434   6.030  14.000  1.1355  2.5220  0.7070
   6323SM  H11B 8055   4.305   6.047  14.125  1.0418  0.7341  1.4365
   6323SM     P 8056   4.457   5.764  14.081 -0.4208 -0.3197 -0.3814
   6323SM   O13 8057   4.552   5.806  13.977 -0.0286 -0.0354 -0.1670
   6323SM   O14 8058   4.504   5.654  14.164 -0.0611 -0.6479 -0.1662
   6323SM   O11 8059   4.324   5.714  14.012  0.1271 -0.0792 -0.0629
   6323SM   O12 8060   4.418   5.892  14.173  0.5281  0.1685  0.4165
   6323SM   C1S 8061   4.256   5.786  13.907  0.5950 -0.0658  0.0775
   6323SM   H1S 8062   4.273   5.894  13.922 -1.3910  0.5511 -1.5702
   6323SM   H1T 8063   4.147   5.772  13.926  0.9382 -3.0402  0.4015
   6323SM    NF 8064   4.248   5.830  13.655 -0.5638  0.0614 -0.0849
   6323SM   HNF 8065   4.172   5.801  13.598 -1.7846  0.4862  1.2755
   6323SM   C2S 8066   4.296   5.739  13.762  0.1717  0.1930  0.3989
   6323SM   H2S 8067   4.407   5.735  13.762  0.1341 -1.9662 -0.2954
   6323SM   C3S 8068   4.243   5.593  13.742  0.4866  0.2162 -0.1548
   6323SM   H3S 8069   4.132   5.600  13.743  0.5165  1.0055  1.7922
   6323SM    O3 8070   4.280   5.503  13.844 -0.8944 -0.5861 -0.0856
   6323SM   HO3 8071   4.331   5.555  13.906  0.6867 -0.4924 -1.3952
   6323SM   C4S 8072   4.285   5.529  13.617  0.0439  0.4075 -0.5107
   6323SM   H4S 8073   4.388   5.491  13.613  0.2779  1.0449 -0.6362
   6323SM   C5S 8074   4.201   5.496  13.516  0.1123  0.2973  0.4670
   6323SM   H5S 8075   4.092   5.510  13.525 -0.0801 -0.6643 -0.2578
   6323SM   C6S 8076   4.244   5.421  13.394  0.3394  0.6931  0.6021
   6323SM   H6S 8077   4.181   5.331  13.380  0.4006  1.0742 -3.2545
   6323SM   H6T 8078   4.346   5.376  13.402  0.6198  0.6810 -2.0420
   6323SM   C7S 8079   4.233   5.503  13.267 -0.1751  0.0898  0.1711
   6323SM   H7S 8080   4.279   5.603  13.276 -0.1466 -0.0738  2.4916
   6323SM   H7T 8081   4.124   5.519  13.253  0.2316  2.0048 -1.3005
   6323SM   C8S 8082   4.285   5.432  13.139  0.2016 -0.4364  0.4286
   6323SM   H8S 8083   4.239   5.333  13.119 -0.4260  0.3731 -2.6589
   6323SM   H8T 8084   4.393   5.409  13.141  0.0530 -1.0949  1.2038
   6323SM   C9S 8085   4.259   5.528  13.020 -0.8988  0.0727  0.4662
   6323SM   H9S 8086   4.340   5.603  13.003 -0.3050 -0.9624 -1.6781
   6323SM   H9T 8087   4.167   5.586  13.036 -0.8347  0.0684  0.8530
   6323SM  C10S 8088   4.255   5.455  12.882  0.1975  0.4934  0.6861
   6323SM  H10S 8089   4.170   5.383  12.881  0.3626  0.3024 -0.1940
   6323SM  H10T 8090   4.341   5.385  12.874 -1.2830 -1.5013  1.4306
   6323SM  C11S 8091   4.227   5.557  12.762  0.5436 -0.0838  0.0140
   6323SM  H11S 8092   4.299   5.641  12.765  1.8651 -1.1953  0.7419
   6323SM  H11T 8093   4.126   5.599  12.779  0.1415 -0.8584 -0.3814
   6323SM  C12S 8094   4.242   5.490  12.620 -0.3205 -0.0659 -0.2064
   6323SM  H12S 8095   4.220   5.564  12.540  0.1506  0.2821 -0.0178
   6323SM  H12T 8096   4.164   5.411  12.619 -2.8800  2.3028 -1.1047
   6323SM  C13S 8097   4.382   5.417  12.592 -0.5248  0.3903 -0.0388
   6323SM  H13S 8098   4.374   5.358  12.499  4.3200  1.1022 -1.1709
   6323SM  H13T 8099   4.398   5.337  12.667  0.8960  1.4599  0.8491
   6323SM  C14S 8100   4.501   5.513  12.587  0.1967 -0.6080  0.4955
   6323SM  H14S 8101   4.508   5.566  12.684 -0.3084  2.8579 -1.2073
   6323SM  H14T 8102   4.483   5.594  12.514 -2.1929 -2.0846 -0.7090
   6323SM  C15S 8103   4.634   5.448  12.547  0.7001  0.3884  0.4532
   6323SM  H15S 8104   4.606   5.420  12.444  0.2314 -1.3102  1.0074
   6323SM  H15T 8105   4.656   5.362  12.615 -0.2457  0.0804  0.3862
   6323SM  C16S 8106   4.753   5.546  12.532  0.3087  0.9381 -0.3211
   6323SM  H16S 8107   4.835   5.486  12.487 -1.2565 -2.5635  1.0649
   6323SM  H16T 8108   4.772   5.592  12.631  0.6171  1.2834 -0.5382
   6323SM  C17S 8109   4.721   5.667  12.439 -0.3006  0.0034  0.0174
   6323SM  H17S 8110   4.671   5.739  12.508 -0.1468  0.7113 -0.5968
   6323SM  H17T 8111   4.658   5.635  12.354 -1.7186  2.7746 -0.0844
   6323SM  C18S 8112   4.853   5.731  12.387  0.5005  0.5240  0.0894
   6323SM  H18S 8113   4.908   5.664  12.317 -2.3627  0.2693 -2.1006
   6323SM  H18T 8114   4.920   5.748  12.474 -2.0705 -0.8962  2.4920
   6323SM  H18U 8115   4.836   5.828  12.335  1.2436  0.7853  0.3138
   6323SM   C1F 8116   4.299   5.947  13.644 -0.4053 -0.1541 -0.2218
   6323SM    OF 8117   4.393   5.994  13.709 -0.6093 -0.0266  0.3849
   6323SM   C2F 8118   4.217   6.039  13.553  0.3528 -0.0758 -0.3217
   6323SM   H2F 8119   4.145   6.096  13.616  0.1795  0.9675 -1.4404
   6323SM   H2G 8120   4.158   5.974  13.485 -1.1763  0.5573  0.3584
   6323SM   C3F 8121   4.327   6.121  13.490  0.6123  0.2107  0.0068
   6323SM   H3F 8122   4.391   6.049  13.434  2.3871  0.7724  1.2334
   6323SM   H3G 8123   4.393   6.172  13.563  2.1432 -1.8230  0.1275
   6323SM   C4F 8124   4.275   6.230  13.403  0.0562  0.3715 -0.3625
   6323SM   H4F 8125   4.208   6.286  13.472 -0.3056 -0.6791  0.1644
   6323SM   H4G 8126   4.208   6.189  13.325 -0.3128 -1.2078  0.7403
   6323SM   C5F 8127   4.392   6.312  13.346  0.2047 -0.3933 -0.1419
   6323SM   H5F 8128   4.444   6.247  13.272 -0.9239 -2.6852  1.0024
   6323SM   H5G 8129   4.461   6.354  13.423  1.2597  1.2156 -1.8546
   6323SM   C6F 8130   4.339   6.442  13.276 -0.0241  0.0957 -0.9103
   6323SM   H6F 8131   4.271   6.414  13.192 -0.0287 -2.8629 -0.0213
   6323SM   H6G 8132   4.425   6.491  13.223 -0.1313  0.9694 -0.3004
   6323SM   C7F 8133   4.275   6.541  13.379  0.1863  0.4497 -0.6436
   6323SM   H7F 8134   4.317   6.530  13.481  0.5659  1.7708 -0.6296
   6323SM   H7G 8135   4.168   6.518  13.397 -0.4737  4.6441  2.1590
   6323SM   C8F 8136   4.288   6.685  13.323  0.0939  0.5121  0.2217
   6323SM   H8F 8137   4.257   6.683  13.216  1.5670 -2.1609 -0.2152
   6323SM   H8G 8138   4.396   6.704  13.306  0.0828 -0.4858 -1.1293
   6323SM   C9F 8139   4.220   6.787  13.398  0.3758 -0.0655  0.0251
   6323SM   H9F 8140   4.246   6.770  13.505  0.0311  1.2652  0.3314
   6323SM   H9G 8141   4.110   6.785  13.386  0.5076  2.5387 -2.6860
   6323SM  C10F 8142   4.253   6.930  13.352  0.0704 -0.2382  0.1362
   6323SM  H10F 8143   4.360   6.942  13.381  0.0244  1.7458 -0.3566
   6323SM  H10G 8144   4.198   7.000  13.419  0.9310  0.8038 -0.2207
   6323SM  C11F 8145   4.212   6.970  13.206  0.2910  0.5601 -0.2492
   6323SM  H11F 8146   4.104   6.948  13.196  1.0092 -2.3968 -3.1624
   6323SM  H11G 8147   4.267   6.908  13.133  0.7303  0.2996  0.3016
   6323SM  C12F 8148   4.232   7.117  13.176 -0.6756  0.3495 -0.2651
   6323SM  H12F 8149   4.336   7.143  13.204 -0.2762 -1.2568 -0.1168
   6323SM  H12G 8150   4.163   7.167  13.247 -0.7324  2.0989 -1.4733
   6323SM  C13F 8151   4.207   7.148  13.029 -0.4991 -0.4403 -0.1374
   6323SM  H13F 8152   4.103   7.116  13.006 -2.1040  1.6093  3.4370
   6323SM  H13G 8153   4.276   7.080  12.973  0.2486  0.9255 -0.9263
   6323SM  C14F 8154   4.234   7.300  12.997 -0.2793  0.4052 -0.1535
   6323SM  H14F 8155   4.263   7.298  12.890 -0.2382 -2.0122 -0.1533
   6323SM  H14G 8156   4.327   7.331  13.050 -1.3631  1.4388  1.2181
   6323SM  C15F 8157   4.116   7.392  13.030  0.2234  0.3003  0.1144
   6323SM  H15F 8158   4.084   7.367  13.133  0.7553  0.6720  0.3742
   6323SM  H15G 8159   4.033   7.360  12.963 -0.4542  2.7500 -0.3269
   6323SM  C16F 8160   4.140   7.539  13.012  0.2281  0.1911 -0.2378
   6323SM  H16F 8161   4.242   7.554  13.054  0.4610 -1.5547 -0.0993
   6323SM  H16G 8162   4.058   7.581  13.074 -1.5037 -0.8534 -1.7127
   6323SM  C17F 8163   4.142   7.582  12.862  0.2440 -0.6671  0.1878
   6323SM  H17F 8164   4.220   7.516  12.818 -0.1183  0.4029 -2.2151
   6323SM  H17G 8165   4.187   7.682  12.844  0.9384 -1.2361 -1.5385
   6323SM  C18F 8166   4.016   7.556  12.775 -0.1746 -0.1851  0.3750
   6323SM  H18F 8167   3.994   7.447  12.765  0.1074 -0.3927  1.8818
   6323SM  H18G 8168   4.044   7.586  12.671 -0.3794  1.2922  0.7270
   6323SM  C19F 8169   3.892   7.626  12.832 -0.2767 -0.2832  0.1755
   6323SM  H19F 8170   3.925   7.729  12.856 -1.2675 -0.4884  2.7316
   6323SM  H19G 8171   3.852   7.584  12.927  0.9212 -1.9855 -0.0236
   6323SM  C20F 8172   3.776   7.637  12.730  0.6323  0.3918 -0.2587
   6323SM  H20F 8173   3.752   7.533  12.700  0.8049 -0.8078  3.2861
   6323SM  H20G 8174   3.791   7.712  12.649 -1.1142  1.1872  0.0983
   6323SM  C21F 8175   3.654   7.702  12.806  0.1904 -1.0333  0.4353
   6323SM  H21F 8176   3.704   7.768  12.881  1.7158  2.1257 -3.0388
   6323SM  H21G 8177   3.586   7.632  12.859 -1.4029 -0.1466 -0.3750
   6323SM  C22F 8178   3.550   7.789  12.731 -0.5249  0.6551  0.7337
   6323SM  H22F 8179   3.509   7.726  12.650  0.3975  0.9828 -0.0179
   6323SM  H22G 8180   3.601   7.876  12.683 -0.3524 -0.2756 -0.8538
   6323SM  C23F 8181   3.440   7.833  12.834 -0.1120  0.6162 -0.3730
   6323SM  H23F 8182   3.349   7.867  12.781 -1.4733  0.5427  1.8345
   6323SM  H23G 8183   3.489   7.921  12.882  0.3083  0.6610 -0.8708
   6323SM  H23H 8184   3.417   7.753  12.907 -0.1934  1.0466  0.0780
   6423SM     N 8185   6.155   4.519  14.669 -0.6396 -0.1319  0.2788
   6423SM   C15 8186   6.035   4.472  14.738 -0.4043 -0.6071 -0.2883
   6423SM  H15A 8187   6.062   4.431  14.834  0.0621 -1.9535 -0.9658
   6423SM  H15B 8188   5.965   4.414  14.680 -2.8260 -0.7446  2.5106
   6423SM  H15C 8189   5.980   4.561  14.766  0.4244  0.5326 -2.0979
   6423SM   C14 8190   6.231   4.610  14.761 -0.5526 -0.3121 -0.1940
   6423SM  H14A 8191   6.275   4.564  14.848 -0.8892  0.8948  0.6540
   6423SM  H14B 8192   6.171   4.691  14.799  0.9126  2.1730 -2.7405
   6423SM  H14C 8193   6.315   4.658  14.712 -0.4711  0.2409  0.4765
   6423SM   C13 8194   6.241   4.404  14.630  0.6907 -0.0636  0.1663
   6423SM  H13A 8195   6.327   4.438  14.573  0.4943 -1.9864 -1.4222
   6423SM  H13B 8196   6.178   4.353  14.558 -0.3345  0.0778  0.9399
   6423SM  H13C 8197   6.275   4.350  14.717 -0.2452  1.5715  1.6024
   6423SM   C12 8198   6.107   4.600  14.548  0.5212 -0.6044 -0.7276
   6423SM  H12A 8199   6.029   4.670  14.574  2.0746  1.0590 -0.2975
   6423SM  H12B 8200   6.069   4.529  14.476  2.7612 -2.0940 -0.5341
   6423SM   C11 8201   6.208   4.696  14.476 -0.3683 -0.5768 -0.7376
   6423SM  H11A 8202   6.160   4.723  14.379 -0.0487  2.3474 -0.1692
   6423SM  H11B 8203   6.303   4.647  14.444 -0.5693 -1.6079  0.1595
   6423SM     P 8204   6.137   4.930  14.567  0.3516  0.7418 -0.7629
   6423SM   O13 8205   6.108   4.943  14.710  0.2001 -0.4295 -0.3102
   6423SM   O14 8206   6.197   5.053  14.504 -0.4510  0.0071 -0.4875
   6423SM   O11 8207   6.005   4.894  14.487 -0.2461  0.1235 -0.2443
   6423SM   O12 8208   6.236   4.814  14.544  0.5586  0.4367 -0.1591
   6423SM   C1S 8209   5.936   4.977  14.395  0.1648 -0.3066  0.1132
   6423SM   H1S 8210   6.006   5.053  14.354 -1.0226  0.9816  0.3804
   6423SM   H1T 8211   5.854   5.029  14.449  1.6483  2.4851 -0.0889
   6423SM    NF 8212   5.818   4.998  14.175  0.0641 -0.1343 -0.0101
   6423SM   HNF 8213   5.719   5.001  14.165 -0.1591  0.9043  2.0253
   6423SM   C2S 8214   5.869   4.901  14.273 -1.0331  0.3967  0.3212
   6423SM   H2S 8215   5.954   4.848  14.224 -1.6589  0.7445 -1.1830
   6423SM   C3S 8216   5.764   4.796  14.320  0.1504 -0.1181  0.2544
   6423SM   H3S 8217   5.678   4.855  14.357  0.5674  0.7464 -0.1483
   6423SM    O3 8218   5.810   4.719  14.431  0.5251 -0.1140  0.1506
   6423SM   HO3 8219   5.884   4.776  14.454 -0.4137  1.3603 -0.3659
   6423SM   C4S 8220   5.719   4.712  14.206 -0.2120  0.3171 -0.1943
   6423SM   H4S 8221   5.648   4.756  14.133 -0.1604 -0.0165 -0.4480
   6423SM   C5S 8222   5.783   4.597  14.168 -0.1130 -0.0257 -0.3544
   6423SM   H5S 8223   5.870   4.564  14.228  1.4944  0.6148 -2.2322
   6423SM   C6S 8224   5.765   4.501  14.055 -0.4211  0.6738  0.0366
   6423SM   H6S 8225   5.755   4.398  14.096  1.2473  0.3873 -0.2049
   6423SM   H6T 8226   5.854   4.504  13.989  0.4212  0.7139  1.1342
   6423SM   C7S 8227   5.643   4.515  13.967  1.2014  0.1907 -0.2422
   6423SM   H7S 8228   5.665   4.449  13.880 -2.0692  0.3470 -1.3327
   6423SM   H7T 8229   5.627   4.618  13.927 -2.4133 -0.5891 -1.2177
   6423SM   C8S 8230   5.507   4.463  14.014 -0.8821  0.3411  0.3920
   6423SM   H8S 8231   5.480   4.510  14.111 -1.4336  0.4328  0.2027
   6423SM   H8T 8232   5.513   4.353  14.022 -0.5826  0.4353  1.6837
   6423SM   C9S 8233   5.398   4.501  13.912 -0.0032 -0.4530  0.1241
   6423SM   H9S 8234   5.385   4.610  13.895 -0.2495 -0.3742  0.7995
   6423SM   H9T 8235   5.297   4.466  13.943  0.0204 -0.8111 -0.1908
   6423SM  C10S 8236   5.413   4.437  13.769 -0.5545  0.3576 -0.5835
   6423SM  H10S 8237   5.404   4.329  13.794 -0.4920 -0.0758 -2.3533
   6423SM  H10T 8238   5.511   4.469  13.730 -0.4238  1.9545  0.9670
   6423SM  C11S 8239   5.300   4.470  13.674  0.0083 -0.3210  0.1644
   6423SM  H11S 8240   5.304   4.579  13.655 -0.0375 -0.2071  0.7913
   6423SM  H11T 8241   5.201   4.458  13.723  0.1978  0.6944  0.8133
   6423SM  C12S 8242   5.314   4.401  13.542  0.2061 -0.2638  0.3254
   6423SM  H12S 8243   5.321   4.291  13.553  0.4600 -0.6430 -2.7365
   6423SM  H12T 8244   5.406   4.440  13.494 -0.2698 -1.4601 -1.6422
   6423SM  C13S 8245   5.198   4.423  13.448  0.1395  0.0897 -0.3175
   6423SM  H13S 8246   5.180   4.533  13.449 -1.1169 -0.0934  1.4385
   6423SM  H13T 8247   5.104   4.384  13.491  0.8953 -0.4938  0.8560
   6423SM  C14S 8248   5.217   4.360  13.312  0.0682 -0.9143  0.4995
   6423SM  H14S 8249   5.192   4.252  13.324 -1.7483 -0.5747  0.0915
   6423SM  H14T 8250   5.325   4.358  13.288  0.2691 -1.9195  1.4106
   6423SM  C15S 8251   5.157   4.432  13.189  0.2677 -0.1418 -0.1472
   6423SM  H15S 8252   5.050   4.455  13.207  0.2596 -1.0018  0.9744
   6423SM  H15T 8253   5.164   4.367  13.099  0.3795 -1.3546  0.7039
   6423SM  C16S 8254   5.232   4.559  13.155 -0.1474 -0.3774  0.4117
   6423SM  H16S 8255   5.341   4.542  13.143 -0.2231 -0.3482 -0.4112
   6423SM  H16T 8256   5.207   4.629  13.238 -0.1579 -2.4628  2.2439
   6423SM  C17S 8257   5.179   4.629  13.022  0.4464 -0.0844 -0.6307
   6423SM  H17S 8258   5.215   4.735  13.021  1.8496 -0.5385 -0.7519
   6423SM  H17T 8259   5.068   4.632  13.020  0.2546 -3.5478 -1.0699
   6423SM  C18S 8260   5.213   4.562  12.894 -0.1106 -0.5316 -0.3386
   6423SM  H18S 8261   5.222   4.452  12.905 -0.4339 -0.6824 -1.3912
   6423SM  H18T 8262   5.310   4.598  12.852  0.5901 -0.0004  1.6493
   6423SM  H18U 8263   5.137   4.591  12.818 -0.5892  4.6970  1.6794
   6423SM   C1F 8264   5.899   5.077  14.102 -0.7291  0.6912  0.3899
   6423SM    OF 8265   6.024   5.070  14.112  0.3031 -0.0922 -0.1371
   6423SM   C2F 8266   5.838   5.172  14.003  0.0322 -0.4406 -0.7628
   6423SM   H2F 8267   5.759   5.228  14.058  0.5699  0.2224 -0.6539
   6423SM   H2G 8268   5.784   5.113  13.927  0.0707 -1.4997  0.0071
   6423SM   C3F 8269   5.944   5.260  13.928 -0.0115 -0.8735 -0.4887
   6423SM   H3F 8270   6.016   5.199  13.870 -0.8668 -0.8214 -1.6286
   6423SM   H3G 8271   6.007   5.307  14.007 -1.8427  0.1321  0.4456
   6423SM   C4F 8272   5.872   5.364  13.839 -0.3821 -0.3063 -0.2607
   6423SM   H4F 8273   5.966   5.397  13.790  0.9509 -1.5661  1.3429
   6423SM   H4G 8274   5.835   5.443  13.908  1.4704  1.1805 -0.8645
   6423SM   C5F 8275   5.770   5.307  13.742  0.8905 -0.3900  1.4365
   6423SM   H5F 8276   5.693   5.254  13.802  0.2084 -1.1221 -0.0242
   6423SM   H5G 8277   5.816   5.233  13.673 -0.4194 -0.6364  0.7924
   6423SM   C6F 8278   5.695   5.418  13.663 -0.1085  0.1482  0.1542
   6423SM   H6F 8279   5.772   5.476  13.608  0.9772 -2.0470 -0.7318
   6423SM   H6G 8280   5.638   5.482  13.734  0.5291 -1.4177  2.1807
   6423SM   C7F 8281   5.591   5.352  13.568 -0.0356  0.2090  0.1363
   6423SM   H7F 8282   5.494   5.407  13.560 -0.7486 -1.0704 -0.2611
   6423SM   H7G 8283   5.563   5.254  13.611  1.3316 -0.0883  0.3852
   6423SM   C8F 8284   5.634   5.341  13.421 -0.3290  0.4142 -0.3561
   6423SM   H8F 8285   5.548   5.299  13.364 -2.6146 -0.1423  3.1508
   6423SM   H8G 8286   5.727   5.282  13.435  0.0986  1.5485  2.0896
   6423SM   C9F 8287   5.674   5.472  13.357 -0.2544  0.3482  0.3826
   6423SM   H9F 8288   5.770   5.507  13.400 -0.4458  1.0517  0.2584
   6423SM   H9G 8289   5.592   5.547  13.372 -0.5244  1.0722 -3.6758
   6423SM  C10F 8290   5.692   5.467  13.205 -0.2451 -0.5447  1.1351
   6423SM  H10F 8291   5.590   5.453  13.163 -0.2772 -0.6949  1.2652
   6423SM  H10G 8292   5.753   5.378  13.178  0.9100  0.5404 -0.0333
   6423SM  C11F 8293   5.763   5.596  13.149  0.5720 -0.5411  0.0502
   6423SM  H11F 8294   5.704   5.680  13.190 -0.0583 -1.0470  0.1931
   6423SM  H11G 8295   5.747   5.601  13.040  0.9822 -0.6812 -0.0214
   6423SM  C12F 8296   5.913   5.610  13.181  0.3123  0.1254 -0.6216
   6423SM  H12F 8297   5.966   5.520  13.145 -2.6336 -2.2348  0.4380
   6423SM  H12G 8298   5.933   5.613  13.291  0.3559 -1.2417 -0.5760
   6423SM  C13F 8299   5.977   5.737  13.112  0.2485  0.0344 -0.1946
   6423SM  H13F 8300   5.908   5.818  13.144  0.3070  0.2828 -0.6916
   6423SM  H13G 8301   5.989   5.722  13.003 -0.7068  0.3387 -0.3507
   6423SM  C14F 8302   6.117   5.776  13.163  0.9589 -0.0000 -0.3185
   6423SM  H14F 8303   6.184   5.693  13.132 -1.3339 -2.0248 -0.2081
   6423SM  H14G 8304   6.104   5.792  13.272 -3.3352  1.7240 -0.8762
   6423SM  C15F 8305   6.170   5.906  13.109 -0.2957 -0.0186  0.2033
   6423SM  H15F 8306   6.257   5.927  13.174  0.3182 -1.3038 -0.1623
   6423SM  H15G 8307   6.095   5.986  13.128  0.7606  1.2444 -0.7986
   6423SM  C16F 8308   6.216   5.892  12.961 -0.4693  0.3395  0.4232
   6423SM  H16F 8309   6.134   5.936  12.900  0.6752  1.7707 -0.1542
   6423SM  H16G 8310   6.233   5.785  12.939  0.9579  0.8447 -1.1193
   6423SM  C17F 8311   6.338   5.981  12.938 -0.6528  0.1888  0.1847
   6423SM  H17F 8312   6.396   5.981  13.033  0.4385 -0.5897 -0.4652
   6423SM  H17G 8313   6.317   6.089  12.922  0.8781  0.4131 -0.4554
   6423SM  C18F 8314   6.450   5.935  12.831  0.0610  0.5190 -0.3088
   6423SM  H18F 8315   6.532   6.003  12.798 -0.7575  3.1191  2.5241
   6423SM  H18G 8316   6.397   5.908  12.737  2.0544 -2.3158 -0.7239
   6423SM  C19F 8317   6.521   5.797  12.860 -0.0598  0.0780 -0.0316
   6423SM  H19F 8318   6.440   5.722  12.874  2.0078 -1.9229  1.9646
   6423SM  H19G 8319   6.581   5.819  12.951  0.1903 -0.2624 -0.1131
   6423SM  C20F 8320   6.610   5.744  12.749 -0.0860 -1.0229 -0.7288
   6423SM  H20F 8321   6.670   5.833  12.722 -0.8806  0.1214  1.0373
   6423SM  H20G 8322   6.549   5.726  12.658  0.2325  3.2697 -1.9918
   6423SM  C21F 8323   6.697   5.636  12.808 -1.3326  0.7271 -0.0197
   6423SM  H21F 8324   6.634   5.558  12.856 -0.2711 -0.2824 -0.2303
   6423SM  H21G 8325   6.760   5.668  12.894  0.1823 -0.2375 -0.7368
   6423SM  C22F 8326   6.799   5.577  12.709 -0.3878 -0.0862 -0.0060
   6423SM  H22F 8327   6.745   5.533  12.622 -1.1025 -0.4992  0.6396
   6423SM  H22G 8328   6.856   5.497  12.763  0.6094  0.8216  0.3212
   6423SM  C23F 8329   6.901   5.681  12.659  0.4639 -0.1353  0.0509
   6423SM  H23F 8330   6.854   5.769  12.610 -1.2148  0.6083  2.7981
   6423SM  H23G 8331   6.976   5.640  12.587  0.5245  0.5347 -0.2746
   6423SM  H23H 8332   6.952   5.731  12.744  0.2210 -2.2765  1.5190
   6523SM     N 8333   5.406   7.095  14.273  0.3830  0.9063  0.1795
   6523SM   C15 8334   5.340   7.227  14.252 -0.2306 -0.5875 -0.3855
   6523SM  H15A 8335   5.266   7.246  14.328  2.2266  1.1579  1.7734
   6523SM  H15B 8336   5.300   7.230  14.152  0.5764  2.1698 -0.6975
   6523SM  H15C 8337   5.402   7.311  14.282 -2.0964  0.3579  1.0255
   6523SM   C14 8338   5.521   7.076  14.175 -0.3936 -0.8145 -0.6834
   6523SM  H14A 8339   5.591   7.157  14.166 -1.2019  0.0820  0.7293
   6523SM  H14B 8340   5.476   7.053  14.079  2.8878 -4.8769 -1.5291
   6523SM  H14C 8341   5.582   6.989  14.195 -1.2008 -1.5547 -1.3164
   6523SM   C13 8342   5.465   7.091  14.413  0.5887  0.1795  0.9244
   6523SM  H13A 8343   5.537   7.169  14.432 -1.2829  2.6263 -1.2509
   6523SM  H13B 8344   5.508   6.993  14.431 -1.3589 -1.0390 -0.6258
   6523SM  H13C 8345   5.381   7.109  14.479 -0.6212 -0.0016 -0.5118
   6523SM   C12 8346   5.297   6.989  14.252  0.1753  0.1672  1.0243
   6523SM  H12A 8347   5.225   7.003  14.331 -1.7099 -2.5200 -0.0797
   6523SM  H12B 8348   5.349   6.894  14.254  0.3379  0.2591  1.1641
   6523SM   C11 8349   5.204   6.988  14.125 -0.4300  0.3034  0.5358
   6523SM  H11A 8350   5.151   7.085  14.139  0.8074  1.2459 -0.9442
   6523SM  H11B 8351   5.129   6.906  14.132 -1.5185  1.1859 -0.2285
   6523SM     P 8352   5.333   6.846  13.949  0.6154 -0.1551 -0.2826
   6523SM   O13 8353   5.480   6.849  13.977 -0.2574  0.2123  0.1629
   6523SM   O14 8354   5.249   6.738  14.018 -0.3686 -0.5778  0.2844
   6523SM   O11 8355   5.296   6.841  13.795  0.0619  0.3150 -0.0904
   6523SM   O12 8356   5.276   6.983  14.003  0.1773  0.0753  0.2078
   6523SM   C1S 8357   5.253   6.956  13.722 -0.4217 -0.2894 -1.3445
   6523SM   H1S 8358   5.334   7.028  13.699  0.1758 -0.3435  0.4948
   6523SM   H1T 8359   5.180   7.020  13.776  0.0049 -1.6660  1.0216
   6523SM    NF 8360   5.162   7.042  13.503 -0.1764 -0.1379 -0.5815
   6523SM   HNF 8361   5.070   7.081  13.513 -0.5194 -0.6680 -1.5353
   6523SM   C2S 8362   5.185   6.919  13.583  0.2733 -0.4238  0.7987
   6523SM   H2S 8363   5.256   6.867  13.516  0.2884  0.5099  0.0627
   6523SM   C3S 8364   5.053   6.836  13.598 -0.0426 -0.9693  0.2342
   6523SM   H3S 8365   4.987   6.892  13.666 -0.0070 -0.8670  0.1847
   6523SM    O3 8366   5.072   6.713  13.665  0.4601  0.0442 -0.4924
   6523SM   HO3 8367   5.148   6.738  13.719 -0.3746  0.4452  0.5192
   6523SM   C4S 8368   4.974   6.811  13.473  0.7933  0.9640 -0.3732
   6523SM   H4S 8369   4.893   6.882  13.456 -1.4767 -1.0986  1.1758
   6523SM   C5S 8370   4.993   6.714  13.379 -0.4516  0.5047 -0.6989
   6523SM   H5S 8371   5.073   6.639  13.391  0.2877  0.9821 -2.3530
   6523SM   C6S 8372   4.918   6.714  13.249 -0.3401 -0.1523 -0.4076
   6523SM   H6S 8373   4.837   6.640  13.263 -2.5443  2.2529  0.4651
   6523SM   H6T 8374   4.986   6.682  13.167  1.3146  2.2761 -0.1101
   6523SM   C7S 8375   4.852   6.847  13.201 -0.3707 -0.4745 -0.3701
   6523SM   H7S 8376   4.917   6.937  13.209 -1.3536  0.3761 -1.4651
   6523SM   H7T 8377   4.771   6.869  13.273  0.0349  2.2024 -0.6018
   6523SM   C8S 8378   4.787   6.846  13.060  0.1943  0.0667  0.0672
   6523SM   H8S 8379   4.706   6.771  13.047 -0.3758  0.7903 -0.7064
   6523SM   H8T 8380   4.861   6.812  12.985  1.2226  0.0112  1.0921
   6523SM   C9S 8381   4.717   6.984  13.030 -0.1505  0.2599  0.1356
   6523SM   H9S 8382   4.799   7.058  13.034  0.7097 -0.5711 -1.3696
   6523SM   H9T 8383   4.640   7.012  13.105  2.9327  0.4918  3.4796
   6523SM  C10S 8384   4.648   6.983  12.888 -1.0943 -0.1210 -0.5407
   6523SM  H10S 8385   4.559   6.916  12.885 -0.2313 -1.2839 -0.4290
   6523SM  H10T 8386   4.721   6.946  12.813 -0.0109 -0.3347  0.5855
   6523SM  C11S 8387   4.615   7.128  12.835 -0.0855 -0.2826 -0.7245
   6523SM  H11S 8388   4.707   7.190  12.833 -0.6688  0.7299  1.3755
   6523SM  H11T 8389   4.547   7.170  12.912  0.9133 -0.8116  0.4791
   6523SM  C12S 8390   4.541   7.141  12.696  0.1987 -0.0285  0.0387
   6523SM  H12S 8391   4.498   7.240  12.672 -0.5531 -0.5447 -0.8357
   6523SM  H12T 8392   4.458   7.068  12.688 -0.4767  0.3920  2.5317
   6523SM  C13S 8393   4.646   7.126  12.580  0.1079  0.3159  0.1380
   6523SM  H13S 8394   4.698   7.028  12.576 -1.3213 -0.5670  1.7115
   6523SM  H13T 8395   4.722   7.204  12.601  1.6290 -1.6781  2.5589
   6523SM  C14S 8396   4.590   7.145  12.434 -0.0882 -0.2287  0.3224
   6523SM  H14S 8397   4.520   7.231  12.428  1.8674  1.4679  0.8894
   6523SM  H14T 8398   4.536   7.053  12.403  0.7416  0.1632 -2.5911
   6523SM  C15S 8399   4.708   7.168  12.346  0.1208 -0.0617  0.8691
   6523SM  H15S 8400   4.778   7.088  12.379 -0.5883 -0.9526  0.2924
   6523SM  H15T 8401   4.752   7.267  12.367  1.4174 -0.6580  1.0411
   6523SM  C16S 8402   4.679   7.150  12.197  0.6272 -0.4445  0.2389
   6523SM  H16S 8403   4.592   7.213  12.169 -0.2230 -2.3194 -1.6757
   6523SM  H16T 8404   4.653   7.043  12.181  3.5373 -1.0645 -0.9535
   6523SM  C17S 8405   4.795   7.179  12.097  0.0403 -0.2522 -0.0312
   6523SM  H17S 8406   4.876   7.107  12.121 -1.7079 -1.8811  1.3408
   6523SM  H17T 8407   4.820   7.287  12.108 -0.7079 -0.0188 -0.5588
   6523SM  C18S 8408   4.767   7.142  11.949  0.0647 -0.0804 -0.0307
   6523SM  H18S 8409   4.728   7.038  11.939 -1.7553  0.6395 -0.8526
   6523SM  H18T 8410   4.856   7.148  11.883  1.4696 -0.1089  1.7833
   6523SM  H18U 8411   4.686   7.208  11.912  1.2045  0.8917 -0.8478
   6523SM   C1F 8412   5.262   7.114  13.444 -0.1973  0.0896  0.2314
   6523SM    OF 8413   5.378   7.075  13.427  0.6265  0.3629 -0.0806
   6523SM   C2F 8414   5.230   7.253  13.418  0.0354 -0.2588  0.4625
   6523SM   H2F 8415   5.314   7.308  13.465  0.4626 -3.0896  3.3891
   6523SM   H2G 8416   5.130   7.279  13.458  0.2481  0.0283  0.8089
   6523SM   C3F 8417   5.256   7.269  13.273  0.6956 -0.7786  0.5100
   6523SM   H3F 8418   5.364   7.267  13.247  1.1193  2.8350  1.4098
   6523SM   H3G 8419   5.222   7.373  13.256 -0.9915 -1.2232  1.0205
   6523SM   C4F 8420   5.179   7.178  13.174  0.5135 -0.5094  0.8006
   6523SM   H4F 8421   5.082   7.145  13.217 -0.0569 -0.4727 -0.4288
   6523SM   H4G 8422   5.233   7.081  13.170 -1.8568 -1.9170  0.8783
   6523SM   C5F 8423   5.153   7.256  13.042 -0.4591 -0.0744  0.0503
   6523SM   H5F 8424   5.240   7.255  12.972 -0.1187 -0.2105  0.4682
   6523SM   H5G 8425   5.113   7.356  13.069  1.4979  0.4297  1.2889
   6523SM   C6F 8426   5.042   7.184  12.957  0.0672  0.5387 -1.1339
   6523SM   H6F 8427   4.943   7.233  12.974 -0.7174 -0.2364 -3.2017
   6523SM   H6G 8428   5.030   7.084  13.003 -1.1837  1.1143 -0.1127
   6523SM   C7F 8429   5.076   7.170  12.807 -0.2006  0.6840  0.3346
   6523SM   H7F 8430   5.185   7.156  12.792  0.1880  2.7148  0.8880
   6523SM   H7G 8431   5.064   7.269  12.758  2.0057  0.6765 -0.3301
   6523SM   C8F 8432   5.000   7.065  12.725  0.1678  0.3983 -0.1068
   6523SM   H8F 8433   4.891   7.069  12.747 -0.0377 -2.3735 -0.2730
   6523SM   H8G 8434   5.022   6.963  12.764 -0.8399  0.6920  1.3319
   6523SM   C9F 8435   5.012   7.067  12.575  0.1107  0.3064  0.5376
   6523SM   H9F 8436   4.965   7.161  12.539  2.2717  0.7604 -1.3313
   6523SM   H9G 8437   4.953   6.985  12.529  0.0517  1.4329 -1.5311
   6523SM  C10F 8438   5.153   7.063  12.525 -0.2644  1.0593  0.3200
   6523SM  H10F 8439   5.221   7.126  12.587  1.8825 -1.9461  1.2287
   6523SM  H10G 8440   5.155   7.084  12.416 -0.9644 -0.3506  0.0143
   6523SM  C11F 8441   5.207   6.913  12.534  0.1210 -0.3498 -0.0923
   6523SM  H11F 8442   5.142   6.848  12.471  0.1686 -1.5655  1.0788
   6523SM  H11G 8443   5.204   6.893  12.643 -0.4008  1.8858  0.3656
   6523SM  C12F 8444   5.354   6.892  12.476  0.9675 -0.3610 -0.4686
   6523SM  H12F 8445   5.420   6.956  12.537 -1.8368  0.5728  1.8176
   6523SM  H12G 8446   5.355   6.921  12.369 -1.4400 -1.4112 -0.8453
   6523SM  C13F 8447   5.409   6.750  12.493  0.1289 -0.4615  0.0863
   6523SM  H13F 8448   5.346   6.668  12.452 -0.5079  0.3029 -0.5100
   6523SM  H13G 8449   5.418   6.743  12.603  2.9486  1.5733  0.0943
   6523SM  C14F 8450   5.557   6.732  12.448  0.0955 -0.0196  0.4676
   6523SM  H14F 8451   5.627   6.811  12.483  1.7164 -0.9309 -0.5976
   6523SM  H14G 8452   5.560   6.717  12.338  1.3660 -1.9395  0.7259
   6523SM  C15F 8453   5.618   6.608  12.504  0.0227 -1.0615  0.0554
   6523SM  H15F 8454   5.558   6.518  12.476 -1.4106  0.2336 -1.2553
   6523SM  H15G 8455   5.619   6.611  12.615 -1.1672  0.6724  0.0561
   6523SM  C16F 8456   5.766   6.586  12.448 -0.1185 -0.4430 -0.6319
   6523SM  H16F 8457   5.824   6.680  12.462 -0.9124 -0.1797  1.0061
   6523SM  H16G 8458   5.765   6.579  12.337  0.4066  1.6565 -0.8199
   6523SM  C17F 8459   5.853   6.466  12.506  0.1738 -0.5661 -0.1355
   6523SM  H17F 8460   5.874   6.484  12.613  0.2865 -2.0385  0.1085
   6523SM  H17G 8461   5.949   6.453  12.451  0.5262  0.1301  0.3106
   6523SM  C18F 8462   5.785   6.325  12.491 -0.1479  0.1840 -0.0158
   6523SM  H18F 8463   5.739   6.328  12.390  0.7310 -0.5180 -0.4472
   6523SM  H18G 8464   5.700   6.311  12.561  0.2196 -0.9047  0.2224
   6523SM  C19F 8465   5.884   6.208  12.484  0.6730  0.4175 -0.5501
   6523SM  H19F 8466   5.964   6.235  12.557 -1.2952 -0.2657  1.9912
   6523SM  H19G 8467   5.920   6.196  12.379 -2.1847 -1.2477 -1.4609
   6523SM  C20F 8468   5.815   6.075  12.519 -0.1446 -0.4849  0.3086
   6523SM  H20F 8469   5.707   6.073  12.493 -0.2840 -1.6261  0.9310
   6523SM  H20G 8470   5.826   6.052  12.627  0.4922 -1.3978  0.0655
   6523SM  C21F 8471   5.879   5.958  12.442 -0.0535  0.3070  0.2214
   6523SM  H21F 8472   5.989   5.973  12.449  0.0899 -1.0454  1.1968
   6523SM  H21G 8473   5.852   5.977  12.336  0.6700 -0.6163 -0.1485
   6523SM  C22F 8474   5.835   5.817  12.491  0.1810  0.3614  0.6574
   6523SM  H22F 8475   5.725   5.819  12.476  0.5226  1.0976 -2.4799
   6523SM  H22G 8476   5.854   5.809  12.600  0.1188  1.7449  0.7935
   6523SM  C23F 8477   5.900   5.703  12.415 -0.1729 -0.5972 -0.1706
   6523SM  H23F 8478   5.917   5.733  12.309  2.4015  0.8272  0.5475
   6523SM  H23G 8479   5.850   5.604  12.417  4.1744 -3.0522 -0.1777
   6523SM  H23H 8480   5.999   5.686  12.462 -1.3342 -2.6323  1.6744
   6623SM     N 8481   4.120   2.098  14.391  0.5935  0.5154  0.4934
   6623SM   C15 8482   4.097   2.244  14.417 -0.1915  0.1011  0.1359
   6623SM  H15A 8483   4.118   2.276  14.518  1.0371  0.8436 -0.3347
   6623SM  H15B 8484   3.998   2.281  14.394  0.5450  0.5091 -2.6913
   6623SM  H15C 8485   4.164   2.301  14.354  1.6010 -1.9930  0.0408
   6623SM   C14 8486   4.245   2.050  14.457 -1.0454 -0.0706  0.0395
   6623SM  H14A 8487   4.249   1.944  14.436  0.7441  0.0370 -0.3771
   6623SM  H14B 8488   4.247   2.066  14.564 -0.4373 -2.8466  0.5386
   6623SM  H14C 8489   4.335   2.092  14.413  1.2851 -2.6065  2.0260
   6623SM   C13 8490   4.007   2.028  14.462  0.1000 -0.3806  0.3122
   6623SM  H13A 8491   3.996   2.074  14.559  0.8131  1.6112 -0.5078
   6623SM  H13B 8492   4.029   1.924  14.483  0.2830 -0.8767 -2.0494
   6623SM  H13C 8493   3.914   2.040  14.408 -0.6522 -0.2883  1.5795
   6623SM   C12 8494   4.120   2.058  14.243 -0.5520  0.5378 -0.5133
   6623SM  H12A 8495   4.021   2.072  14.203 -0.7287  2.3338  0.4546
   6623SM  H12B 8496   4.158   1.957  14.243 -1.1773  0.2702  0.9265
   6623SM   C11 8497   4.223   2.125  14.152  0.6803 -0.0502  0.4322
   6623SM  H11A 8498   4.194   2.231  14.137  3.3635  0.9141  1.4381
   6623SM  H11B 8499   4.225   2.076  14.052 -0.3057 -0.9647  0.8407
   6623SM     P 8500   4.458   2.219  14.170 -0.0469  0.0565 -0.7795
   6623SM   O13 8501   4.398   2.351  14.221 -0.0389  0.6545  0.2492
   6623SM   O14 8502   4.580   2.181  14.253  0.1993 -0.5001  0.3194
   6623SM   O11 8503   4.503   2.236  14.022 -0.3246  0.1603  0.3921
   6623SM   O12 8504   4.352   2.110  14.191 -0.4533 -0.1671 -0.5454
   6623SM   C1S 8505   4.586   2.137  13.954 -0.0224 -0.0721 -0.3364
   6623SM   H1S 8506   4.546   2.035  13.967 -0.0960 -0.4480 -2.9747
   6623SM   H1T 8507   4.688   2.150  13.995 -0.6725  2.4587  0.7016
   6623SM    NF 8508   4.657   2.089  13.715 -0.0795  0.0858 -0.7668
   6623SM   HNF 8509   4.742   2.115  13.670  0.2157 -0.8119 -0.7573
   6623SM   C2S 8510   4.587   2.184  13.803  0.3760  0.2894 -0.1614
   6623SM   H2S 8511   4.485   2.192  13.759  0.7522  1.3700 -0.8827
   6623SM   C3S 8512   4.652   2.322  13.788  0.8141 -0.2600  0.2974
   6623SM   H3S 8513   4.754   2.306  13.827  0.7143 -2.1498 -0.1405
   6623SM    O3 8514   4.581   2.418  13.868 -0.1714  0.2010 -0.0053
   6623SM   HO3 8515   4.538   2.353  13.923 -1.8369 -1.5724 -3.1547
   6623SM   C4S 8516   4.658   2.379  13.645 -0.9349 -0.2414  0.5834
   6623SM   H4S 8517   4.561   2.412  13.605 -1.3211 -1.4978  0.4431
   6623SM   C5S 8518   4.778   2.424  13.596  0.0284  0.3107 -0.8068
   6623SM   H5S 8519   4.865   2.404  13.660 -0.8511 -1.9611 -0.2168
   6623SM   C6S 8520   4.798   2.490  13.465 -0.8955  0.0084 -0.4955
   6623SM   H6S 8521   4.868   2.441  13.394  0.8977 -0.5819  1.5930
   6623SM   H6T 8522   4.839   2.592  13.479 -0.9407  0.0362 -0.5645
   6623SM   C7S 8523   4.673   2.508  13.373  0.9582  0.3429  0.4858
   6623SM   H7S 8524   4.606   2.578  13.428  1.5729  0.8659  0.5855
   6623SM   H7T 8525   4.616   2.414  13.360 -2.0703  2.3173 -2.2676
   6623SM   C8S 8526   4.710   2.575  13.235 -0.0682 -0.4526 -0.2269
   6623SM   H8S 8527   4.785   2.504  13.194  1.6153  0.9835  0.2683
   6623SM   H8T 8528   4.763   2.670  13.258 -0.7872 -0.4647  1.6879
   6623SM   C9S 8529   4.597   2.604  13.141 -0.3055  0.2014  0.2943
   6623SM   H9S 8530   4.630   2.663  13.054 -3.7912  1.3654 -0.3598
   6623SM   H9T 8531   4.520   2.664  13.194  1.1934 -0.1438  3.0838
   6623SM  C10S 8532   4.531   2.471  13.086  0.6989 -0.6079 -0.1600
   6623SM  H10S 8533   4.481   2.414  13.167  2.2381  0.3274  1.5014
   6623SM  H10T 8534   4.606   2.407  13.036  0.6177  0.6439 -2.0097
   6623SM  C11S 8535   4.430   2.516  12.984  0.3825 -0.2450 -0.8953
   6623SM  H11S 8536   4.483   2.553  12.894  2.5950 -1.3833 -0.1326
   6623SM  H11T 8537   4.370   2.599  13.028 -0.0192 -1.7419  1.6002
   6623SM  C12S 8538   4.340   2.404  12.937  0.6398  0.3272 -0.2775
   6623SM  H12S 8539   4.301   2.350  13.026 -0.2061  1.7215  0.2355
   6623SM  H12T 8540   4.395   2.340  12.865  2.8938  0.3810  1.3202
   6623SM  C13S 8541   4.223   2.460  12.856 -0.3698  0.0665 -0.9104
   6623SM  H13S 8542   4.266   2.510  12.766 -1.3606  2.7181 -0.0050
   6623SM  H13T 8543   4.174   2.535  12.922  0.9775 -1.1132  1.5570
   6623SM  C14S 8544   4.120   2.356  12.819 -0.7102 -0.3843  0.2566
   6623SM  H14S 8545   4.103   2.287  12.904 -0.7105  0.5732  1.0470
   6623SM  H14T 8546   4.159   2.297  12.733 -1.5918  0.5161 -0.7954
   6623SM  C15S 8547   3.981   2.412  12.793  0.3667  0.8368  0.3292
   6623SM  H15S 8548   3.924   2.454  12.878  0.1123  0.9804  0.0890
   6623SM  H15T 8549   3.927   2.317  12.767  0.2448  0.9695  0.0893
   6623SM  C16S 8550   3.973   2.502  12.669  0.2767  0.3507  0.5244
   6623SM  H16S 8551   4.035   2.458  12.588  0.1646 -1.1309  1.2061
   6623SM  H16T 8552   4.024   2.599  12.690 -0.3399  0.9628 -0.6768
   6623SM  C17S 8553   3.827   2.519  12.617 -0.4344 -0.0515 -0.9255
   6623SM  H17S 8554   3.756   2.582  12.675  1.4001  1.4678 -0.2389
   6623SM  H17T 8555   3.788   2.416  12.632  0.2253 -0.0483  1.1506
   6623SM  C18S 8556   3.814   2.566  12.471 -1.0496 -0.0644  0.2712
   6623SM  H18S 8557   3.714   2.534  12.436  0.0641 -2.1312 -1.2965
   6623SM  H18T 8558   3.900   2.528  12.411 -1.0889  1.9321 -1.1045
   6623SM  H18U 8559   3.826   2.676  12.466 -0.4175 -0.1987 -2.6176
   6623SM   C1F 8560   4.621   1.961  13.713  0.1389  0.1990  0.4365
   6623SM    OF 8561   4.517   1.922  13.761  0.4969 -0.0010  0.1068
   6623SM   C2F 8562   4.719   1.870  13.645  0.7171  1.0292 -0.2405
   6623SM   H2F 8563   4.802   1.867  13.718  0.8699  3.2169 -0.2442
   6623SM   H2G 8564   4.753   1.917  13.550  1.6899 -0.2259 -0.5372
   6623SM   C3F 8565   4.672   1.724  13.639  0.4381 -0.1285  0.3020
   6623SM   H3F 8566   4.572   1.730  13.592  0.3539  1.3207  0.6058
   6623SM   H3G 8567   4.653   1.687  13.742 -0.5349  0.7923  0.4702
   6623SM   C4F 8568   4.773   1.630  13.568 -0.3459 -0.7550 -0.1018
   6623SM   H4F 8569   4.737   1.528  13.591  1.6907 -1.3167  0.8090
   6623SM   H4G 8570   4.874   1.651  13.611 -0.5179 -0.6737  0.2648
   6623SM   C5F 8571   4.799   1.651  13.410 -0.0808  0.3799  0.6210
   6623SM   H5F 8572   4.889   1.591  13.383 -0.1046  0.2480  0.8271
   6623SM   H5G 8573   4.822   1.757  13.388  0.4513  0.1306 -0.0552
   6623SM   C6F 8574   4.679   1.600  13.326 -0.4266  0.0755  0.7615
   6623SM   H6F 8575   4.591   1.647  13.373 -0.7467  0.4409 -0.1796
   6623SM   H6G 8576   4.669   1.489  13.327 -0.2279  0.0007 -1.2210
   6623SM   C7F 8577   4.693   1.638  13.186  0.0857  0.0912  0.2044
   6623SM   H7F 8578   4.781   1.582  13.148 -0.0411 -0.9316  1.3520
   6623SM   H7G 8579   4.706   1.745  13.160  0.4567  0.0211  0.0996
   6623SM   C8F 8580   4.570   1.596  13.106  0.3672  1.3882 -0.1006
   6623SM   H8F 8581   4.474   1.644  13.137 -0.1430 -0.3677  1.1220
   6623SM   H8G 8582   4.554   1.487  13.120  0.7971  1.4829  1.1813
   6623SM   C9F 8583   4.573   1.624  12.950 -0.0119 -0.0148 -0.6135
   6623SM   H9F 8584   4.666   1.575  12.915  0.8291  0.6117  0.6709
   6623SM   H9G 8585   4.579   1.734  12.933 -1.0058  0.0564 -0.5677
   6623SM  C10F 8586   4.466   1.559  12.864  0.4702 -0.6286 -0.0755
   6623SM  H10F 8587   4.379   1.537  12.929  1.1141 -3.7178 -0.1057
   6623SM  H10G 8588   4.495   1.457  12.830 -1.8053 -1.0648 -0.8926
   6623SM  C11F 8589   4.439   1.647  12.739 -0.0727 -0.0542 -0.0451
   6623SM  H11F 8590   4.371   1.727  12.776  0.1470 -0.7719  1.9721
   6623SM  H11G 8591   4.385   1.581  12.668 -0.7232  0.9109 -0.4735
   6623SM  C12F 8592   4.557   1.697  12.653  0.5146 -0.5160  0.5295
   6623SM  H12F 8593   4.609   1.772  12.716  0.1130 -1.2486  1.7870
   6623SM  H12G 8594   4.499   1.744  12.571  0.8965 -0.8329  0.0716
   6623SM  C13F 8595   4.645   1.587  12.589  0.9252  0.1085  0.4475
   6623SM  H13F 8596   4.601   1.572  12.488 -1.9088  1.8291  1.3283
   6623SM  H13G 8597   4.635   1.496  12.652 -0.9941 -0.0267  0.0006
   6623SM  C14F 8598   4.789   1.622  12.574  0.5011 -0.7939  0.7085
   6623SM  H14F 8599   4.850   1.530  12.565 -0.7699 -1.5313 -0.6994
   6623SM  H14G 8600   4.822   1.672  12.668 -2.4591  2.7548  0.1264
   6623SM  C15F 8601   4.815   1.714  12.450 -0.4944 -0.0912 -0.1446
   6623SM  H15F 8602   4.891   1.787  12.484  0.7366 -2.0717  1.6377
   6623SM  H15G 8603   4.729   1.777  12.421 -0.5033 -0.7605 -1.6501
   6623SM  C16F 8604   4.854   1.629  12.322  0.1571  0.7400  0.1833
   6623SM  H16F 8605   4.778   1.551  12.302  0.8518 -0.2514  1.2817
   6623SM  H16G 8606   4.950   1.580  12.350 -1.0969 -0.1906  3.1569
   6623SM  C17F 8607   4.889   1.719  12.205  0.3763  0.1646 -0.3088
   6623SM  H17F 8608   4.995   1.748  12.215  0.7267 -1.6193  1.6854
   6623SM  H17G 8609   4.810   1.796  12.223  0.6549  0.5796 -0.8342
   6623SM  C18F 8610   4.855   1.655  12.066 -0.0359 -0.0980 -0.3804
   6623SM  H18F 8611   4.919   1.571  12.031  0.3899  0.7548 -1.7190
   6623SM  H18G 8612   4.873   1.732  11.987  2.0048  1.8712  1.8331
   6623SM  C19F 8613   4.708   1.612  12.064  0.5452  0.3766  0.6680
   6623SM  H19F 8614   4.655   1.700  12.105  1.2436  1.0705  0.1186
   6623SM  H19G 8615   4.696   1.520  12.126  0.3603  0.8284  1.3091
   6623SM  C20F 8616   4.665   1.570  11.920 -0.6946 -0.2247 -0.6272
   6623SM  H20F 8617   4.725   1.478  11.902 -0.2250 -0.2515  0.8843
   6623SM  H20G 8618   4.696   1.652  11.851 -1.1218  0.0500 -0.4993
   6623SM  C21F 8619   4.519   1.547  11.896  0.3385  0.4049  0.0469
   6623SM  H21F 8620   4.459   1.630  11.940  0.1258  0.1421  0.2593
   6623SM  H21G 8621   4.486   1.454  11.949 -1.2505  2.3421  2.7277
   6623SM  C22F 8622   4.485   1.536  11.746  0.3564  0.2524  0.3715
   6623SM  H22F 8623   4.525   1.438  11.714 -0.3244 -0.5756  1.9559
   6623SM  H22G 8624   4.527   1.622  11.689 -1.1141  0.6337 -0.1801
   6623SM  C23F 8625   4.338   1.536  11.711  0.3188  0.0693  0.1883
   6623SM  H23F 8626   4.335   1.507  11.603  1.9436 -0.3566  0.2192
   6623SM  H23G 8627   4.284   1.632  11.724 -2.4567 -1.2423 -0.8640
   6623SM  H23H 8628   4.290   1.462  11.778 -2.3656  1.6032  0.0805
   6723SM     N 8629   1.695   6.647  14.289  0.0949 -0.2354 -0.2789
   6723SM   C15 8630   1.776   6.603  14.412  0.5992 -0.1644  0.1475
   6723SM  H15A 8631   1.881   6.590  14.395 -0.0319 -1.4522 -3.6553
   6723SM  H15B 8632   1.728   6.508  14.433 -1.4221  0.8080  0.1375
   6723SM  H15C 8633   1.760   6.668  14.497  1.7387 -0.5763  0.6947
   6723SM   C14 8634   1.683   6.541  14.188  0.5771  0.6697  0.2282
   6723SM  H14A 8635   1.776   6.525  14.136 -1.4708 -0.8081 -3.3262
   6723SM  H14B 8636   1.602   6.570  14.123  0.2010  1.6519  1.0968
   6723SM  H14C 8637   1.653   6.451  14.239 -1.8493  0.8012 -0.8472
   6723SM   C13 8638   1.560   6.665  14.335  0.4526 -0.9249  0.4523
   6723SM  H13A 8639   1.533   6.567  14.372  0.4674 -1.1987 -0.2584
   6723SM  H13B 8640   1.493   6.690  14.254 -0.9101 -1.0563  1.4983
   6723SM  H13C 8641   1.542   6.740  14.411 -0.2435 -0.4935 -0.1346
   6723SM   C12 8642   1.738   6.781  14.227 -0.2920  0.3597  0.3294
   6723SM  H12A 8643   1.745   6.853  14.307  0.0732  0.5596  0.1217
   6723SM  H12B 8644   1.666   6.815  14.154  0.7861  0.4392 -0.7287
   6723SM   C11 8645   1.875   6.783  14.159 -0.2109 -0.1780 -0.0206
   6723SM  H11A 8646   1.866   6.713  14.074 -2.2476 -0.1548  0.1435
   6723SM  H11B 8647   1.945   6.747  14.237  0.9409  1.6458 -0.1454
   6723SM     P 8648   2.035   6.990  14.100  0.2284 -0.3356  0.2166
   6723SM   O13 8649   2.026   7.111  14.009 -0.3718 -0.1203 -0.5291
   6723SM   O14 8650   2.097   7.017  14.228 -0.1792 -0.0942 -0.2914
   6723SM   O11 8651   2.131   6.886  14.036 -0.5294 -0.2050 -0.9562
   6723SM   O12 8652   1.894   6.922  14.117 -0.1026 -0.6609 -0.1409
   6723SM   C1S 8653   2.107   6.845  13.901 -0.5424  0.1215 -0.1090
   6723SM   H1S 8654   2.131   6.927  13.830 -1.7143  0.1419 -0.4949
   6723SM   H1T 8655   1.999   6.825  13.885 -0.8520 -0.7119  2.5237
   6723SM    NF 8656   2.163   6.693  13.726 -0.2090  0.3315 -0.6629
   6723SM   HNF 8657   2.088   6.629  13.711 -1.2164  0.8658  1.6791
   6723SM   C2S 8658   2.194   6.716  13.865  0.0709 -0.6103  0.2695
   6723SM   H2S 8659   2.302   6.741  13.872  0.0234  1.0424 -2.7716
   6723SM   C3S 8660   2.159   6.604  13.961  0.0678  0.1974  0.3795
   6723SM   H3S 8661   2.048   6.595  13.958  0.0204  0.8185  0.0348
   6723SM    O3 8662   2.194   6.616  14.100 -0.3669 -0.1521  0.1016
   6723SM   HO3 8663   2.227   6.705  14.113 -1.0354  0.1085  0.0311
   6723SM   C4S 8664   2.223   6.474  13.906 -0.2878  0.4083 -0.7851
   6723SM   H4S 8665   2.331   6.488  13.891  0.2427 -0.4196  1.8654
   6723SM   C5S 8666   2.160   6.347  13.902 -0.5651 -0.2424 -0.6159
   6723SM   H5S 8667   2.053   6.336  13.926 -1.4536  0.3504 -3.7532
   6723SM   C6S 8668   2.228   6.217  13.849  0.1277 -0.3474  0.0322
   6723SM   H6S 8669   2.144   6.159  13.803 -2.0689  0.5512  2.5939
   6723SM   H6T 8670   2.277   6.162  13.933  1.0203 -0.8542 -0.8085
   6723SM   C7S 8671   2.337   6.247  13.745  0.3218 -0.1257  0.7650
   6723SM   H7S 8672   2.399   6.156  13.728  0.7694  0.1356  0.9947
   6723SM   H7T 8673   2.410   6.319  13.788 -2.1439  2.3483  1.1164
   6723SM   C8S 8674   2.280   6.282  13.604  0.1300 -0.3297 -0.2339
   6723SM   H8S 8675   2.221   6.373  13.626  1.5879  0.8058 -0.8669
   6723SM   H8T 8676   2.218   6.199  13.564  1.7752 -1.7320 -0.0389
   6723SM   C9S 8677   2.394   6.327  13.510 -0.2620 -0.2703  0.4642
   6723SM   H9S 8678   2.495   6.317  13.556  1.0303  1.4032 -1.7910
   6723SM   H9T 8679   2.373   6.434  13.489 -1.5133 -0.3906  1.0161
   6723SM  C10S 8680   2.379   6.233  13.389 -0.4614 -0.2190  0.1010
   6723SM  H10S 8681   2.275   6.224  13.350 -0.1651  3.7619 -2.1492
   6723SM  H10T 8682   2.394   6.124  13.405 -2.0728 -0.5601 -0.5263
   6723SM  C11S 8683   2.466   6.268  13.265  0.0248 -0.2446 -0.0499
   6723SM  H11S 8684   2.437   6.203  13.180  0.5977  0.9474 -1.1772
   6723SM  H11T 8685   2.568   6.246  13.304  1.3169  1.2920 -2.3095
   6723SM  C12S 8686   2.474   6.415  13.224  0.3332  0.7147 -0.2318
   6723SM  H12S 8687   2.537   6.460  13.304  0.6537 -0.7643  0.3867
   6723SM  H12T 8688   2.370   6.452  13.232  0.6785  2.3431 -2.3654
   6723SM  C13S 8689   2.530   6.441  13.084  0.5243 -0.0462 -0.3929
   6723SM  H13S 8690   2.465   6.406  13.002 -1.6548  4.5486 -0.9825
   6723SM  H13T 8691   2.636   6.410  13.073  1.3976  2.2567  0.7617
   6723SM  C14S 8692   2.538   6.593  13.060  0.3515 -0.4066  0.1201
   6723SM  H14S 8693   2.642   6.626  13.079  0.6543 -1.6019  0.6683
   6723SM  H14T 8694   2.469   6.638  13.134  0.5074  0.2362 -0.1236
   6723SM  C15S 8695   2.494   6.631  12.911  0.2138 -0.0485  0.4972
   6723SM  H15S 8696   2.411   6.560  12.888  1.4191 -1.7000  1.1007
   6723SM  H15T 8697   2.571   6.621  12.831  1.1273  1.5056  1.1449
   6723SM  C16S 8698   2.430   6.767  12.887 -0.0190  0.4202 -0.4778
   6723SM  H16S 8699   2.346   6.780  12.959 -0.0475 -3.7363  0.4457
   6723SM  H16T 8700   2.392   6.776  12.783  0.4042  0.6303 -0.6154
   6723SM  C17S 8701   2.522   6.885  12.913 -0.8884 -0.2980 -0.5757
   6723SM  H17S 8702   2.593   6.869  12.997 -0.3577 -1.0267 -1.1436
   6723SM  H17T 8703   2.461   6.970  12.951  0.1255  0.4985 -0.6850
   6723SM  C18S 8704   2.598   6.927  12.788 -0.6863  0.3405 -0.3288
   6723SM  H18S 8705   2.529   6.927  12.700  1.9610  0.6034 -2.5590
   6723SM  H18T 8706   2.681   6.859  12.759  0.0516  0.3107  1.7227
   6723SM  H18U 8707   2.642   7.028  12.800 -3.0097  1.3950 -0.1990
   6723SM   C1F 8708   2.207   6.775  13.632 -0.2750 -0.3571  0.2640
   6723SM    OF 8709   2.295   6.857  13.653  0.1900 -0.0080  0.0615
   6723SM   C2F 8710   2.132   6.764  13.497  0.1759 -0.7062 -0.4090
   6723SM   H2F 8711   2.042   6.700  13.510  0.7515 -1.0540  2.7782
   6723SM   H2G 8712   2.206   6.739  13.419  0.2045 -0.2641 -0.5270
   6723SM   C3F 8713   2.096   6.913  13.465 -0.2917 -0.7871 -0.0774
   6723SM   H3F 8714   2.187   6.969  13.435  0.8857 -3.1342 -1.1734
   6723SM   H3G 8715   2.037   6.963  13.545  0.7478 -0.1247  0.2853
   6723SM   C4F 8716   2.025   6.919  13.329 -0.7424 -0.2773  0.0726
   6723SM   H4F 8717   1.921   6.884  13.351 -0.7570  1.2043  2.7756
   6723SM   H4G 8718   2.070   6.846  13.258  2.3218  0.8578  0.6879
   6723SM   C5F 8719   2.027   7.045  13.257  0.7134 -0.8961 -0.2507
   6723SM   H5F 8720   2.029   7.126  13.333  0.8596  0.8238 -2.0063
   6723SM   H5G 8721   1.943   7.061  13.187  0.4279 -0.4818  0.1848
   6723SM   C6F 8722   2.149   7.054  13.166 -0.1852 -0.1897  0.1453
   6723SM   H6F 8723   2.163   6.966  13.100 -0.4391 -0.0544 -0.0906
   6723SM   H6G 8724   2.243   7.039  13.223 -0.3825 -0.2702  0.4546
   6723SM   C7F 8725   2.156   7.181  13.084  0.2425 -0.5403  0.7562
   6723SM   H7F 8726   2.174   7.263  13.157  2.0171 -0.0363 -0.1819
   6723SM   H7G 8727   2.061   7.194  13.029  1.0096  0.4406 -0.3985
   6723SM   C8F 8728   2.265   7.179  12.980 -0.1235 -0.2527 -0.0353
   6723SM   H8F 8729   2.234   7.107  12.902  0.7959 -0.3490 -0.3318
   6723SM   H8G 8730   2.361   7.152  13.030 -0.6115 -0.3572  0.8700
   6723SM   C9F 8731   2.297   7.318  12.918  0.3051  0.5842  0.3000
   6723SM   H9F 8732   2.328   7.385  13.000  0.2741 -0.0325  0.8216
   6723SM   H9G 8733   2.198   7.338  12.872 -0.3332 -0.1229  1.3172
   6723SM  C10F 8734   2.402   7.309  12.805 -0.6325  0.7700  0.5096
   6723SM  H10F 8735   2.375   7.369  12.715 -1.4375 -0.3338  0.0055
   6723SM  H10G 8736   2.410   7.201  12.781  2.9301  0.7029  1.3558
   6723SM  C11F 8737   2.550   7.344  12.855  0.6899  0.2266 -0.0766
   6723SM  H11F 8738   2.628   7.317  12.780  2.4447  0.5661  1.5552
   6723SM  H11G 8739   2.568   7.293  12.952 -1.7695  1.2393  0.9981
   6723SM  C12F 8740   2.563   7.492  12.872  0.2909  0.0476  0.1226
   6723SM  H12F 8741   2.480   7.527  12.937 -0.5992  1.9990 -1.9214
   6723SM  H12G 8742   2.547   7.541  12.773  0.6852  4.0558  1.8195
   6723SM  C13F 8743   2.698   7.525  12.934 -0.2977  0.5715 -0.5758
   6723SM  H13F 8744   2.775   7.474  12.872  0.6008  0.5359  0.5490
   6723SM  H13G 8745   2.693   7.479  13.035 -0.1756 -0.8582 -1.1999
   6723SM  C14F 8746   2.725   7.671  12.952 -0.1699  0.0975 -0.2097
   6723SM  H14F 8747   2.750   7.720  12.856 -2.9930  0.0648 -1.0459
   6723SM  H14G 8748   2.814   7.682  13.018 -0.2742  0.7727 -0.1750
   6723SM  C15F 8749   2.605   7.745  13.010  0.3552 -0.2521 -0.1872
   6723SM  H15F 8750   2.565   7.691  13.099  0.5606  0.7303  0.5248
   6723SM  H15G 8751   2.520   7.764  12.942  1.0521  1.2147 -0.6923
   6723SM  C16F 8752   2.638   7.888  13.049 -0.1461  0.1093  0.3982
   6723SM  H16F 8753   2.741   7.869  13.089  0.6444  0.0848 -1.5300
   6723SM  H16G 8754   2.571   7.917  13.132 -0.1747 -0.1099  0.4524
   6723SM  C17F 8755   2.657   7.997  12.936 -0.5729 -0.0799 -0.1748
   6723SM  H17F 8756   2.557   8.011  12.888 -1.5509 -0.4412  1.6732
   6723SM  H17G 8757   2.721   7.962  12.852 -2.7114  0.0584 -1.9718
   6723SM  C18F 8758   2.714   8.132  12.984  0.0890  0.1656  0.0526
   6723SM  H18F 8759   2.728   8.201  12.898  0.0593 -1.9421 -1.7140
   6723SM  H18G 8760   2.815   8.117  13.027 -0.6974 -0.7418  1.7211
   6723SM  C19F 8761   2.635   8.207  13.087 -0.2524  0.1593  0.3110
   6723SM  H19F 8762   2.618   8.140  13.174  0.5147  1.0389  1.1675
   6723SM  H19G 8763   2.537   8.240  13.047  0.0012  0.1452 -0.3304
   6723SM  C20F 8764   2.708   8.332  13.144 -0.0217 -0.2762  1.0654
   6723SM  H20F 8765   2.711   8.407  13.062 -0.7068  0.1281  1.4003
   6723SM  H20G 8766   2.814   8.304  13.163  0.9143  1.7252 -0.7081
   6723SM  C21F 8767   2.634   8.400  13.256 -0.3386 -0.3209 -0.9717
   6723SM  H21F 8768   2.702   8.456  13.325 -2.2363  0.9591 -0.0413
   6723SM  H21G 8769   2.600   8.314  13.317  0.9973  0.6472  1.2709
   6723SM  C22F 8770   2.514   8.485  13.221 -1.2346  0.7713 -0.2169
   6723SM  H22F 8771   2.474   8.516  13.319  0.1841 -0.0686  0.6602
   6723SM  H22G 8772   2.437   8.421  13.173 -1.2190  0.4251  0.2216
   6723SM  C23F 8773   2.557   8.600  13.138  0.0066 -0.1296 -0.1020
   6723SM  H23F 8774   2.483   8.681  13.155  1.9773  1.8740 -0.5972
   6723SM  H23G 8775   2.556   8.570  13.031  1.2720 -3.7155  0.7389
   6723SM  H23H 8776   2.662   8.625  13.163  0.1333 -1.5938  0.9763
   6823SM     N 8777   3.204   1.118  14.524  0.6674 -0.2102  0.2378
   6823SM   C15 8778   3.310   1.192  14.603 -0.0868 -0.4460 -0.2115
   6823SM  H15A 8779   3.270   1.260  14.676  2.5162 -2.5327  3.4844
   6823SM  H15B 8780   3.384   1.244  14.544 -0.4917  0.7226  0.2805
   6823SM  H15C 8781   3.371   1.122  14.658  1.9708  0.6116 -1.0584
   6823SM   C14 8782   3.116   1.053  14.629 -0.4200  0.2631  1.0013
   6823SM  H14A 8783   3.159   0.958  14.660  0.6186  0.2388 -0.3924
   6823SM  H14B 8784   3.021   1.017  14.592  0.0943 -2.5818  2.1372
   6823SM  H14C 8785   3.114   1.124  14.711  1.5063 -1.1434  2.3679
   6823SM   C13 8786   3.122   1.218  14.448 -0.0996 -0.1239 -0.0793
   6823SM  H13A 8787   3.115   1.309  14.506 -0.2150 -0.4294  0.3958
   6823SM  H13B 8788   3.031   1.181  14.403  1.3559 -0.1045 -3.3281
   6823SM  H13C 8789   3.171   1.246  14.356 -0.6721  1.4327  0.0620
   6823SM   C12 8790   3.271   1.015  14.425 -0.7358  0.0471  0.0050
   6823SM  H12A 8791   3.193   0.961  14.373  0.9869 -1.6658 -0.9408
   6823SM  H12B 8792   3.325   0.947  14.489  0.8120  2.0479  0.9069
   6823SM   C11 8793   3.374   1.071  14.323 -0.3478 -0.5067 -0.8147
   6823SM  H11A 8794   3.410   0.994  14.251 -1.3550 -1.5150 -0.2702
   6823SM  H11B 8795   3.464   1.096  14.384  0.2161 -1.7609 -1.1034
   6823SM     P 8796   3.423   1.316  14.251  0.2665 -0.3239 -0.3146
   6823SM   O13 8797   3.346   1.421  14.177 -0.4415  0.2809  0.0899
   6823SM   O14 8798   3.479   1.346  14.386  0.2622  0.2368  0.0265
   6823SM   O11 8799   3.537   1.263  14.155  0.1193  0.1843 -0.4270
   6823SM   O12 8800   3.331   1.189  14.255  0.1020  0.0313 -0.0217
   6823SM   C1S 8801   3.543   1.297  14.018  0.9800 -0.1435  0.5452
   6823SM   H1S 8802   3.562   1.405  14.003  1.2504 -0.5646 -2.7692
   6823SM   H1T 8803   3.452   1.278  13.958  1.4464  1.2867 -0.6616
   6823SM    NF 8804   3.694   1.307  13.823  0.2245 -0.3845 -0.0842
   6823SM   HNF 8805   3.675   1.256  13.740  0.7586 -0.7205 -0.0072
   6823SM   C2S 8806   3.672   1.238  13.951  0.4249  0.6127 -0.4824
   6823SM   H2S 8807   3.757   1.272  14.013 -1.1684 -1.1852  2.9894
   6823SM   C3S 8808   3.659   1.080  13.961  0.1474 -0.5147  0.7646
   6823SM   H3S 8809   3.558   1.055  13.923 -1.8135  5.0144  1.3390
   6823SM    O3 8810   3.681   1.039  14.091  0.3099 -0.5648 -0.3870
   6823SM   HO3 8811   3.695   1.114  14.149  0.9975 -0.2002 -0.9954
   6823SM   C4S 8812   3.766   1.019  13.868  0.9608  0.0382  0.2151
   6823SM   H4S 8813   3.869   1.035  13.902  1.6490 -3.7973  0.3838
   6823SM   C5S 8814   3.743   0.958  13.752 -0.0520  0.1376  0.4730
   6823SM   H5S 8815   3.642   0.938  13.714  0.1248  0.9529 -0.4852
   6823SM   C6S 8816   3.866   0.925  13.675 -0.5322 -0.1241  0.1569
   6823SM   H6S 8817   3.884   0.817  13.656  1.3918  0.4529 -1.6970
   6823SM   H6T 8818   3.958   0.964  13.721 -0.0943  0.9462 -1.5280
   6823SM   C7S 8819   3.865   0.995  13.534  0.2873 -0.1231 -0.1463
   6823SM   H7S 8820   3.767   0.978  13.484 -0.0585  0.7720  0.2106
   6823SM   H7T 8821   3.937   0.944  13.467  0.2922  0.6446 -0.7358
   6823SM   C8S 8822   3.910   1.142  13.538  0.1946  0.6118 -0.0300
   6823SM   H8S 8823   4.013   1.146  13.578  0.8309 -0.2345 -1.5118
   6823SM   H8T 8824   3.849   1.199  13.612 -3.2219 -0.7702 -1.5808
   6823SM   C9S 8825   3.883   1.211  13.405  0.1734 -0.0486  0.4508
   6823SM   H9S 8826   3.921   1.142  13.326  1.3176  2.2932 -1.1864
   6823SM   H9T 8827   3.942   1.305  13.405 -1.5370  1.0920  1.7679
   6823SM  C10S 8828   3.734   1.243  13.373  0.4787 -0.1498  0.5842
   6823SM  H10S 8829   3.705   1.312  13.456  1.0092  4.7363 -2.8526
   6823SM  H10T 8830   3.681   1.146  13.375  1.2374 -0.7489 -2.6825
   6823SM  C11S 8831   3.694   1.308  13.241 -0.4834 -0.6964 -0.5312
   6823SM  H11S 8832   3.729   1.413  13.234  1.1229 -1.2729 -1.6577
   6823SM  H11T 8833   3.583   1.310  13.245 -0.4901 -0.0016 -1.0230
   6823SM  C12S 8834   3.730   1.223  13.117 -0.1113  0.6137 -0.5524
   6823SM  H12S 8835   3.686   1.121  13.116 -0.4009  0.7261 -1.7283
   6823SM  H12T 8836   3.840   1.208  13.121 -0.3053 -0.9755 -0.5667
   6823SM  C13S 8837   3.676   1.284  12.988 -0.3907 -0.3378  0.5166
   6823SM  H13S 8838   3.716   1.384  12.964  0.3431 -0.8901 -0.6160
   6823SM  H13T 8839   3.565   1.297  12.994 -0.3382  1.2673 -1.1553
   6823SM  C14S 8840   3.701   1.197  12.864  0.7753 -0.2044  0.1214
   6823SM  H14S 8841   3.671   1.091  12.879 -2.2011  0.2578 -1.8186
   6823SM  H14T 8842   3.811   1.198  12.845  0.6643 -3.2141 -1.3437
   6823SM  C15S 8843   3.614   1.227  12.740  0.0431  0.0471  0.5670
   6823SM  H15S 8844   3.635   1.331  12.706  1.8865 -0.3816  0.2843
   6823SM  H15T 8845   3.506   1.207  12.754 -0.1453  0.2966 -0.4648
   6823SM  C16S 8846   3.659   1.141  12.617 -0.5009 -0.2308  0.0001
   6823SM  H16S 8847   3.649   1.031  12.628 -0.5832 -0.5265 -2.5877
   6823SM  H16T 8848   3.764   1.160  12.586 -0.9835  2.1814 -0.3572
   6823SM  C17S 8849   3.580   1.181  12.486  0.1629 -0.2365  0.2681
   6823SM  H17S 8850   3.577   1.291  12.473  1.6317 -0.3152 -0.9767
   6823SM  H17T 8851   3.476   1.142  12.477  0.1439 -0.4648  1.3236
   6823SM  C18S 8852   3.657   1.124  12.363  0.0536 -0.0091  0.0332
   6823SM  H18S 8853   3.651   1.014  12.378 -2.6799  0.2420  1.5137
   6823SM  H18T 8854   3.761   1.162  12.368 -0.3577  1.2991 -0.8336
   6823SM  H18U 8855   3.614   1.151  12.264  1.2954  2.5096  0.1176
   6823SM   C1F 8856   3.751   1.431  13.814  0.1055  0.1084 -0.1673
   6823SM    OF 8857   3.797   1.488  13.916  0.1093  0.2036  0.1886
   6823SM   C2F 8858   3.750   1.501  13.683  0.1436  0.2592  0.3158
   6823SM   H2F 8859   3.651   1.550  13.671 -0.7569 -0.6651  3.0619
   6823SM   H2G 8860   3.762   1.428  13.601  0.7746 -0.5069  1.0699
   6823SM   C3F 8861   3.864   1.599  13.663 -0.2409 -0.2753  0.1356
   6823SM   H3F 8862   3.881   1.665  13.750 -1.1264  0.8431 -0.5105
   6823SM   H3G 8863   3.846   1.665  13.576 -2.7867 -2.0701 -0.8371
   6823SM   C4F 8864   3.994   1.524  13.639 -0.0293 -0.5046 -0.0319
   6823SM   H4F 8865   3.973   1.437  13.573 -0.7624 -1.7232  1.7211
   6823SM   H4G 8866   4.031   1.478  13.733 -0.2425  1.8121  1.2421
   6823SM   C5F 8867   4.101   1.616  13.582  0.1937  0.4783  0.2818
   6823SM   H5F 8868   4.124   1.681  13.669  1.5261 -1.4829  1.4827
   6823SM   H5G 8869   4.073   1.669  13.488  2.2458 -1.5001 -1.5610
   6823SM   C6F 8870   4.231   1.538  13.561  0.7250 -0.1861  0.0139
   6823SM   H6F 8871   4.233   1.462  13.641 -1.2568 -0.1184  0.1636
   6823SM   H6G 8872   4.323   1.600  13.575  0.7857 -0.1033 -0.6716
   6823SM   C7F 8873   4.230   1.468  13.424 -0.3099 -0.1544  0.4320
   6823SM   H7F 8874   4.226   1.546  13.345 -0.9486  0.2840  0.8868
   6823SM   H7G 8875   4.132   1.416  13.423  0.2030 -1.1694  1.1435
   6823SM   C8F 8876   4.344   1.366  13.402  0.4929 -0.3002 -0.1635
   6823SM   H8F 8877   4.383   1.315  13.492  2.0682  0.9900 -0.0730
   6823SM   H8G 8878   4.435   1.419  13.365  1.0779 -2.1621 -1.5447
   6823SM   C9F 8879   4.319   1.255  13.306  0.4312 -0.7561  0.1306
   6823SM   H9F 8880   4.299   1.291  13.203 -1.2283  2.8587  1.5042
   6823SM   H9G 8881   4.229   1.199  13.338  0.5276 -2.2653 -2.0659
   6823SM  C10F 8882   4.438   1.166  13.285  0.4302  0.1583  0.5710
   6823SM  H10F 8883   4.493   1.121  13.371 -0.6287 -2.2141  0.0722
   6823SM  H10G 8884   4.520   1.216  13.228  1.2671 -1.5275  0.2269
   6823SM  C11F 8885   4.398   1.058  13.177 -0.5462  0.0967 -0.2293
   6823SM  H11F 8886   4.478   1.059  13.100 -0.2272  0.5524  0.1017
   6823SM  H11G 8887   4.307   1.088  13.123 -1.3726 -0.5179  0.7713
   6823SM  C12F 8888   4.360   0.925  13.248 -0.1203  0.3607  0.0679
   6823SM  H12F 8889   4.304   0.935  13.343  1.7088 -1.3307  1.4083
   6823SM  H12G 8890   4.452   0.870  13.276  0.6751  1.2224 -0.7618
   6823SM  C13F 8891   4.272   0.833  13.161  0.0091 -0.2873 -0.7624
   6823SM  H13F 8892   4.308   0.830  13.056  1.1247  0.7387 -0.4270
   6823SM  H13G 8893   4.169   0.873  13.170 -0.1292 -0.6941 -0.4449
   6823SM  C14F 8894   4.274   0.687  13.212 -0.2577 -0.0255  0.0539
   6823SM  H14F 8895   4.197   0.675  13.291 -1.4501  0.6421 -0.9678
   6823SM  H14G 8896   4.373   0.663  13.257 -0.3590  2.9978  2.2288
   6823SM  C15F 8897   4.243   0.591  13.096  0.1835  0.9278  0.3622
   6823SM  H15F 8898   4.267   0.487  13.128 -0.7870  1.4290  2.9708
   6823SM  H15G 8899   4.318   0.610  13.016 -0.4284  1.0732 -0.1856
   6823SM  C16F 8900   4.105   0.617  13.023 -0.4546  0.4856 -0.3210
   6823SM  H16F 8901   4.110   0.692  12.942 -0.0233  0.0810 -0.6748
   6823SM  H16G 8902   4.028   0.651  13.096  1.9612 -0.5943  2.9843
   6823SM  C17F 8903   4.054   0.499  12.940  0.4440  0.4149  0.0751
   6823SM  H17F 8904   4.066   0.412  13.008  3.4024  2.1313  2.0079
   6823SM  H17G 8905   4.123   0.481  12.854 -1.6327  0.4962 -1.7139
   6823SM  C18F 8906   3.908   0.507  12.887 -0.4684 -0.3239  0.3375
   6823SM  H18F 8907   3.894   0.602  12.831 -0.1902  0.5596  1.7346
   6823SM  H18G 8908   3.840   0.499  12.974  0.4385  2.1329  1.3634
   6823SM  C19F 8909   3.854   0.382  12.814 -0.2491 -0.2697  0.0528
   6823SM  H19F 8910   3.744   0.372  12.829 -0.5550 -1.9528 -2.6849
   6823SM  H19G 8911   3.909   0.301  12.867  2.0468  1.3379  0.2847
   6823SM  C20F 8912   3.884   0.382  12.668 -0.1526 -0.1774  0.0741
   6823SM  H20F 8913   3.993   0.370  12.650  0.4612  2.2457  1.6884
   6823SM  H20G 8914   3.858   0.479  12.619 -2.2500 -1.2107 -1.0314
   6823SM  C21F 8915   3.806   0.277  12.597  0.1548 -0.2756  0.6956
   6823SM  H21F 8916   3.696   0.280  12.613 -0.1852 -0.3877 -1.3510
   6823SM  H21G 8917   3.845   0.176  12.622  0.9971 -0.1360 -0.0226
   6823SM  C22F 8918   3.831   0.282  12.443 -0.7476  0.2193 -0.3190
   6823SM  H22F 8919   3.940   0.278  12.423 -0.6837 -3.0215  0.2019
   6823SM  H22G 8920   3.798   0.379  12.400  0.4909  0.4166 -0.8654
   6823SM  C23F 8921   3.761   0.170  12.368  0.6269  0.2717  0.3688
   6823SM  H23F 8922   3.650   0.171  12.368  0.5776 -1.3987 -0.1694
   6823SM  H23G 8923   3.779   0.065  12.402 -1.5068 -0.2854 -0.0371
   6823SM  H23H 8924   3.800   0.182  12.265  1.4280 -0.1114  0.6179
   6923SM     N 8925   6.233   2.082  14.493 -0.5529  0.0249 -0.0188
   6923SM   C15 8926   6.385   2.074  14.506  0.0639 -0.5242 -0.4480
   6923SM  H15A 8927   6.428   2.171  14.490  1.5312 -0.7132  1.8997
   6923SM  H15B 8928   6.430   2.002  14.439  2.2776 -0.4112  0.8230
   6923SM  H15C 8929   6.423   2.044  14.603  1.1513  2.0344 -0.0041
   6923SM   C14 8930   6.178   1.950  14.547 -0.7103 -0.3512  0.1327
   6923SM  H14A 8931   6.071   1.952  14.563 -0.5667  0.2201  1.0975
   6923SM  H14B 8932   6.219   1.924  14.643 -1.4218  0.8231  0.7698
   6923SM  H14C 8933   6.191   1.867  14.478  0.0770  0.5081 -0.7776
   6923SM   C13 8934   6.186   2.198  14.574  0.3397  0.0580 -0.9813
   6923SM  H13A 8935   6.225   2.295  14.548 -0.2453  0.1283 -1.6675
   6923SM  H13B 8936   6.201   2.186  14.680  1.3757  2.5980 -0.7765
   6923SM  H13C 8937   6.079   2.207  14.561  0.2244 -0.7948 -0.7271
   6923SM   C12 8938   6.182   2.106  14.352 -0.0952  0.4096  0.2794
   6923SM  H12A 8939   6.206   2.030  14.279 -0.8966  2.1184 -1.9004
   6923SM  H12B 8940   6.228   2.200  14.324  0.3844  0.0817 -0.0429
   6923SM   C11 8941   6.029   2.122  14.330  0.8780 -0.3196  0.3860
   6923SM  H11A 8942   5.975   2.038  14.379 -0.7424 -0.1957 -1.0840
   6923SM  H11B 8943   6.008   2.110  14.221  1.2345  1.2116  0.1313
   6923SM     P 8944   6.001   2.381  14.306  0.1130  0.2497  0.3292
   6923SM   O13 8945   5.943   2.499  14.374  0.0544  0.6228  0.1670
   6923SM   O14 8946   6.145   2.392  14.275  0.1816  0.5364  0.3095
   6923SM   O11 8947   5.934   2.343  14.172  0.9104 -0.3407  0.1220
   6923SM   O12 8948   5.974   2.244  14.381  0.1047 -0.1958  0.3856
   6923SM   C1S 8949   5.816   2.429  14.134  0.3970 -0.2145 -0.0767
   6923SM   H1S 8950   5.858   2.527  14.102  0.1454  0.0967  0.5314
   6923SM   H1T 8951   5.735   2.434  14.209 -0.5841  1.8703 -1.1929
   6923SM    NF 8952   5.644   2.472  13.942 -0.7170  0.6098 -0.8838
   6923SM   HNF 8953   5.547   2.450  13.951 -0.5233 -0.9196 -2.0366
   6923SM   C2S 8954   5.737   2.371  14.006  0.4919 -0.2450 -0.2649
   6923SM   H2S 8955   5.815   2.345  13.931 -0.1702  1.3487 -1.5943
   6923SM   C3S 8956   5.676   2.228  14.032 -0.0744 -0.1234  0.2526
   6923SM   H3S 8957   5.590   2.262  14.095  0.2457 -0.2620  0.7694
   6923SM    O3 8958   5.759   2.139  14.115 -0.0730  0.2447  0.5962
   6923SM   HO3 8959   5.836   2.195  14.133  1.3974 -1.4415 -0.1202
   6923SM   C4S 8960   5.634   2.172  13.897  0.6051 -0.1827 -0.5059
   6923SM   H4S 8961   5.531   2.197  13.871 -0.0086 -1.3544  0.6497
   6923SM   C5S 8962   5.706   2.100  13.812  0.0704 -0.1774  0.4330
   6923SM   H5S 8963   5.813   2.087  13.829  0.0611  0.3402  0.9181
   6923SM   C6S 8964   5.646   2.053  13.681 -0.7608 -0.7297  0.6506
   6923SM   H6S 8965   5.593   1.957  13.700 -2.7276  0.3607  0.8279
   6923SM   H6T 8966   5.735   2.026  13.620  0.2070 -0.3117  1.8282
   6923SM   C7S 8967   5.567   2.148  13.594  0.2244 -0.8884  0.5742
   6923SM   H7S 8968   5.628   2.237  13.567 -1.5785  0.5633  1.0868
   6923SM   H7T 8969   5.476   2.186  13.645 -2.1491 -2.2166 -2.3791
   6923SM   C8S 8970   5.521   2.078  13.471 -0.3652 -0.0597  0.7195
   6923SM   H8S 8971   5.438   2.009  13.496 -0.5732  0.7305  2.3594
   6923SM   H8T 8972   5.608   2.030  13.422  2.3559  3.2630  1.8689
   6923SM   C9S 8973   5.454   2.181  13.367 -0.3276 -0.4039 -0.4617
   6923SM   H9S 8974   5.498   2.283  13.364 -2.0555  0.4017 -0.2505
   6923SM   H9T 8975   5.348   2.203  13.395 -0.4334 -2.6591  1.1349
   6923SM  C10S 8976   5.429   2.121  13.226  0.2580 -0.4040  0.2075
   6923SM  H10S 8977   5.379   2.024  13.243  1.6775 -1.0958  0.5109
   6923SM  H10T 8978   5.528   2.108  13.178 -0.0815 -0.0051 -0.6257
   6923SM  C11S 8979   5.342   2.219  13.140  0.9585 -0.3333 -0.3653
   6923SM  H11S 8980   5.395   2.317  13.131  0.5953 -0.2184 -1.3228
   6923SM  H11T 8981   5.249   2.227  13.200  0.0138 -0.9715 -1.7010
   6923SM  C12S 8982   5.303   2.163  13.003  0.2045 -0.6819 -0.5599
   6923SM  H12S 8983   5.193   2.157  12.991  0.2839 -0.3213 -1.5467
   6923SM  H12T 8984   5.341   2.060  12.987  1.6987 -0.3594  0.7032
   6923SM  C13S 8985   5.363   2.248  12.895  0.6438  0.4741  0.1422
   6923SM  H13S 8986   5.468   2.270  12.923  1.5040 -2.5464 -0.3428
   6923SM  H13T 8987   5.311   2.347  12.893 -3.1209 -1.1782  3.3471
   6923SM  C14S 8988   5.359   2.172  12.763 -0.2136 -0.5126 -0.1072
   6923SM  H14S 8989   5.255   2.132  12.755 -0.8976  1.0853  0.4191
   6923SM  H14T 8990   5.422   2.080  12.768 -1.5458 -1.5471 -1.4488
   6923SM  C15S 8991   5.412   2.240  12.646 -0.0068 -0.1389  0.1862
   6923SM  H15S 8992   5.407   2.177  12.554 -1.9915 -2.3869  1.6936
   6923SM  H15T 8993   5.518   2.270  12.660  0.8507 -1.9238 -1.9019
   6923SM  C16S 8994   5.338   2.374  12.613 -0.0560  0.8081  0.2849
   6923SM  H16S 8995   5.393   2.408  12.523  1.0147 -1.2203  0.1221
   6923SM  H16T 8996   5.359   2.437  12.702  0.7552 -0.3461  0.9236
   6923SM  C17S 8997   5.187   2.362  12.596  0.7229  0.1459 -0.4623
   6923SM  H17S 8998   5.149   2.325  12.693  1.5368 -1.1366 -0.5961
   6923SM  H17T 8999   5.170   2.287  12.515  0.8366  2.2886 -2.6003
   6923SM  C18S 9000   5.133   2.503  12.569  0.5875 -0.1665  0.7649
   6923SM  H18S 9001   5.023   2.505  12.549  1.0297 -0.3329 -2.1019
   6923SM  H18T 9002   5.192   2.546  12.485  0.4422 -1.7862 -0.2102
   6923SM  H18U 9003   5.161   2.567  12.655  1.8743  1.7601 -0.9719
   6923SM   C1F 9004   5.690   2.573  13.867  0.7127  0.4167  0.0763
   6923SM    OF 9005   5.810   2.598  13.859 -0.6699 -0.3622  0.1702
   6923SM   C2F 9006   5.596   2.653  13.794  0.5355 -0.1082  0.4892
   6923SM   H2F 9007   5.648   2.732  13.735 -1.6578 -1.9249 -4.4179
   6923SM   H2G 9008   5.525   2.714  13.856 -0.8465 -0.6571 -0.5036
   6923SM   C3F 9009   5.518   2.567  13.699  0.9033  0.7791  0.0018
   6923SM   H3F 9010   5.468   2.487  13.759  0.7917  0.9891  0.1921
   6923SM   H3G 9011   5.580   2.501  13.635  0.0743 -0.9259  0.9066
   6923SM   C4F 9012   5.418   2.642  13.605  0.2065  0.1840 -0.1916
   6923SM   H4F 9013   5.472   2.733  13.569  0.8491 -0.2707 -0.4067
   6923SM   H4G 9014   5.329   2.677  13.661  0.7849  1.9430 -0.3066
   6923SM   C5F 9015   5.359   2.566  13.489  0.2699 -0.8754 -0.1708
   6923SM   H5F 9016   5.304   2.481  13.535 -0.6888 -0.8418 -1.2246
   6923SM   H5G 9017   5.445   2.524  13.432  1.2073 -2.0332  1.9658
   6923SM   C6F 9018   5.269   2.646  13.401 -0.3989 -0.5783  0.5048
   6923SM   H6F 9019   5.340   2.724  13.367  0.6051 -2.8432 -3.1542
   6923SM   H6G 9020   5.180   2.687  13.454  0.2945 -2.8655  3.8340
   6923SM   C7F 9021   5.219   2.551  13.292  0.6814 -0.1321  0.5636
   6923SM   H7F 9022   5.176   2.456  13.332  1.9483 -0.9320  0.0846
   6923SM   H7G 9023   5.305   2.524  13.226 -0.0946  0.7763 -0.8530
   6923SM   C8F 9024   5.097   2.609  13.209  0.7609 -0.2608 -0.0265
   6923SM   H8F 9025   5.124   2.704  13.158 -2.2039 -0.7670 -2.8547
   6923SM   H8G 9026   5.015   2.615  13.284  2.6978 -0.9631  2.3142
   6923SM   C9F 9027   5.059   2.529  13.091 -0.0128  0.7420 -0.2074
   6923SM   H9F 9028   4.989   2.453  13.131  0.9368  0.6041  1.2803
   6923SM   H9G 9029   5.141   2.475  13.040 -0.5282  0.8779 -1.1971
   6923SM  C10F 9030   4.981   2.614  12.989  0.6680 -0.3434  0.3514
   6923SM  H10F 9031   5.049   2.682  12.932  0.1904 -1.1248 -1.1898
   6923SM  H10G 9032   4.915   2.676  13.054  0.1391 -0.9940  0.4408
   6923SM  C11F 9033   4.905   2.534  12.889  0.2436  1.0359 -0.2825
   6923SM  H11F 9034   4.839   2.471  12.952  0.8228 -0.5047 -1.1385
   6923SM  H11G 9035   4.973   2.469  12.829  1.2308  0.2226  1.6284
   6923SM  C12F 9036   4.815   2.615  12.791 -0.9584  0.5244 -0.3319
   6923SM  H12F 9037   4.891   2.657  12.722  1.1356 -2.2924  0.1073
   6923SM  H12G 9038   4.763   2.702  12.838 -0.8815  1.5268 -2.0001
   6923SM  C13F 9039   4.715   2.541  12.701 -0.3040 -0.4950 -0.9317
   6923SM  H13F 9040   4.653   2.479  12.770 -1.4352  0.3930 -1.1212
   6923SM  H13G 9041   4.760   2.474  12.626  1.4545  1.4077 -1.6710
   6923SM  C14F 9042   4.628   2.628  12.612  0.0871  0.0973 -0.1782
   6923SM  H14F 9043   4.692   2.707  12.568  0.3327  0.7952  1.3638
   6923SM  H14G 9044   4.559   2.688  12.674 -0.0998 -0.9625  0.6683
   6923SM  C15F 9045   4.538   2.550  12.516 -0.9356 -0.0679  0.4215
   6923SM  H15F 9046   4.478   2.474  12.571 -0.6549 -0.0836  0.7068
   6923SM  H15G 9047   4.614   2.490  12.462 -1.2115 -1.9673  2.0305
   6923SM  C16F 9048   4.452   2.612  12.404 -0.1480  0.4936 -0.3800
   6923SM  H16F 9049   4.493   2.706  12.360  2.1387 -0.6775 -0.8867
   6923SM  H16G 9050   4.353   2.635  12.450  0.3258 -0.5661  1.2291
   6923SM  C17F 9051   4.437   2.505  12.291  0.7371  0.6177  0.8256
   6923SM  H17F 9052   4.374   2.426  12.338 -0.6132  1.0952 -0.1190
   6923SM  H17G 9053   4.531   2.450  12.271 -1.1357 -3.0981  1.3699
   6923SM  C18F 9054   4.362   2.544  12.164  0.2471 -0.7699 -0.0993
   6923SM  H18F 9055   4.387   2.644  12.122 -0.1914  0.9502  3.3593
   6923SM  H18G 9056   4.255   2.549  12.190  0.2463  0.1128 -0.2144
   6923SM  C19F 9057   4.386   2.441  12.057  0.1821  0.3635 -0.1625
   6923SM  H19F 9058   4.345   2.345  12.096  2.0012 -0.1582  0.5652
   6923SM  H19G 9059   4.495   2.421  12.060  0.4887  1.9543  0.0343
   6923SM  C20F 9060   4.337   2.483  11.914  1.1433  0.3495 -0.4680
   6923SM  H20F 9061   4.393   2.569  11.871  2.2693 -0.8921 -1.5970
   6923SM  H20G 9062   4.226   2.490  11.919  0.9162 -1.2332 -2.0236
   6923SM  C21F 9063   4.356   2.373  11.810 -0.1155 -0.4936  0.5044
   6923SM  H21F 9064   4.286   2.290  11.831 -0.0876 -1.0090 -1.3301
   6923SM  H21G 9065   4.462   2.339  11.809 -0.7276 -2.4928 -0.3035
   6923SM  C22F 9066   4.336   2.419  11.662  0.7640 -0.1304  0.1468
   6923SM  H22F 9067   4.264   2.504  11.667  0.1822 -0.6659  1.5003
   6923SM  H22G 9068   4.283   2.333  11.614 -1.7153  0.2915  1.9137
   6923SM  C23F 9069   4.458   2.475  11.590 -0.1705 -0.0217  0.4324
   6923SM  H23F 9070   4.430   2.522  11.493  0.5150  0.1508  0.3111
   6923SM  H23G 9071   4.541   2.405  11.569  1.7959  0.9670  4.0156
   6923SM  H23H 9072   4.504   2.560  11.646 -1.5773  0.8003  0.4136
   7023SM     N 9073   5.035   1.601  14.316  0.0320 -0.3750  0.3129
   7023SM   C15 9074   4.897   1.628  14.356  1.1007  0.0251  0.0690
   7023SM  H15A 9075   4.849   1.699  14.292 -0.6413 -0.6102  0.6221
   7023SM  H15B 9076   4.890   1.684  14.449  0.1614  2.3162 -1.3102
   7023SM  H15C 9077   4.839   1.537  14.349  1.5388 -0.2220 -0.3717
   7023SM   C14 9078   5.124   1.717  14.330 -0.4243 -0.2722  0.1548
   7023SM  H14A 9079   5.092   1.805  14.277 -0.9526 -0.4600  0.1561
   7023SM  H14B 9080   5.222   1.681  14.303  0.4116  1.1674  1.1592
   7023SM  H14C 9081   5.130   1.751  14.432 -2.7843 -0.8137  0.5251
   7023SM   C13 9082   5.096   1.493  14.393 -0.1667 -0.4394  0.3404
   7023SM  H13A 9083   5.179   1.465  14.330 -0.2553  0.0872 -0.0150
   7023SM  H13B 9084   5.037   1.403  14.400  0.8585 -1.1948 -0.4219
   7023SM  H13C 9085   5.120   1.525  14.493  0.5130  0.9567 -0.2394
   7023SM   C12 9086   5.028   1.552  14.170 -0.3109  0.2052 -0.6805
   7023SM  H12A 9087   4.980   1.623  14.104 -0.5840  0.7428  0.0928
   7023SM  H12B 9088   4.969   1.462  14.175  0.0307  0.0551  2.5880
   7023SM   C11 9089   5.154   1.513  14.100 -0.2380  0.0211 -0.1005
   7023SM  H11A 9090   5.220   1.602  14.106 -0.3149  0.0302  0.6839
   7023SM  H11B 9091   5.136   1.492  13.992 -1.0086 -2.5155  0.4501
   7023SM     P 9092   5.170   1.252  14.129 -0.0996 -0.5752 -0.0262
   7023SM   O13 9093   5.205   1.168  14.244 -0.4278 -0.4063 -0.3151
   7023SM   O14 9094   5.032   1.258  14.085  0.4645 -0.0500  0.1554
   7023SM   O11 9095   5.267   1.209  14.015 -0.2610  0.0089 -0.1005
   7023SM   O12 9096   5.222   1.399  14.158 -0.5340  0.4817  0.9134
   7023SM   C1S 9097   5.407   1.182  14.041  0.6683 -0.0202 -0.0742
   7023SM   H1S 9098   5.419   1.104  14.120  0.4325  0.5467  0.5281
   7023SM   H1T 9099   5.456   1.276  14.073 -0.0085  0.7637 -1.2738
   7023SM    NF 9100   5.615   1.092  13.943  0.3388 -0.5193 -0.0310
   7023SM   HNF 9101   5.694   1.135  13.900 -1.0088  0.6566 -1.4515
   7023SM   C2S 9102   5.485   1.146  13.914 -0.0297  0.4134  0.3049
   7023SM   H2S 9103   5.430   1.060  13.870  3.5532 -1.5520 -0.7297
   7023SM   C3S 9104   5.484   1.264  13.811 -0.8473 -0.3132 -0.9846
   7023SM   H3S 9105   5.540   1.348  13.857 -1.2048 -0.9317  0.6751
   7023SM    O3 9106   5.361   1.320  13.776 -0.2796  0.7294  0.2591
   7023SM   HO3 9107   5.302   1.287  13.845  1.5013 -1.4987  0.8732
   7023SM   C4S 9108   5.554   1.224  13.682  0.1413  0.4518 -0.7028
   7023SM   H4S 9109   5.659   1.257  13.687 -0.0448  1.1643 -1.2461
   7023SM   C5S 9110   5.502   1.154  13.574  0.0219 -0.1698  0.7511
   7023SM   H5S 9111   5.400   1.112  13.584 -0.7316  0.6907 -2.3137
   7023SM   C6S 9112   5.575   1.110  13.451 -0.0847 -0.8186 -0.3069
   7023SM   H6S 9113   5.528   1.137  13.354 -0.7376  1.3433  0.5615
   7023SM   H6T 9114   5.592   1.000  13.449 -2.5874 -1.2536 -0.8535
   7023SM   C7S 9115   5.731   1.153  13.432  0.6132  0.1291  0.3429
   7023SM   H7S 9116   5.784   1.161  13.529  2.5209  1.1687 -0.7302
   7023SM   H7T 9117   5.727   1.259  13.400 -3.8459 -0.9118 -3.7387
   7023SM   C8S 9118   5.809   1.071  13.333 -0.4331  0.2914  0.4693
   7023SM   H8S 9119   5.811   0.962  13.356  1.5588  0.7697  3.0694
   7023SM   H8T 9120   5.916   1.103  13.340 -0.0895 -0.2475 -1.6514
   7023SM   C9S 9121   5.750   1.100  13.191 -0.5479  0.2125  0.3983
   7023SM   H9S 9122   5.735   1.209  13.172  2.0050  0.3980 -1.0652
   7023SM   H9T 9123   5.661   1.037  13.173  1.0953 -1.9203 -0.7117
   7023SM  C10S 9124   5.851   1.051  13.075  1.0251  0.6330 -0.2005
   7023SM  H10S 9125   5.951   1.082  13.111  0.7238 -1.4808  2.9079
   7023SM  H10T 9126   5.823   1.112  12.986  1.4750  2.2550  0.7266
   7023SM  C11S 9127   5.835   0.905  13.035  0.7932  0.0417 -0.0072
   7023SM  H11S 9128   5.728   0.876  13.025  0.2298  1.9574  0.0477
   7023SM  H11T 9129   5.880   0.849  13.119  0.1266 -0.0518  0.2949
   7023SM  C12S 9130   5.914   0.864  12.911 -0.3453  0.3837  0.1548
   7023SM  H12S 9131   5.935   0.959  12.859 -0.3625  0.7362  0.7737
   7023SM  H12T 9132   5.854   0.806  12.838 -0.8288  0.3835  0.5407
   7023SM  C13S 9133   6.054   0.808  12.942  0.0500 -0.1612 -0.3178
   7023SM  H13S 9134   6.032   0.701  12.965  2.9051 -1.0047 -0.9929
   7023SM  H13T 9135   6.087   0.845  13.041 -0.9580  0.5576 -0.2369
   7023SM  C14S 9136   6.171   0.818  12.848 -0.0181 -0.3598  0.1850
   7023SM  H14S 9137   6.128   0.793  12.749 -0.0076 -0.0687  0.1051
   7023SM  H14T 9138   6.244   0.738  12.870 -0.0180 -0.4657 -0.1887
   7023SM  C15S 9139   6.249   0.949  12.828 -0.1342  0.7491  0.7921
   7023SM  H15S 9140   6.179   1.035  12.824  0.8422  1.5939  1.2700
   7023SM  H15T 9141   6.300   0.944  12.729  0.2428 -1.6834  1.0661
   7023SM  C16S 9142   6.347   0.977  12.949  0.7898 -0.3398  0.2156
   7023SM  H16S 9143   6.417   0.890  12.947  1.4430  0.1746  0.4583
   7023SM  H16T 9144   6.285   0.970  13.040 -2.3299  0.7425 -1.6652
   7023SM  C17S 9145   6.430   1.103  12.948  0.4708 -0.4075  0.2312
   7023SM  H17S 9146   6.511   1.094  13.023 -1.6530 -0.7629  2.6280
   7023SM  H17T 9147   6.362   1.183  12.985  0.1377  0.9397 -2.9514
   7023SM  C18S 9148   6.485   1.143  12.806 -0.0463  0.2440 -0.2677
   7023SM  H18S 9149   6.408   1.170  12.731  0.6387  0.5131 -0.8940
   7023SM  H18T 9150   6.559   1.068  12.769  0.6318  0.8326 -0.1361
   7023SM  H18U 9151   6.543   1.238  12.817 -1.0271  0.6424  1.8625
   7023SM   C1F 9152   5.639   0.982  14.004  0.1578  0.3262 -0.4540
   7023SM    OF 9153   5.543   0.918  14.049 -0.2460  0.1967  0.1684
   7023SM   C2F 9154   5.771   0.934  14.006  0.1771  0.3702  0.2581
   7023SM   H2F 9155   5.800   0.921  14.113  0.8311  2.5645  0.3939
   7023SM   H2G 9156   5.846   1.006  13.967  0.6488  0.2050  0.8332
   7023SM   C3F 9157   5.774   0.798  13.930  0.0435 -0.3630 -0.2170
   7023SM   H3F 9158   5.699   0.727  13.970 -0.1129  0.5410  1.1865
   7023SM   H3G 9159   5.876   0.755  13.932 -0.5837 -2.0394 -1.7561
   7023SM   C4F 9160   5.746   0.817  13.778 -0.3102 -0.2526  0.3775
   7023SM   H4F 9161   5.807   0.900  13.736  1.4811 -0.9554  1.4581
   7023SM   H4G 9162   5.642   0.854  13.767 -0.7883 -0.3136  3.6828
   7023SM   C5F 9163   5.750   0.694  13.687  0.6287  0.7617  0.5586
   7023SM   H5F 9164   5.657   0.636  13.704  1.3377 -0.2878  0.9689
   7023SM   H5G 9165   5.833   0.623  13.709  1.3037  1.6388  0.9055
   7023SM   C6F 9166   5.762   0.724  13.535 -0.1787  0.1000 -1.6782
   7023SM   H6F 9167   5.862   0.766  13.515 -0.7121  2.2913 -0.1883
   7023SM   H6G 9168   5.697   0.812  13.513  0.1165  1.3715  1.7955
   7023SM   C7F 9169   5.732   0.605  13.446  0.6275 -0.0377 -0.1871
   7023SM   H7F 9170   5.623   0.585  13.458  0.5937  1.0594  1.7878
   7023SM   H7G 9171   5.780   0.514  13.488 -2.3286 -1.1242  1.1621
   7023SM   C8F 9172   5.772   0.628  13.303  0.7682 -0.2939 -0.3416
   7023SM   H8F 9173   5.881   0.642  13.291  0.7850  0.0933  0.2240
   7023SM   H8G 9174   5.717   0.719  13.272  2.3040 -0.0316 -2.5289
   7023SM   C9F 9175   5.729   0.515  13.205 -0.5359  0.4174 -0.2071
   7023SM   H9F 9176   5.619   0.497  13.202 -0.5147  0.3222 -0.5092
   7023SM   H9G 9177   5.774   0.418  13.234 -0.7111  0.2883 -0.3611
   7023SM  C10F 9178   5.764   0.546  13.061  0.3859 -0.4914  0.0449
   7023SM  H10F 9179   5.873   0.539  13.044  0.4099  0.8142 -0.4602
   7023SM  H10G 9180   5.746   0.656  13.051  2.1041 -0.2934 -1.3325
   7023SM  C11F 9181   5.692   0.461  12.960  0.0518  0.4223  0.4016
   7023SM  H11F 9182   5.590   0.504  12.955 -0.1440 -0.2040 -1.5801
   7023SM  H11G 9183   5.688   0.353  12.986 -0.0537 -0.5323 -3.1196
   7023SM  C12F 9184   5.763   0.459  12.824  0.5676 -0.0729  0.3061
   7023SM  H12F 9185   5.867   0.426  12.843  0.4308 -0.1920  0.8371
   7023SM  H12G 9186   5.762   0.567  12.794  1.6467 -0.0361  0.3428
   7023SM  C13F 9187   5.690   0.388  12.707 -0.5697  0.1055 -0.6334
   7023SM  H13F 9188   5.586   0.427  12.698 -1.2387 -1.3557  0.2652
   7023SM  H13G 9189   5.687   0.278  12.727  1.3489  0.1650  0.2101
   7023SM  C14F 9190   5.760   0.408  12.576  0.1006 -0.2501 -0.2350
   7023SM  H14F 9191   5.781   0.517  12.562 -0.5063  0.4157  3.1896
   7023SM  H14G 9192   5.698   0.375  12.490 -0.4366  1.7674 -0.6760
   7023SM  C15F 9193   5.902   0.355  12.573  0.2733  0.1317 -0.0951
   7023SM  H15F 9194   5.898   0.292  12.665 -1.3588  0.5556  0.1608
   7023SM  H15G 9195   5.974   0.433  12.607  0.4229  0.4235 -1.0752
   7023SM  C16F 9196   5.948   0.282  12.446  0.8088  0.7307 -0.2116
   7023SM  H16F 9197   5.890   0.188  12.439  0.7071  0.7542  0.2612
   7023SM  H16G 9198   6.056   0.257  12.456  1.3247  2.3730 -1.1874
   7023SM  C17F 9199   5.935   0.353  12.311  0.4587 -0.5588 -0.2114
   7023SM  H17F 9200   5.833   0.389  12.285  1.3470  2.8555  0.5779
   7023SM  H17G 9201   5.959   0.267  12.244  0.0663 -0.8642  0.0346
   7023SM  C18F 9202   6.038   0.464  12.300 -0.8433 -0.1586  0.0263
   7023SM  H18F 9203   6.143   0.431  12.316  0.9574  3.9952 -1.7505
   7023SM  H18G 9204   6.009   0.526  12.387 -2.4929 -1.9534  0.8021
   7023SM  C19F 9205   6.033   0.536  12.168  0.2441 -0.6607  0.2970
   7023SM  H19F 9206   5.930   0.570  12.142  0.8902  1.0308 -0.1863
   7023SM  H19G 9207   6.063   0.470  12.084  0.3183  2.1011 -1.9871
   7023SM  C20F 9208   6.124   0.668  12.166  0.7458  0.2877  0.2465
   7023SM  H20F 9209   6.199   0.666  12.248 -0.9608  0.7152  1.8819
   7023SM  H20G 9210   6.052   0.751  12.175 -0.0140 -0.2671 -0.5707
   7023SM  C21F 9211   6.192   0.684  12.033 -0.5764  0.2160  0.9635
   7023SM  H21F 9212   6.126   0.707  11.947  1.3661  1.7928 -0.2172
   7023SM  H21G 9213   6.240   0.588  12.004 -0.1595  0.8081 -0.4096
   7023SM  C22F 9214   6.286   0.804  12.032 -0.7768  0.0984  0.1351
   7023SM  H22F 9215   6.369   0.779  12.102  0.7804  0.5160 -1.4974
   7023SM  H22G 9216   6.223   0.885  12.075 -2.6873 -1.7082  0.9012
   7023SM  C23F 9217   6.350   0.840  11.900 -0.3175 -0.3859  0.8105
   7023SM  H23F 9218   6.403   0.755  11.852  0.4409  0.0968  0.7758
   7023SM  H23G 9219   6.425   0.922  11.904 -1.0237  0.2490  1.0315
   7023SM  H23H 9220   6.273   0.869  11.825 -0.6445 -0.9365  0.9258
   7123SM     N 9221   4.680   7.694  14.206 -0.3506  0.6310  0.3819
   7123SM   C15 9222   4.601   7.603  14.291  0.2082  0.1843  0.1845
   7123SM  H15A 9223   4.502   7.617  14.250  1.2247 -1.2625 -3.0937
   7123SM  H15B 9224   4.604   7.633  14.394 -1.5013  2.8955 -0.4427
   7123SM  H15C 9225   4.634   7.503  14.266  0.1783  0.1885  0.1291
   7123SM   C14 9226   4.826   7.663  14.218  0.2327  0.1979  0.9574
   7123SM  H14A 9227   4.846   7.566  14.174 -1.7482 -0.1243  0.6534
   7123SM  H14B 9228   4.863   7.672  14.319  1.9798  1.3732  0.2560
   7123SM  H14C 9229   4.877   7.737  14.159 -0.2290 -0.8013 -0.7586
   7123SM   C13 9230   4.634   7.662  14.063  0.0527  0.3643 -0.4424
   7123SM  H13A 9231   4.527   7.675  14.051 -0.1173 -1.7666 -1.9233
   7123SM  H13B 9232   4.652   7.560  14.033 -0.3305  0.2103 -0.1614
   7123SM  H13C 9233   4.671   7.732  13.991 -0.0405  0.9473  0.0665
   7123SM   C12 9234   4.650   7.838  14.229  0.3786 -0.6761 -0.4833
   7123SM  H12A 9235   4.674   7.873  14.329 -2.4845 -0.7256  0.3056
   7123SM  H12B 9236   4.543   7.848  14.235  0.5435  0.6855  1.6038
   7123SM   C11 9237   4.707   7.935  14.126 -0.7958 -0.1806 -0.1797
   7123SM  H11A 9238   4.646   8.027  14.132 -0.9946 -0.1842 -1.7589
   7123SM  H11B 9239   4.701   7.899  14.021  0.0858 -0.2093 -0.2267
   7123SM     P 9240   4.881   8.056  14.273 -0.1472  0.2637  0.0636
   7123SM   O13 9241   4.775   8.062  14.372  0.2646 -0.0640  0.4921
   7123SM   O14 9242   5.011   8.000  14.317  0.2723 -0.7871 -0.7474
   7123SM   O11 9243   4.908   8.199  14.200  0.1906  0.2322 -0.0154
   7123SM   O12 9244   4.847   7.959  14.157  0.0472 -0.6725  0.4120
   7123SM   C1S 9245   4.999   8.225  14.089  0.3729 -0.4075 -0.0350
   7123SM   H1S 9246   5.026   8.126  14.048 -0.5045 -1.8657  2.6670
   7123SM   H1T 9247   5.086   8.285  14.123  0.9577 -0.8202 -0.7684
   7123SM    NF 9248   5.021   8.321  13.852  0.0292  0.4511  0.4284
   7123SM   HNF 9249   5.031   8.418  13.829  2.4053  0.3238  0.6500
   7123SM   C2S 9250   4.933   8.297  13.961 -0.5542 -0.2302 -0.2393
   7123SM   H2S 9251   4.854   8.233  13.917 -0.7497 -0.1596  0.0057
   7123SM   C3S 9252   4.842   8.424  13.995 -0.3486 -0.0545 -0.0633
   7123SM   H3S 9253   4.907   8.507  14.031  0.0492  0.2752 -1.4834
   7123SM    O3 9254   4.751   8.394  14.103  0.3177 -0.1460 -0.3952
   7123SM   HO3 9255   4.772   8.303  14.124  0.3165 -0.0758 -0.0888
   7123SM   C4S 9256   4.756   8.468  13.878  0.0209 -0.3394 -0.2562
   7123SM   H4S 9257   4.812   8.549  13.829  1.3857 -0.9877  0.1980
   7123SM   C5S 9258   4.646   8.403  13.819  0.2191 -0.1723 -0.4841
   7123SM   H5S 9259   4.614   8.309  13.867  0.3902 -0.6917 -1.3573
   7123SM   C6S 9260   4.596   8.436  13.685 -0.1089 -0.1659  0.1163
   7123SM   H6S 9261   4.492   8.472  13.700  0.5693  1.6567  0.6968
   7123SM   H6T 9262   4.594   8.354  13.610 -1.4494  1.2303 -1.4590
   7123SM   C7S 9263   4.656   8.559  13.613  0.0554  0.4592  0.2927
   7123SM   H7S 9264   4.636   8.643  13.683 -1.8657  0.0663  0.2613
   7123SM   H7T 9265   4.604   8.586  13.519  1.5922 -0.5088 -0.8779
   7123SM   C8S 9266   4.808   8.550  13.575 -0.2615 -0.5122 -0.0667
   7123SM   H8S 9267   4.855   8.484  13.651 -0.9611 -1.0093 -0.0551
   7123SM   H8T 9268   4.851   8.649  13.599  2.1372 -1.3957 -0.4660
   7123SM   C9S 9269   4.835   8.511  13.430 -0.5230 -0.0712 -0.2295
   7123SM   H9S 9270   4.758   8.549  13.359  1.1958 -1.4217 -2.9960
   7123SM   H9T 9271   4.833   8.400  13.424  0.1849 -0.1990  1.3671
   7123SM  C10S 9272   4.971   8.557  13.384 -0.0323  0.2467 -0.5249
   7123SM  H10S 9273   5.041   8.547  13.470  0.6692  2.0870 -0.8341
   7123SM  H10T 9274   4.971   8.666  13.360  1.3334  0.4433  0.2163
   7123SM  C11S 9275   5.034   8.496  13.259 -0.2644  0.3065  0.7695
   7123SM  H11S 9276   5.042   8.386  13.273 -2.0653  0.0390 -0.0005
   7123SM  H11T 9277   5.140   8.529  13.250 -0.7874  1.8180 -0.4321
   7123SM  C12S 9278   4.955   8.517  13.131  0.0597  0.3267  0.3631
   7123SM  H12S 9279   4.939   8.627  13.131  0.4459  0.3850  0.8686
   7123SM  H12T 9280   4.857   8.471  13.157  1.3396 -2.2224  0.9716
   7123SM  C13S 9281   5.019   8.465  13.005  0.6470 -0.0226 -0.2631
   7123SM  H13S 9282   5.050   8.359  13.019 -0.9026 -0.1435  3.0799
   7123SM  H13T 9283   5.113   8.524  12.995  0.1739  1.3947  2.7615
   7123SM  C14S 9284   4.946   8.466  12.874 -0.6046 -0.0651 -0.0444
   7123SM  H14S 9285   4.857   8.402  12.888 -1.1246  0.4815 -0.7635
   7123SM  H14T 9286   5.018   8.423  12.800  1.1181  1.7721  0.4673
   7123SM  C15S 9287   4.902   8.608  12.833 -0.8679  0.3546 -0.3269
   7123SM  H15S 9288   4.984   8.673  12.869 -0.8635  0.5814 -0.7354
   7123SM  H15T 9289   4.816   8.630  12.900 -0.5307 -2.4057  1.1680
   7123SM  C16S 9290   4.876   8.610  12.682 -0.0832 -0.2566 -0.5365
   7123SM  H16S 9291   4.807   8.527  12.655  0.5231 -0.5996 -1.0504
   7123SM  H16T 9292   4.975   8.599  12.632 -0.8702 -0.6050 -2.0955
   7123SM  C17S 9293   4.812   8.746  12.643  0.5356 -0.8065  0.5915
   7123SM  H17S 9294   4.865   8.832  12.690 -0.9651  0.7644 -0.4256
   7123SM  H17T 9295   4.707   8.743  12.678 -0.0531  0.5553 -0.8871
   7123SM  C18S 9296   4.824   8.775  12.497  0.5347 -0.0832  0.9781
   7123SM  H18S 9297   4.774   8.695  12.438 -0.4356 -0.8338  2.7331
   7123SM  H18T 9298   4.929   8.783  12.461 -0.1596  2.7179 -0.7739
   7123SM  H18U 9299   4.787   8.877  12.473 -0.8968 -1.3544 -3.0447
   7123SM   C1F 9300   5.076   8.223  13.781  0.1145 -0.9456  0.5514
   7123SM    OF 9301   5.050   8.109  13.810 -0.8094  0.2325  0.0645
   7123SM   C2F 9302   5.156   8.265  13.656  0.9377  0.5621 -0.0077
   7123SM   H2F 9303   5.250   8.314  13.691  1.1275 -0.1493  0.4906
   7123SM   H2G 9304   5.092   8.346  13.613  0.9162 -0.0372 -1.1551
   7123SM   C3F 9305   5.187   8.151  13.557 -0.2940 -0.1200  0.5396
   7123SM   H3F 9306   5.092   8.099  13.535 -0.1467 -1.7025  3.1402
   7123SM   H3G 9307   5.257   8.077  13.603  3.0577  0.8288 -2.5615
   7123SM   C4F 9308   5.251   8.209  13.430 -0.3766  0.2099 -0.3429
   7123SM   H4F 9309   5.342   8.266  13.457 -0.7349 -0.0940  1.7218
   7123SM   H4G 9310   5.180   8.277  13.377  0.7997  1.4711 -0.3457
   7123SM   C5F 9311   5.291   8.103  13.328  0.2776  0.4569 -0.2685
   7123SM   H5F 9312   5.209   8.029  13.316 -0.6540  1.1704  1.3173
   7123SM   H5G 9313   5.377   8.042  13.365 -0.4320 -0.7468 -0.5274
   7123SM   C6F 9314   5.313   8.169  13.192  0.1277 -0.3194 -0.8473
   7123SM   H6F 9315   5.380   8.257  13.191 -0.0254 -0.1642  0.7621
   7123SM   H6G 9316   5.218   8.214  13.158 -1.0786 -2.2089 -0.1439
   7123SM   C7F 9317   5.361   8.068  13.079 -0.4571  0.1476 -0.6681
   7123SM   H7F 9318   5.291   7.983  13.073  1.3728 -1.5894  1.1699
   7123SM   H7G 9319   5.459   8.024  13.109 -1.1826 -0.3319  1.1276
   7123SM   C8F 9320   5.359   8.129  12.941  0.4900  0.0922  0.3973
   7123SM   H8F 9321   5.445   8.197  12.919  0.5350 -0.4173 -1.0531
   7123SM   H8G 9322   5.269   8.194  12.932  2.2777  2.6479 -0.2110
   7123SM   C9F 9323   5.360   8.024  12.827  0.0809  0.6552  0.2157
   7123SM   H9F 9324   5.284   7.943  12.838  0.1621  0.2490 -1.7733
   7123SM   H9G 9325   5.459   7.973  12.823 -0.8187 -1.2113  0.4347
   7123SM  C10F 9326   5.340   8.088  12.694 -0.2214  0.4372  0.1198
   7123SM  H10F 9327   5.401   8.179  12.673 -0.6716  0.5676 -0.6614
   7123SM  H10G 9328   5.232   8.112  12.699 -0.0712  0.8053  3.3172
   7123SM  C11F 9329   5.350   7.986  12.581 -0.1603  0.1971 -0.1798
   7123SM  H11F 9330   5.336   7.881  12.614 -2.4759  0.4527 -0.2035
   7123SM  H11G 9331   5.450   7.998  12.534  0.1625  3.4283  1.0991
   7123SM  C12F 9332   5.262   8.003  12.460 -0.5568  0.4163  0.0502
   7123SM  H12F 9333   5.260   8.109  12.427  1.8748 -0.2145 -2.5088
   7123SM  H12G 9334   5.162   7.961  12.484 -1.0298  0.5768 -1.5499
   7123SM  C13F 9335   5.326   7.928  12.342  0.7752  0.2316  0.6097
   7123SM  H13F 9336   5.345   7.825  12.378  0.6205  0.9365  2.8027
   7123SM  H13G 9337   5.423   7.977  12.320  1.3398 -1.5583 -1.2410
   7123SM  C14F 9338   5.227   7.926  12.222 -0.2122 -0.2320 -0.2144
   7123SM  H14F 9339   5.202   8.034  12.219 -0.9472 -0.3741  0.4294
   7123SM  H14G 9340   5.138   7.870  12.257 -0.5015  2.0402  3.2356
   7123SM  C15F 9341   5.302   7.894  12.091  0.3641 -0.0442  0.5355
   7123SM  H15F 9342   5.379   7.818  12.115 -1.2293 -1.1717  2.3319
   7123SM  H15G 9343   5.362   7.980  12.053 -2.4056  0.9818 -1.8686
   7123SM  C16F 9344   5.212   7.849  11.971 -0.6479  0.0125 -0.4198
   7123SM  H16F 9345   5.146   7.933  11.942 -0.2114  0.5981  0.2541
   7123SM  H16G 9346   5.150   7.766  12.012 -0.7616  0.8744  1.2108
   7123SM  C17F 9347   5.304   7.802  11.859  0.0956 -0.1319  0.1631
   7123SM  H17F 9348   5.381   7.731  11.896  0.2793  0.2358  0.4809
   7123SM  H17G 9349   5.354   7.892  11.817 -2.0754  0.8678 -0.4213
   7123SM  C18F 9350   5.227   7.736  11.750  0.4032  0.3922  0.0319
   7123SM  H18F 9351   5.157   7.805  11.698  0.2896 -0.0050 -0.3422
   7123SM  H18G 9352   5.167   7.650  11.788 -0.8958  0.8533 -0.8887
   7123SM  C19F 9353   5.320   7.679  11.644 -0.2662  0.4775 -0.3002
   7123SM  H19F 9354   5.404   7.746  11.617  0.6553 -0.3779  0.4077
   7123SM  H19G 9355   5.261   7.652  11.554 -2.4809 -0.7157  1.4080
   7123SM  C20F 9356   5.385   7.554  11.699  0.0401  0.4531  0.4607
   7123SM  H20F 9357   5.327   7.510  11.784 -0.9127  0.2020 -0.2904
   7123SM  H20G 9358   5.487   7.570  11.739  0.2184 -0.9851  0.6448
   7123SM  C21F 9359   5.403   7.449  11.589 -0.6300 -0.3880 -0.1131
   7123SM  H21F 9360   5.450   7.505  11.505  0.5481 -0.7606  0.2824
   7123SM  H21G 9361   5.303   7.410  11.559 -1.7944  0.8540  1.9421
   7123SM  C22F 9362   5.510   7.341  11.618  0.1114  0.2255 -0.2267
   7123SM  H22F 9363   5.485   7.278  11.706  1.8656  1.5970  1.3488
   7123SM  H22G 9364   5.601   7.394  11.653  0.2191 -0.5159  0.6554
   7123SM  C23F 9365   5.545   7.247  11.500 -0.6855 -1.0574  0.2053
   7123SM  H23F 9366   5.458   7.184  11.470 -0.5405 -1.1356 -0.0518
   7123SM  H23G 9367   5.631   7.184  11.531 -0.0331 -0.6513 -0.7544
   7123SM  H23H 9368   5.586   7.314  11.422 -0.9765  0.2347  1.1249
   7223SM     N 9369   6.111   2.856  13.923  0.2116  0.2056 -0.5288
   7223SM   C15 9370   5.993   2.808  14.003 -0.4914  0.4933 -0.4960
   7223SM  H15A 9371   6.010   2.812  14.110 -0.2898  0.5334 -0.5293
   7223SM  H15B 9372   5.963   2.707  13.980  0.3364 -0.0816  0.7735
   7223SM  H15C 9373   5.905   2.867  13.983  1.1251  2.4366 -2.2754
   7223SM   C14 9374   6.218   2.750  13.946 -0.4466  0.1852  0.4646
   7223SM  H14A 9375   6.307   2.778  13.892 -1.0153  1.3825  0.1179
   7223SM  H14B 9376   6.181   2.651  13.921 -1.3568  0.1683  1.7517
   7223SM  H14C 9377   6.238   2.753  14.052  4.5688  0.9603 -0.2733
   7223SM   C13 9378   6.088   2.860  13.774 -0.3936  0.1231  0.2017
   7223SM  H13A 9379   6.056   2.956  13.737  2.5281  1.5279  1.0579
   7223SM  H13B 9380   6.043   2.766  13.745 -0.0658  0.0330 -0.0164
   7223SM  H13C 9381   6.181   2.871  13.720 -0.5299  1.2230  0.1804
   7223SM   C12 9382   6.141   3.000  13.966 -0.3182 -0.1144 -0.3945
   7223SM  H12A 9383   6.052   3.060  13.951 -0.1021  0.4237  0.3913
   7223SM  H12B 9384   6.220   3.046  13.909  0.0124  1.0004  0.9069
   7223SM   C11 9385   6.196   3.015  14.107  0.0202 -0.3239  0.0911
   7223SM  H11A 9386   6.135   2.962  14.183  0.6654  0.2263  1.0131
   7223SM  H11B 9387   6.184   3.120  14.140 -0.5184 -0.8786  1.7465
   7223SM     P 9388   6.458   3.076  14.082  0.2941  0.0825 -0.1234
   7223SM   O13 9389   6.430   3.211  14.138 -0.6979 -0.0152  0.3435
   7223SM   O14 9390   6.588   3.012  14.107 -0.1618  0.2897  1.1737
   7223SM   O11 9391   6.442   3.102  13.927  0.2456  0.6088  0.3017
   7223SM   O12 9392   6.336   2.974  14.112  0.3109  0.0730 -0.5153
   7223SM   C1S 9393   6.477   2.987  13.845 -0.2600  0.1493  0.6021
   7223SM   H1S 9394   6.399   2.909  13.852  0.5680 -0.7194  0.3208
   7223SM   H1T 9395   6.576   2.950  13.877  1.2430  1.0480 -2.6338
   7223SM    NF 9396   6.534   2.925  13.615  0.2086 -0.3007 -0.2701
   7223SM   HNF 9397   6.626   2.888  13.606 -0.2486 -1.2781 -1.1644
   7223SM   C2S 9398   6.508   3.037  13.701  0.2637 -0.3676 -0.2935
   7223SM   H2S 9399   6.421   3.091  13.658  0.6215 -0.7449 -1.5335
   7223SM   C3S 9400   6.623   3.145  13.709  0.7181  0.1614  0.9101
   7223SM   H3S 9401   6.704   3.101  13.772 -0.7659 -1.2271  1.9167
   7223SM    O3 9402   6.586   3.262  13.784 -0.1588  0.7174  0.1584
   7223SM   HO3 9403   6.524   3.229  13.850 -0.6198 -0.1880 -0.7050
   7223SM   C4S 9404   6.656   3.180  13.570 -0.3041 -0.0237  1.0313
   7223SM   H4S 9405   6.748   3.127  13.542  0.1817  1.3140 -0.0042
   7223SM   C5S 9406   6.597   3.272  13.491  0.2769 -0.1535  0.5424
   7223SM   H5S 9407   6.507   3.327  13.523  1.7473  0.5654  3.8092
   7223SM   C6S 9408   6.648   3.297  13.353  1.0768  0.4395 -0.5240
   7223SM   H6S 9409   6.722   3.379  13.364  0.3124  0.9556  1.1495
   7223SM   H6T 9410   6.561   3.336  13.297  0.7543 -1.4549 -1.4176
   7223SM   C7S 9411   6.713   3.183  13.283  0.8012  0.4705 -0.3071
   7223SM   H7S 9412   6.645   3.095  13.280  2.0874 -0.5497 -0.0453
   7223SM   H7T 9413   6.806   3.145  13.329  0.6661  0.7833  0.2402
   7223SM   C8S 9414   6.734   3.220  13.137 -0.6781  0.2129  0.1710
   7223SM   H8S 9415   6.788   3.316  13.121  0.0575  0.2310  2.4699
   7223SM   H8T 9416   6.633   3.249  13.098 -0.3012 -0.0267 -1.0372
   7223SM   C9S 9417   6.779   3.108  13.050  0.3730 -0.0483  0.2548
   7223SM   H9S 9418   6.704   3.026  13.053  2.9928 -2.6167  1.5990
   7223SM   H9T 9419   6.882   3.071  13.073  0.4829  0.2296  0.2074
   7223SM  C10S 9420   6.776   3.147  12.900  0.4209  0.4538 -0.3703
   7223SM  H10S 9421   6.851   3.227  12.881 -0.6008  1.3447 -0.8236
   7223SM  H10T 9422   6.679   3.188  12.862  0.3863 -0.4786 -1.3309
   7223SM  C11S 9423   6.810   3.038  12.801  0.3466 -1.0739  0.4427
   7223SM  H11S 9424   6.721   2.980  12.769 -0.0564 -0.2418  0.0455
   7223SM  H11T 9425   6.874   2.962  12.852 -2.9117 -3.2231  1.6516
   7223SM  C12S 9426   6.882   3.096  12.682  0.5840  0.2653  0.6648
   7223SM  H12S 9427   6.913   3.015  12.614 -0.6705  0.1809  0.1713
   7223SM  H12T 9428   6.974   3.150  12.713  1.3590 -0.3671 -0.4906
   7223SM  C13S 9429   6.792   3.198  12.610  0.1586  0.0231  0.2146
   7223SM  H13S 9430   6.785   3.294  12.666  1.3558 -0.0471  0.5170
   7223SM  H13T 9431   6.688   3.159  12.621 -0.4439  1.5293 -0.0051
   7223SM  C14S 9432   6.830   3.229  12.462 -0.1079  0.0718  0.9098
   7223SM  H14S 9433   6.921   3.293  12.463  0.5602 -0.8646  1.3500
   7223SM  H14T 9434   6.750   3.296  12.422  0.9145 -0.2940 -2.0343
   7223SM  C15S 9435   6.831   3.097  12.368  0.0423 -0.4711 -0.2793
   7223SM  H15S 9436   6.735   3.047  12.392 -1.0113  1.6906  0.2730
   7223SM  H15T 9437   6.916   3.033  12.399 -0.1980 -0.6597 -0.0117
   7223SM  C16S 9438   6.842   3.144  12.224 -0.0384 -0.0864  0.2458
   7223SM  H16S 9439   6.924   3.216  12.208 -2.2228  2.8464  1.4025
   7223SM  H16T 9440   6.750   3.201  12.200  0.1237  0.6702  1.3399
   7223SM  C17S 9441   6.868   3.024  12.132 -1.1458  0.5159 -0.5997
   7223SM  H17S 9442   6.837   3.062  12.032  1.2895  0.5639 -1.4115
   7223SM  H17T 9443   6.790   2.952  12.164 -2.0037  0.3431 -2.8473
   7223SM  C18S 9444   7.011   2.965  12.135 -0.0092 -0.0883 -0.9601
   7223SM  H18S 9445   7.020   2.888  12.055  3.1968 -0.0731 -0.7440
   7223SM  H18T 9446   7.035   2.914  12.231 -0.9984  1.5630  0.2159
   7223SM  H18U 9447   7.083   3.047  12.114 -0.6076 -0.1518 -3.6426
   7223SM   C1F 9448   6.448   2.833  13.575  0.6226 -0.3620 -0.5366
   7223SM    OF 9449   6.329   2.856  13.577 -0.4521  0.4837  0.4503
   7223SM   C2F 9450   6.493   2.696  13.530 -0.3678 -0.8351 -0.1565
   7223SM   H2F 9451   6.416   2.617  13.543 -0.5447 -0.9138 -1.5059
   7223SM   H2G 9452   6.584   2.673  13.589 -0.4007  1.1121  0.7139
   7223SM   C3F 9453   6.523   2.702  13.377 -0.2773  0.1674 -0.4408
   7223SM   H3F 9454   6.596   2.784  13.364 -0.2311  0.2331  0.1861
   7223SM   H3G 9455   6.424   2.726  13.333 -0.8422  0.0223  0.6939
   7223SM   C4F 9456   6.578   2.568  13.329 -0.5054  0.0887  0.3549
   7223SM   H4F 9457   6.533   2.483  13.385 -0.5582 -0.3542 -0.3454
   7223SM   H4G 9458   6.686   2.557  13.354 -0.1740  0.5118 -0.8750
   7223SM   C5F 9459   6.563   2.540  13.180 -0.5297  0.3350 -0.1248
   7223SM   H5F 9460   6.454   2.539  13.162 -0.5591 -0.9989 -0.0126
   7223SM   H5G 9461   6.605   2.437  13.167 -2.2928 -0.2807 -1.2869
   7223SM   C6F 9462   6.614   2.641  13.086 -0.7080 -0.2255  0.3216
   7223SM   H6F 9463   6.719   2.662  13.116 -1.2024  2.8088  0.2164
   7223SM   H6G 9464   6.570   2.742  13.096 -0.3341 -0.2489  3.0019
   7223SM   C7F 9465   6.593   2.606  12.937 -1.0109  0.7394  0.1136
   7223SM   H7F 9466   6.631   2.508  12.899  0.0003  1.3688 -0.5459
   7223SM   H7G 9467   6.652   2.681  12.881 -1.0753  0.0100 -0.9620
   7223SM   C8F 9468   6.448   2.622  12.898  0.2242  0.2518  0.7020
   7223SM   H8F 9469   6.414   2.727  12.911  1.1608  0.6383  0.1523
   7223SM   H8G 9470   6.387   2.559  12.966  0.1172  0.7932  1.1190
   7223SM   C9F 9471   6.424   2.571  12.756 -0.0033 -0.3713 -0.5577
   7223SM   H9F 9472   6.484   2.635  12.688 -0.8747  1.4571  0.3410
   7223SM   H9G 9473   6.318   2.596  12.733 -0.5918  0.2051  2.3940
   7223SM  C10F 9474   6.441   2.426  12.731  0.4536  0.4896 -0.0499
   7223SM  H10F 9475   6.393   2.371  12.815  0.2266 -1.0989 -1.1766
   7223SM  H10G 9476   6.550   2.408  12.733  0.2511 -0.7824  0.9390
   7223SM  C11F 9477   6.376   2.382  12.597 -0.7173 -0.2819 -0.4215
   7223SM  H11F 9478   6.420   2.450  12.521  1.0361  2.0913  2.5082
   7223SM  H11G 9479   6.267   2.402  12.598 -0.8892 -1.1740 -0.7756
   7223SM  C12F 9480   6.414   2.234  12.574  0.1122  0.1533  0.1380
   7223SM  H12F 9481   6.362   2.160  12.639 -0.3557 -2.7502 -3.1652
   7223SM  H12G 9482   6.521   2.229  12.603  0.1783  0.7795  0.0094
   7223SM  C13F 9483   6.385   2.194  12.422 -0.2117 -0.4094 -0.1342
   7223SM  H13F 9484   6.418   2.090  12.401 -0.9003 -1.0101  1.5142
   7223SM  H13G 9485   6.456   2.255  12.363  0.9381 -0.2265  1.3773
   7223SM  C14F 9486   6.242   2.224  12.380 -0.5691  0.3765 -0.4770
   7223SM  H14F 9487   6.232   2.333  12.361 -0.9197  0.1925 -1.4192
   7223SM  H14G 9488   6.180   2.184  12.463  1.7038 -1.2217  0.5423
   7223SM  C15F 9489   6.196   2.163  12.249 -0.5527 -0.0848 -0.9971
   7223SM  H15F 9490   6.228   2.056  12.250  0.5439  0.2270  1.0295
   7223SM  H15G 9491   6.245   2.208  12.160  1.6461 -0.6879 -0.1610
   7223SM  C16F 9492   6.048   2.182  12.235  1.0078  0.4505  0.6094
   7223SM  H16F 9493   6.019   2.277  12.285  2.6367 -0.3018  3.1891
   7223SM  H16G 9494   6.002   2.103  12.299  1.5280  2.3184  3.4897
   7223SM  C17F 9495   5.984   2.172  12.088  0.1329  0.3186 -0.5321
   7223SM  H17F 9496   5.887   2.118  12.092  1.3096 -1.7874  1.9589
   7223SM  H17G 9497   6.049   2.106  12.028 -0.3137 -0.8807  0.2671
   7223SM  C18F 9498   5.971   2.302  12.020  0.1381 -0.6110  0.3105
   7223SM  H18F 9499   6.072   2.348  12.011  0.4851 -1.5178 -0.5250
   7223SM  H18G 9500   5.914   2.386  12.067  1.1871  0.9009 -1.0185
   7223SM  C19F 9501   5.912   2.290  11.879  0.7175  0.0163 -1.0710
   7223SM  H19F 9502   5.803   2.275  11.889  0.8915  0.1037  1.6130
   7223SM  H19G 9503   5.960   2.200  11.835  2.6915  0.5206 -0.1015
   7223SM  C20F 9504   5.932   2.408  11.783 -0.2979 -0.7874  0.5008
   7223SM  H20F 9505   6.039   2.408  11.755 -1.1059  0.1635 -3.0070
   7223SM  H20G 9506   5.914   2.508  11.830 -2.3631 -0.6249 -0.5111
   7223SM  C21F 9507   5.851   2.388  11.652  0.3821 -0.0853 -0.3687
   7223SM  H21F 9508   5.746   2.382  11.688  0.5896  0.7725  0.4344
   7223SM  H21G 9509   5.880   2.287  11.618 -0.6409  0.1498 -2.0439
   7223SM  C22F 9510   5.862   2.499  11.545 -0.3175  1.1038 -0.0800
   7223SM  H22F 9511   5.968   2.527  11.528 -0.1744  1.6663  1.5306
   7223SM  H22G 9512   5.814   2.592  11.583  0.1119  0.9011  0.9940
   7223SM  C23F 9513   5.785   2.457  11.420  0.0326 -0.0602  0.3550
   7223SM  H23F 9514   5.746   2.545  11.365  2.5826  0.4693 -0.7493
   7223SM  H23G 9515   5.702   2.389  11.447  1.2955 -1.2445  1.4320
   7223SM  H23H 9516   5.855   2.405  11.351  0.0043  0.9479 -0.4604
   7323SM     N 9517   6.191   0.524  14.563  0.5491  0.4759  0.4504
   7323SM   C15 9518   6.266   0.571  14.682  0.3815 -1.0158  0.0568
   7323SM  H15A 9519   6.362   0.523  14.693  0.1573 -1.3999  0.4067
   7323SM  H15B 9520   6.207   0.542  14.768  2.2243 -2.7473  0.8388
   7323SM  H15C 9521   6.277   0.678  14.676 -1.2284 -0.9082 -1.7754
   7323SM   C14 9522   6.146   0.385  14.586  0.4704  0.2334 -0.0937
   7323SM  H14A 9523   6.078   0.352  14.509  0.3869  0.4171 -0.0970
   7323SM  H14B 9524   6.098   0.370  14.681 -0.0648 -0.2291 -0.4305
   7323SM  H14C 9525   6.239   0.329  14.583  1.2532  1.5249 -0.7918
   7323SM   C13 9526   6.075   0.614  14.550 -0.0276 -0.4488 -0.5972
   7323SM  H13A 9527   6.001   0.592  14.474 -1.5945  0.3019  0.6437
   7323SM  H13B 9528   6.096   0.717  14.525 -0.0346 -0.6782 -1.5715
   7323SM  H13C 9529   6.017   0.606  14.641 -1.7127 -0.1907 -1.6014
   7323SM   C12 9530   6.279   0.531  14.441  0.0938  0.6139  0.3843
   7323SM  H12A 9531   6.371   0.481  14.468  0.5121  1.1143 -0.0758
   7323SM  H12B 9532   6.311   0.634  14.428 -0.4656  0.5582 -1.9862
   7323SM   C11 9533   6.228   0.479  14.304 -0.3477 -0.4371  0.5108
   7323SM  H11A 9534   6.208   0.370  14.305  1.5197 -0.8276 -0.5955
   7323SM  H11B 9535   6.302   0.492  14.223  0.0611 -0.8528  0.8164
   7323SM     P 9536   6.105   0.683  14.205 -0.1369 -0.0751  0.0571
   7323SM   O13 9537   5.999   0.761  14.274  0.0677  0.7986  0.6820
   7323SM   O14 9538   6.238   0.737  14.223  0.4851 -0.2011 -0.2480
   7323SM   O11 9539   6.077   0.653  14.055  0.0148 -0.3901  0.3198
   7323SM   O12 9540   6.100   0.538  14.262  0.6135  0.3441 -0.2305
   7323SM   C1S 9541   6.111   0.532  13.995  0.2359 -0.4275 -0.1584
   7323SM   H1S 9542   6.045   0.459  14.048  1.2631 -1.1060  0.2360
   7323SM   H1T 9543   6.217   0.506  14.018  0.2533 -0.8797 -0.7410
   7323SM    NF 9544   6.084   0.379  13.812  0.5230  0.0836 -0.1665
   7323SM   HNF 9545   6.169   0.358  13.764  0.7427  1.3859 -0.3754
   7323SM   C2S 9546   6.081   0.515  13.845  0.7774  0.0818 -0.4473
   7323SM   H2S 9547   5.978   0.556  13.833  1.0422  1.0210  0.3037
   7323SM   C3S 9548   6.180   0.596  13.769 -0.0646 -0.4469 -0.2981
   7323SM   H3S 9549   6.282   0.551  13.772  0.2040 -0.0621 -2.2666
   7323SM    O3 9550   6.195   0.731  13.819  0.0894 -0.0587  0.0836
   7323SM   HO3 9551   6.162   0.715  13.907  0.7485 -1.1926  0.1507
   7323SM   C4S 9552   6.148   0.593  13.625 -0.2748 -0.0202  0.9931
   7323SM   H4S 9553   6.043   0.617  13.600  0.4332  0.3664 -1.9934
   7323SM   C5S 9554   6.235   0.554  13.527  0.0961  0.4629 -0.3376
   7323SM   H5S 9555   6.335   0.517  13.552  1.1929  1.9213 -2.3258
   7323SM   C6S 9556   6.201   0.543  13.383  0.1376  0.1114  0.5100
   7323SM   H6S 9557   6.283   0.594  13.329 -0.5870  0.2265 -0.5092
   7323SM   H6T 9558   6.104   0.594  13.364  0.0895  0.4316  1.5410
   7323SM   C7S 9559   6.215   0.402  13.330  0.0786  0.3613  0.2936
   7323SM   H7S 9560   6.153   0.322  13.375  1.1031 -1.3403 -1.2058
   7323SM   H7T 9561   6.322   0.371  13.329 -0.1006 -0.2879  0.6158
   7323SM   C8S 9562   6.174   0.389  13.173 -0.0142 -0.5867  0.4364
   7323SM   H8S 9563   6.225   0.469  13.116  0.0295 -1.5111 -0.8569
   7323SM   H8T 9564   6.065   0.412  13.171 -0.1733 -1.2522  0.9327
   7323SM   C9S 9565   6.200   0.250  13.123  0.6973 -0.2257 -0.3212
   7323SM   H9S 9566   6.151   0.180  13.194 -0.5182  1.8993  1.0736
   7323SM   H9T 9567   6.304   0.224  13.152  0.0572 -1.0665  1.3655
   7323SM  C10S 9568   6.182   0.227  12.978 -0.9126 -0.4139  0.3791
   7323SM  H10S 9569   6.254   0.291  12.923 -1.3318 -1.0561 -0.9489
   7323SM  H10T 9570   6.091   0.262  12.924 -1.1253 -1.4845  0.0210
   7323SM  C11S 9571   6.208   0.078  12.946 -0.3262  0.6433 -0.4967
   7323SM  H11S 9572   6.135   0.025  13.011 -0.3345 -0.4640 -1.3794
   7323SM  H11T 9573   6.316   0.062  12.968 -0.4011 -0.3722 -0.8323
   7323SM  C12S 9574   6.179   0.027  12.800  0.0713 -1.0842 -0.6388
   7323SM  H12S 9575   6.232   0.092  12.728  0.6397 -0.0636  0.6610
   7323SM  H12T 9576   6.073   0.021  12.767 -0.1518 -0.3027 -0.0806
   7323SM  C13S 9577   6.240  -0.111  12.784  0.1152  0.7493 -0.0557
   7323SM  H13S 9578   6.220  -0.168  12.877  3.9771 -1.9463 -0.6323
   7323SM  H13T 9579   6.348  -0.092  12.766  0.6055 -0.4225  1.4086
   7323SM  C14S 9580   6.174  -0.187  12.663 -0.3011 -0.2748 -0.4219
   7323SM  H14S 9581   6.069  -0.200  12.698 -0.2526 -0.2152 -0.2507
   7323SM  H14T 9582   6.222  -0.286  12.650  0.8374  0.4964 -2.5519
   7323SM  C15S 9583   6.185  -0.114  12.530  0.9084 -0.2949  0.3276
   7323SM  H15S 9584   6.292  -0.086  12.512  0.0665  1.6160 -2.3693
   7323SM  H15T 9585   6.130  -0.018  12.538  0.8145 -0.3393  0.2101
   7323SM  C16S 9586   6.132  -0.202  12.419  0.4330 -0.0383 -0.4178
   7323SM  H16S 9587   6.022  -0.203  12.430  0.4816  1.1925  0.3475
   7323SM  H16T 9588   6.161  -0.307  12.443 -0.8083 -0.0796  1.0329
   7323SM  C17S 9589   6.171  -0.163  12.275  0.1014  0.7735  0.2212
   7323SM  H17S 9590   6.279  -0.186  12.271 -0.0133  0.4014 -1.3154
   7323SM  H17T 9591   6.148  -0.057  12.248  0.1065  0.4030 -1.2900
   7323SM  C18S 9592   6.102  -0.260  12.183 -0.1742  0.3077  1.4512
   7323SM  H18S 9593   6.161  -0.259  12.089 -1.0287 -0.0225  0.9005
   7323SM  H18T 9594   6.001  -0.221  12.157 -0.2622 -0.1650  1.0790
   7323SM  H18U 9595   6.098  -0.363  12.225 -0.9895 -0.3013 -0.0416
   7323SM   C1F 9596   5.989   0.288  13.849 -0.6948 -0.4427 -0.2635
   7323SM    OF 9597   5.895   0.329  13.910 -0.0319  0.1843 -0.1517
   7323SM   C2F 9598   6.015   0.144  13.826 -0.0746  0.2117 -0.2569
   7323SM   H2F 9599   6.071   0.096  13.909  0.4176  1.0331 -0.0981
   7323SM   H2G 9600   6.088   0.137  13.742 -1.4394 -0.4533 -1.4366
   7323SM   C3F 9601   5.886   0.078  13.788 -0.2095  0.3517  0.8960
   7323SM   H3F 9602   5.812   0.085  13.871 -1.8236  1.2889 -0.5563
   7323SM   H3G 9603   5.903  -0.030  13.769  0.5374  0.4733  0.8481
   7323SM   C4F 9604   5.828   0.127  13.647  0.2015 -1.2397  0.7844
   7323SM   H4F 9605   5.780   0.223  13.679  3.2000 -0.5759  3.9464
   7323SM   H4G 9606   5.746   0.060  13.615 -0.0087 -0.8269  0.4491
   7323SM   C5F 9607   5.929   0.145  13.534 -0.3723  0.3335 -0.0303
   7323SM   H5F 9608   5.966   0.041  13.521 -0.9705  0.1916 -0.6031
   7323SM   H5G 9609   6.005   0.224  13.553  0.3739 -0.1703 -0.8284
   7323SM   C6F 9610   5.878   0.188  13.396  0.2304  0.0606  0.2208
   7323SM   H6F 9611   5.960   0.244  13.346  1.0537 -2.1924 -1.1140
   7323SM   H6G 9612   5.794   0.259  13.404  0.0685 -0.1206  0.1502
   7323SM   C7F 9613   5.847   0.071  13.300  0.5141 -0.1692  0.8627
   7323SM   H7F 9614   5.756   0.020  13.339 -1.0066  1.6168 -0.1486
   7323SM   H7G 9615   5.922  -0.010  13.306  1.2116  0.4484  0.6072
   7323SM   C8F 9616   5.813   0.111  13.149  0.6487  0.0607 -0.3756
   7323SM   H8F 9617   5.897   0.177  13.117  1.4554 -0.9075 -0.2962
   7323SM   H8G 9618   5.717   0.166  13.160 -0.2268 -1.4777 -0.1028
   7323SM   C9F 9619   5.794  -0.011  13.053 -0.1564 -0.7064  0.4273
   7323SM   H9F 9620   5.699  -0.061  13.080 -1.0692  1.2953  1.1038
   7323SM   H9G 9621   5.883  -0.077  13.063 -1.0572 -2.0689 -0.2766
   7323SM  C10F 9622   5.768   0.029  12.907  0.4518  0.2684 -0.2293
   7323SM  H10F 9623   5.852   0.089  12.866 -0.4805  1.8860  0.1527
   7323SM  H10G 9624   5.676   0.091  12.899  0.0955  0.1629  2.2743
   7323SM  C11F 9625   5.759  -0.086  12.799  0.3240  0.2092  0.5028
   7323SM  H11F 9626   5.671  -0.151  12.819  1.8065 -1.9899  0.2426
   7323SM  H11G 9627   5.850  -0.150  12.795 -0.9392 -1.5870 -2.1493
   7323SM  C12F 9628   5.750  -0.026  12.658  0.0998  0.5600 -0.6420
   7323SM  H12F 9629   5.841   0.030  12.626  2.4899 -0.7905  3.0453
   7323SM  H12G 9630   5.656   0.033  12.656 -1.6072 -1.9896 -0.5531
   7323SM  C13F 9631   5.734  -0.136  12.552 -0.4530  0.1122 -0.1153
   7323SM  H13F 9632   5.649  -0.198  12.588  0.0317 -0.3963  0.1607
   7323SM  H13G 9633   5.823  -0.201  12.562 -0.9635 -0.3670  1.6724
   7323SM  C14F 9634   5.713  -0.097  12.405 -0.1677  0.3185  0.2725
   7323SM  H14F 9635   5.742  -0.181  12.339 -2.5278 -0.9400  0.7028
   7323SM  H14G 9636   5.778  -0.016  12.366 -0.8940  0.2079 -1.2340
   7323SM  C15F 9637   5.575  -0.049  12.366 -0.7197  0.1208  0.5930
   7323SM  H15F 9638   5.542   0.039  12.425 -1.6679 -0.6589  1.2607
   7323SM  H15G 9639   5.498  -0.125  12.391 -0.6957 -0.2742 -0.4980
   7323SM  C16F 9640   5.563  -0.021  12.216 -0.3334  0.0719  0.8350
   7323SM  H16F 9641   5.600  -0.107  12.156 -0.7187  0.4939 -0.0261
   7323SM  H16G 9642   5.623   0.068  12.186  2.6028 -2.0871 -0.1223
   7323SM  C17F 9643   5.426   0.027  12.166 -0.0533  0.7881 -0.1285
   7323SM  H17F 9644   5.397   0.106  12.238 -0.7699 -0.3650  0.8914
   7323SM  H17G 9645   5.360  -0.061  12.175  0.6454  0.4756  2.6365
   7323SM  C18F 9646   5.426   0.065  12.017 -0.0720  0.5239 -0.3225
   7323SM  H18F 9647   5.502   0.145  12.001 -0.0936  0.8734  1.1627
   7323SM  H18G 9648   5.329   0.109  11.985 -0.1610  0.5398 -0.0342
   7323SM  C19F 9649   5.463  -0.043  11.913  0.8172 -0.3036 -0.2811
   7323SM  H19F 9650   5.570  -0.072  11.922  1.2275  0.6803 -1.6474
   7323SM  H19G 9651   5.445  -0.000  11.812 -1.8246 -0.8202 -0.1144
   7323SM  C20F 9652   5.367  -0.162  11.928  0.1855  0.2013  0.3138
   7323SM  H20F 9653   5.266  -0.122  11.903  0.9867  0.4050 -3.1583
   7323SM  H20G 9654   5.363  -0.212  12.027 -2.9928  2.5140  1.5138
   7323SM  C21F 9655   5.400  -0.282  11.833  0.0142 -0.5913 -0.8141
   7323SM  H21F 9656   5.310  -0.348  11.844  0.0189 -0.3829  0.7639
   7323SM  H21G 9657   5.489  -0.340  11.866  0.6940  0.9045  0.0767
   7323SM  C22F 9658   5.417  -0.246  11.687 -0.0287  0.0064 -0.0948
   7323SM  H22F 9659   5.502  -0.178  11.664  0.0341  0.2181  0.7203
   7323SM  H22G 9660   5.325  -0.188  11.661  1.0207  1.7251 -0.0932
   7323SM  C23F 9661   5.447  -0.372  11.613 -0.1784 -0.3386  0.1791
   7323SM  H23F 9662   5.382  -0.455  11.648  1.3399 -1.1547  1.1707
   7323SM  H23G 9663   5.550  -0.411  11.628 -0.0119  0.7201  1.9965
   7323SM  H23H 9664   5.435  -0.354  11.504  0.6590  0.0714  0.1537
   7423SM     N 9665   8.234   4.251  14.378  0.1576  0.0514 -1.4081
   7423SM   C15 9666   8.173   4.392  14.399 -0.3433 -0.2086 -0.1363
   7423SM  H15A 9667   8.247   4.456  14.444 -2.6288  0.7022  2.5958
   7423SM  H15B 9668   8.084   4.380  14.460 -2.9331 -1.0609 -3.7207
   7423SM  H15C 9669   8.137   4.413  14.299 -1.6331  0.9174  0.5345
   7423SM   C14 9670   8.268   4.198  14.514  0.2767  0.8939 -0.4111
   7423SM  H14A 9671   8.320   4.274  14.570  0.9639  0.8283 -0.9477
   7423SM  H14B 9672   8.331   4.110  14.521 -1.5470 -0.3622  0.9836
   7423SM  H14C 9673   8.176   4.165  14.559  0.4204  0.0763 -0.6854
   7423SM   C13 9674   8.147   4.161  14.309 -0.4489  0.1608 -0.1165
   7423SM  H13A 9675   8.127   4.194  14.208 -1.9007  0.5906  0.2856
   7423SM  H13B 9676   8.051   4.148  14.357 -0.9575 -2.4874 -1.6692
   7423SM  H13C 9677   8.188   4.061  14.308  0.2629  0.4429 -0.7470
   7423SM   C12 9678   8.365   4.262  14.295  0.6531 -0.1838 -0.7067
   7423SM  H12A 9679   8.338   4.299  14.197 -2.0906  2.4714  0.8611
   7423SM  H12B 9680   8.413   4.165  14.290  1.0261 -0.0037 -0.7044
   7423SM   C11 9681   8.464   4.365  14.361  0.1100  0.1324  0.6029
   7423SM  H11A 9682   8.568   4.348  14.326 -0.0739 -0.2756  0.2340
   7423SM  H11B 9683   8.477   4.343  14.469 -0.0493 -1.8339  0.2709
   7423SM     P 9684   8.493   4.623  14.382  0.2645 -0.0533  0.0316
   7423SM   O13 9685   8.409   4.653  14.499 -0.2721  0.3916  0.2885
   7423SM   O14 9686   8.643   4.602  14.407 -0.7412  0.3689  0.7697
   7423SM   O11 9687   8.458   4.733  14.272 -0.2255  0.5778  0.7944
   7423SM   O12 9688   8.434   4.498  14.309 -0.3921  0.4191 -0.3394
   7423SM   C1S 9689   8.531   4.753  14.149  0.1898  0.0811  0.0506
   7423SM   H1S 9690   8.586   4.660  14.121  0.7307  0.8633 -1.5732
   7423SM   H1T 9691   8.611   4.827  14.163  0.2717 -0.3104  1.9847
   7423SM    NF 9692   8.482   4.773  13.911 -0.0017 -0.0748  0.1540
   7423SM   HNF 9693   8.541   4.842  13.871 -0.4181 -0.0672 -0.4723
   7423SM   C2S 9694   8.435   4.813  14.041 -0.5972  0.2243 -0.1363
   7423SM   H2S 9695   8.332   4.772  14.055 -1.1326  1.0193 -1.5762
   7423SM   C3S 9696   8.408   4.965  14.063  0.4503  0.5537 -0.5208
   7423SM   H3S 9697   8.504   5.021  14.068  1.0666 -0.4141 -1.0840
   7423SM    O3 9698   8.344   4.989  14.192 -0.0964  0.2313 -0.4736
   7423SM   HO3 9699   8.361   4.908  14.241  1.7764  1.0952  0.4326
   7423SM   C4S 9700   8.323   5.022  13.957 -0.2594 -0.3940 -0.2680
   7423SM   H4S 9701   8.238   4.960  13.923  0.0564 -0.4426 -1.0068
   7423SM   C5S 9702   8.357   5.135  13.891  0.5286  0.4643  0.2690
   7423SM   H5S 9703   8.439   5.200  13.926  1.2663 -0.0892 -0.3989
   7423SM   C6S 9704   8.276   5.205  13.781  0.3586 -0.0647 -0.5254
   7423SM   H6S 9705   8.246   5.308  13.811 -0.8007 -1.2030  2.6074
   7423SM   H6T 9706   8.179   5.152  13.769  0.1432  0.2263 -0.1081
   7423SM   C7S 9707   8.326   5.205  13.636  0.2323 -0.3395  0.1727
   7423SM   H7S 9708   8.257   5.247  13.560 -0.2898 -0.8915  0.3363
   7423SM   H7T 9709   8.319   5.098  13.604  0.6044 -0.4464  0.4441
   7423SM   C8S 9710   8.469   5.237  13.626 -0.5360 -0.9792  1.3548
   7423SM   H8S 9711   8.535   5.166  13.682  0.8257 -1.4398 -0.7363
   7423SM   H8T 9712   8.464   5.338  13.672 -0.4887 -0.0765 -0.5427
   7423SM   C9S 9713   8.527   5.241  13.481  0.1926  0.2519  0.2153
   7423SM   H9S 9714   8.496   5.139  13.449  0.2812 -0.3927  2.0226
   7423SM   H9T 9715   8.638   5.244  13.486  0.2630  0.7066 -1.3574
   7423SM  C10S 9716   8.487   5.351  13.389 -0.3383 -0.6285 -0.5661
   7423SM  H10S 9717   8.522   5.451  13.421 -1.2545 -0.4896  0.0390
   7423SM  H10T 9718   8.377   5.363  13.397 -0.7065 -2.3168 -2.2276
   7423SM  C11S 9719   8.523   5.331  13.245 -0.5149 -0.3372 -0.5468
   7423SM  H11S 9720   8.476   5.239  13.202  1.1025 -0.7931 -1.4245
   7423SM  H11T 9721   8.634   5.333  13.244 -0.4560  0.6052  1.7996
   7423SM  C12S 9722   8.474   5.444  13.159 -1.4002  0.0084 -0.9335
   7423SM  H12S 9723   8.518   5.540  13.194 -1.1370 -0.5698  0.3719
   7423SM  H12T 9724   8.363   5.454  13.170 -1.3274 -0.7400  0.8562
   7423SM  C13S 9725   8.497   5.433  13.006 -0.1248 -0.0030 -0.0605
   7423SM  H13S 9726   8.430   5.352  12.972  0.0837 -1.7919  3.3284
   7423SM  H13T 9727   8.600   5.400  12.981 -0.2790 -0.9940  0.5614
   7423SM  C14S 9728   8.470   5.560  12.927 -0.0425 -0.4194 -0.0017
   7423SM  H14S 9729   8.561   5.622  12.924  1.7515 -2.8527  0.7006
   7423SM  H14T 9730   8.388   5.607  12.985  0.1548 -1.9831  1.6415
   7423SM  C15S 9731   8.436   5.525  12.783  0.6119  0.5166  0.2495
   7423SM  H15S 9732   8.355   5.592  12.747 -0.2192 -0.9955 -0.7725
   7423SM  H15T 9733   8.394   5.422  12.778 -0.2822  0.8671  0.3706
   7423SM  C16S 9734   8.566   5.523  12.706  0.0701  0.1777  0.3521
   7423SM  H16S 9735   8.637   5.449  12.750 -2.7143 -1.3629  2.5447
   7423SM  H16T 9736   8.598   5.629  12.713 -2.2449  1.1816 -2.3947
   7423SM  C17S 9737   8.548   5.481  12.559  0.9313  0.0136  0.0519
   7423SM  H17S 9738   8.504   5.379  12.561 -2.4477  1.3247  0.2422
   7423SM  H17T 9739   8.650   5.487  12.516  0.3020  1.9426 -1.3495
   7423SM  C18S 9740   8.450   5.560  12.470 -0.5829  0.2152  0.2476
   7423SM  H18S 9741   8.347   5.542  12.507 -1.2715  1.5492 -0.9286
   7423SM  H18T 9742   8.454   5.518  12.367 -1.3866 -0.1625  0.3591
   7423SM  H18U 9743   8.462   5.670  12.476 -2.5225  0.4538  0.2893
   7423SM   C1F 9744   8.473   4.646  13.872  0.6633 -0.2471  0.1968
   7423SM    OF 9745   8.417   4.563  13.946 -0.4660 -0.2474  0.1614
   7423SM   C2F 9746   8.529   4.610  13.738  0.5378 -0.3228 -0.2862
   7423SM   H2F 9747   8.627   4.662  13.733 -0.5007  1.6995 -0.8989
   7423SM   H2G 9748   8.456   4.649  13.663 -0.4973 -1.3743  0.1413
   7423SM   C3F 9749   8.536   4.457  13.738  1.0873  0.9061  0.2346
   7423SM   H3F 9750   8.450   4.401  13.780  0.3738  1.0194 -1.0331
   7423SM   H3G 9751   8.628   4.422  13.790  0.2000 -0.9571  0.6259
   7423SM   C4F 9752   8.551   4.399  13.593 -0.5564  0.8912 -0.3664
   7423SM   H4F 9753   8.634   4.456  13.545 -0.2103  0.4495 -0.3084
   7423SM   H4G 9754   8.458   4.418  13.537  0.1548  1.8012 -1.2769
   7423SM   C5F 9755   8.583   4.247  13.592  0.7909 -0.0864  0.1978
   7423SM   H5F 9756   8.490   4.199  13.631 -0.0452  3.0726  2.4751
   7423SM   H5G 9757   8.664   4.230  13.665  0.2749  1.5413  1.2094
   7423SM   C6F 9758   8.621   4.198  13.455  0.3809  0.1334 -0.3840
   7423SM   H6F 9759   8.545   4.235  13.383  0.1093  0.1366 -0.0973
   7423SM   H6G 9760   8.609   4.088  13.448 -0.2550  0.1624  0.0942
   7423SM   C7F 9761   8.763   4.242  13.413 -0.4674  0.1645 -0.4986
   7423SM   H7F 9762   8.827   4.192  13.490 -2.6787  0.7468  1.8677
   7423SM   H7G 9763   8.778   4.350  13.432  0.9400 -0.0720 -0.1284
   7423SM   C8F 9764   8.801   4.198  13.276 -0.2116 -0.0965 -0.8306
   7423SM   H8F 9765   8.793   4.090  13.249 -1.1312 -0.2655  0.0527
   7423SM   H8G 9766   8.909   4.220  13.263 -0.1054 -0.9424 -1.5194
   7423SM   C9F 9767   8.721   4.280  13.166 -0.0475 -0.5904 -0.3732
   7423SM   H9F 9768   8.733   4.387  13.194 -1.1412 -0.7533  0.8013
   7423SM   H9G 9769   8.614   4.254  13.181 -0.3147  0.2598 -0.7360
   7423SM  C10F 9770   8.764   4.268  13.022 -0.1261 -0.2220  0.0651
   7423SM  H10F 9771   8.775   4.159  13.005 -0.3401 -0.3107  0.4759
   7423SM  H10G 9772   8.862   4.317  13.006 -0.3140  0.2073  0.1869
   7423SM  C11F 9773   8.660   4.309  12.921  0.3516  0.1396 -0.0751
   7423SM  H11F 9774   8.676   4.415  12.892  0.7316 -0.3451 -1.7665
   7423SM  H11G 9775   8.556   4.304  12.960 -0.0873 -1.0384 -1.2924
   7423SM  C12F 9776   8.656   4.224  12.788  0.1773 -0.0450  0.0012
   7423SM  H12F 9777   8.632   4.118  12.807 -0.8350  0.3027  0.7200
   7423SM  H12G 9778   8.754   4.215  12.735 -1.2991 -3.0772 -2.5255
   7423SM  C13F 9779   8.546   4.269  12.691  0.9376  0.1955  0.3655
   7423SM  H13F 9780   8.571   4.371  12.657 -2.8908  1.5644  1.1497
   7423SM  H13G 9781   8.456   4.283  12.756  0.8821  0.3991  0.2443
   7423SM  C14F 9782   8.518   4.183  12.564 -0.5699  0.0129  0.0080
   7423SM  H14F 9783   8.420   4.216  12.522 -0.3639 -0.5068 -0.8922
   7423SM  H14G 9784   8.511   4.075  12.590  0.1382 -0.4487 -1.6328
   7423SM  C15F 9785   8.625   4.197  12.459 -0.3509  0.7686  0.7163
   7423SM  H15F 9786   8.719   4.147  12.490  1.0076  3.9385  2.2324
   7423SM  H15G 9787   8.651   4.305  12.450 -0.7881  0.8384  0.2858
   7423SM  C16F 9788   8.585   4.151  12.319  0.4719  0.0345  0.0139
   7423SM  H16F 9789   8.493   4.205  12.287 -0.0689  1.0164  2.9011
   7423SM  H16G 9790   8.563   4.042  12.322 -0.4414  0.0092 -3.4454
   7423SM  C17F 9791   8.691   4.160  12.213  0.4768 -0.0250  0.3118
   7423SM  H17F 9792   8.786   4.115  12.249  1.1511  1.3321  0.2886
   7423SM  H17G 9793   8.722   4.264  12.190  2.0836 -0.2942  1.1262
   7423SM  C18F 9794   8.638   4.094  12.086  0.3845  0.6746  0.3341
   7423SM  H18F 9795   8.531   4.119  12.073  0.6970  2.1193  0.3456
   7423SM  H18G 9796   8.637   3.983  12.094  0.0911  0.6210 -0.3656
   7423SM  C19F 9797   8.711   4.141  11.960 -0.5336  0.7856  0.1348
   7423SM  H19F 9798   8.817   4.147  11.993 -0.6057  0.9748  0.3367
   7423SM  H19G 9799   8.679   4.244  11.935 -1.1264  0.3782 -0.8151
   7423SM  C20F 9800   8.691   4.047  11.841 -0.0118 -0.0602 -0.1461
   7423SM  H20F 9801   8.681   3.940  11.868 -1.1508  0.0989  0.1523
   7423SM  H20G 9802   8.780   4.053  11.775 -1.8491 -0.0030 -2.7896
   7423SM  C21F 9803   8.571   4.095  11.769 -0.3309  0.6558 -0.2239
   7423SM  H21F 9804   8.578   4.204  11.754  2.5568  0.4917 -0.5366
   7423SM  H21G 9805   8.487   4.078  11.840 -1.1221  1.2944 -0.9923
   7423SM  C22F 9806   8.531   4.018  11.643  0.2022 -0.5524  0.1579
   7423SM  H22F 9807   8.440   4.071  11.610 -0.8974 -2.3089  0.2472
   7423SM  H22G 9808   8.498   3.916  11.670 -0.8977 -0.1771  0.2840
   7423SM  C23F 9809   8.635   4.016  11.522 -0.4342  0.3032  0.0397
   7423SM  H23F 9810   8.682   4.111  11.489  0.4621 -0.7280 -1.8162
   7423SM  H23G 9811   8.589   3.974  11.430 -5.1166  2.9821  0.8153
   7423SM  H23H 9812   8.710   3.950  11.569 -0.6827 -0.1151 -0.1405
   7523SM     N 9813   7.403   6.479  14.393 -0.1268 -0.1078 -0.3411
   7523SM   C15 9814   7.351   6.604  14.459 -0.0991 -0.3646  0.1944
   7523SM  H15A 9815   7.314   6.675  14.386 -2.8092 -0.9153  0.8918
   7523SM  H15B 9816   7.426   6.660  14.512 -0.7870 -0.2636  1.0870
   7523SM  H15C 9817   7.271   6.579  14.528 -0.2673  1.9061  0.8874
   7523SM   C14 9818   7.448   6.380  14.501 -0.3487 -0.3682 -0.2615
   7523SM  H14A 9819   7.364   6.357  14.564 -1.2862  2.1372 -0.4605
   7523SM  H14B 9820   7.522   6.428  14.564  1.1814 -0.9537 -1.5374
   7523SM  H14C 9821   7.487   6.292  14.452 -0.9804  0.4733 -2.4347
   7523SM   C13 9822   7.288   6.414  14.325 -0.5234 -0.1319  0.0223
   7523SM  H13A 9823   7.232   6.362  14.402  0.9161  0.3616  1.4658
   7523SM  H13B 9824   7.338   6.340  14.266 -0.1839 -0.8129  1.1266
   7523SM  H13C 9825   7.228   6.482  14.266  0.1807 -0.1283 -0.7002
   7523SM   C12 9826   7.512   6.511  14.294 -1.0761 -0.9513  0.0266
   7523SM  H12A 9827   7.475   6.588  14.228 -0.6207 -1.0941 -0.3985
   7523SM  H12B 9828   7.535   6.427  14.230  0.0699 -0.4831 -0.1949
   7523SM   C11 9829   7.657   6.561  14.345 -0.4801 -0.1499 -0.2552
   7523SM  H11A 9830   7.629   6.647  14.409 -2.6270 -1.3400  0.5098
   7523SM  H11B 9831   7.712   6.602  14.257  0.0303 -0.6821 -0.1882
   7523SM     P 9832   7.809   6.344  14.341  0.5510  0.2465  0.5035
   7523SM   O13 9833   7.904   6.276  14.432  0.0861 -0.2462  0.0915
   7523SM   O14 9834   7.711   6.258  14.274 -0.5583 -0.4646  0.2437
   7523SM   O11 9835   7.881   6.413  14.226 -0.7893 -0.5423  0.7438
   7523SM   O12 9836   7.731   6.460  14.417  0.1999 -0.0458 -0.1731
   7523SM   C1S 9837   7.916   6.349  14.104 -0.1646  0.7072  0.2909
   7523SM   H1S 9838   7.863   6.252  14.089  2.7156 -1.0594  0.8066
   7523SM   H1T 9839   8.025   6.328  14.103 -0.6624 -2.4523  0.3048
   7523SM    NF 9840   7.912   6.362  13.849  0.3426 -0.5029  0.1316
   7523SM   HNF 9841   7.999   6.372  13.800 -0.4043  0.8530 -0.9878
   7523SM   C2S 9842   7.890   6.437  13.970 -0.3329 -0.0209  0.3116
   7523SM   H2S 9843   7.784   6.469  13.970  0.0077  1.2329 -1.5891
   7523SM   C3S 9844   7.970   6.570  13.972  0.5259 -0.3397 -0.0309
   7523SM   H3S 9845   8.078   6.545  13.959  0.8464 -0.4908  2.4692
   7523SM    O3 9846   7.958   6.641  14.098  0.2262  0.3956  0.0330
   7523SM   HO3 9847   7.939   6.577  14.167 -2.5945  0.8228 -0.2031
   7523SM   C4S 9848   7.924   6.656  13.857 -0.4267 -0.4776  0.8189
   7523SM   H4S 9849   7.821   6.694  13.859 -0.2644  0.5825 -3.0830
   7523SM   C5S 9850   8.006   6.695  13.753  0.0225  0.1509 -0.1318
   7523SM   H5S 9851   8.111   6.662  13.743  0.0632  0.1403  0.2879
   7523SM   C6S 9852   7.965   6.802  13.655 -0.2315  0.5315 -0.0686
   7523SM   H6S 9853   8.047   6.873  13.629  0.4569 -0.1944  0.0619
   7523SM   H6T 9854   7.875   6.850  13.700 -2.2106 -0.9167 -2.3015
   7523SM   C7S 9855   7.922   6.748  13.521 -0.0891  0.2645 -0.1016
   7523SM   H7S 9856   7.866   6.654  13.540  0.4034  0.1291  0.7804
   7523SM   H7T 9857   8.008   6.737  13.451  0.1688  1.6998 -0.0411
   7523SM   C8S 9858   7.833   6.857  13.461  0.3394 -0.3510 -0.0766
   7523SM   H8S 9859   7.898   6.947  13.456 -1.0881  0.8090  1.4308
   7523SM   H8T 9860   7.758   6.884  13.538 -1.3646  1.0628 -2.0930
   7523SM   C9S 9861   7.758   6.832  13.327  0.1040  0.0907  1.0887
   7523SM   H9S 9862   7.675   6.759  13.337 -1.2633  1.0714 -1.8665
   7523SM   H9T 9863   7.821   6.794  13.244 -0.9400  1.9569 -0.6625
   7523SM  C10S 9864   7.694   6.952  13.259  0.1898  0.2347  0.5253
   7523SM  H10S 9865   7.675   6.911  13.157  0.2892  1.4427  0.0092
   7523SM  H10T 9866   7.750   7.047  13.268  1.6731 -0.8177  5.3297
   7523SM  C11S 9867   7.561   6.998  13.314  0.2143 -0.3970  0.2126
   7523SM  H11S 9868   7.575   7.068  13.400  0.2160  1.8534 -1.5340
   7523SM  H11T 9869   7.500   6.911  13.346 -2.3098  0.6841 -1.3629
   7523SM  C12S 9870   7.475   7.082  13.217  0.0727 -0.0081  0.2974
   7523SM  H12S 9871   7.434   7.020  13.135  1.6006  1.9985 -2.1015
   7523SM  H12T 9872   7.538   7.156  13.164  0.7652  0.0734  1.1950
   7523SM  C13S 9873   7.355   7.150  13.283  0.0776 -0.2837 -0.0837
   7523SM  H13S 9874   7.358   7.251  13.236  1.9385 -0.6140 -0.7266
   7523SM  H13T 9875   7.379   7.166  13.390 -0.4762 -1.4469  0.2317
   7523SM  C14S 9876   7.220   7.077  13.272  0.4882 -0.4251  0.6635
   7523SM  H14S 9877   7.240   6.970  13.295  1.4763 -0.3009  0.4289
   7523SM  H14T 9878   7.209   7.061  13.162  0.6167 -0.0196  0.5929
   7523SM  C15S 9879   7.089   7.144  13.318  0.1023 -0.0265  0.3366
   7523SM  H15S 9880   7.013   7.070  13.284  1.6641 -0.6037 -2.1447
   7523SM  H15T 9881   7.072   7.235  13.257  0.7817 -1.0144 -1.4073
   7523SM  C16S 9882   7.091   7.160  13.468  0.5348  0.5869  0.7022
   7523SM  H16S 9883   7.169   7.237  13.488  1.9666 -0.3806 -0.8571
   7523SM  H16T 9884   7.131   7.066  13.513 -0.2220  0.5144  1.2372
   7523SM  C17S 9885   6.958   7.207  13.518 -0.0225  0.3889  0.3664
   7523SM  H17S 9886   6.968   7.183  13.626  1.6349 -1.3001 -0.1016
   7523SM  H17T 9887   6.869   7.151  13.483  0.0121  0.2798  0.4521
   7523SM  C18S 9888   6.928   7.352  13.483  0.0886 -0.3821 -0.1979
   7523SM  H18S 9889   6.827   7.384  13.518  1.4030  5.5247 -0.7072
   7523SM  H18T 9890   6.932   7.377  13.375 -0.1673 -0.6006 -0.2582
   7523SM  H18U 9891   6.999   7.424  13.529  0.1924 -0.1034 -0.7792
   7523SM   C1F 9892   7.828   6.265  13.809 -0.4448  0.5156  0.3506
   7523SM    OF 9893   7.731   6.238  13.880  0.0225 -0.4556  0.2480
   7523SM   C2F 9894   7.862   6.196  13.680 -0.4429  0.0626  0.2356
   7523SM   H2F 9895   7.958   6.143  13.698 -0.2322  0.0494 -0.8175
   7523SM   H2G 9896   7.877   6.270  13.598  0.7697 -0.5333 -0.1037
   7523SM   C3F 9897   7.769   6.082  13.633  1.2974 -0.3971  0.7068
   7523SM   H3F 9898   7.767   5.995  13.702  3.4412  0.6880  2.2650
   7523SM   H3G 9899   7.802   6.038  13.537 -1.2916 -0.6513 -0.1334
   7523SM   C4F 9900   7.619   6.115  13.601 -0.9536 -0.0513  0.5143
   7523SM   H4F 9901   7.553   6.139  13.686 -1.3598  0.1261  0.1487
   7523SM   H4G 9902   7.573   6.020  13.565 -0.4323 -0.2903  0.4640
   7523SM   C5F 9903   7.600   6.225  13.495 -0.3139 -1.2494  0.3190
   7523SM   H5F 9904   7.646   6.319  13.531  0.0674 -0.9753 -0.8439
   7523SM   H5G 9905   7.493   6.241  13.470 -0.3191 -1.5919  0.1177
   7523SM   C6F 9906   7.655   6.207  13.354 -0.0303  0.9590 -0.3383
   7523SM   H6F 9907   7.766   6.207  13.358 -0.0230  0.3888  3.7400
   7523SM   H6G 9908   7.627   6.297  13.295 -0.9633 -0.7524 -2.6310
   7523SM   C7F 9909   7.597   6.088  13.285  0.1091 -0.3235  1.5948
   7523SM   H7F 9910   7.488   6.090  13.302 -0.4093  0.5326 -1.3168
   7523SM   H7G 9911   7.648   5.998  13.327 -0.1088 -1.4622 -0.4373
   7523SM   C8F 9912   7.634   6.087  13.136 -0.0069 -0.1443 -0.3251
   7523SM   H8F 9913   7.725   6.025  13.126  0.1632  0.0893 -0.2410
   7523SM   H8G 9914   7.643   6.191  13.099  0.7409  0.2176  0.8159
   7523SM   C9F 9915   7.518   6.027  13.051 -0.6564  0.2047  0.6197
   7523SM   H9F 9916   7.430   6.093  13.067  0.0097  0.7434  2.3140
   7523SM   H9G 9917   7.488   5.928  13.091  1.7044 -0.3264  1.2399
   7523SM  C10F 9918   7.557   6.016  12.903 -0.1625  0.6132 -0.2821
   7523SM  H10F 9919   7.469   5.969  12.853 -2.3667  2.7482  1.3663
   7523SM  H10G 9920   7.631   5.934  12.897 -3.0362 -2.1170 -1.4932
   7523SM  C11F 9921   7.609   6.142  12.833 -0.3008 -0.2771  0.3178
   7523SM  H11F 9922   7.698   6.188  12.880 -0.4432 -0.2923  0.6053
   7523SM  H11G 9923   7.521   6.210  12.835  0.2825  0.5149 -0.4435
   7523SM  C12F 9924   7.657   6.115  12.689  0.1878 -0.7279 -0.0367
   7523SM  H12F 9925   7.570   6.104  12.621  1.6787 -0.1045 -2.1235
   7523SM  H12G 9926   7.711   6.018  12.690 -1.6689 -1.8149  0.7890
   7523SM  C13F 9927   7.753   6.220  12.638 -0.1885 -0.4924  0.3813
   7523SM  H13F 9928   7.765   6.293  12.721  0.0407  0.0010 -0.0770
   7523SM  H13G 9929   7.719   6.275  12.548 -1.9046 -0.8417  0.7712
   7523SM  C14F 9930   7.889   6.155  12.609  0.3817  0.3131  0.3177
   7523SM  H14F 9931   7.895   6.077  12.530 -2.2823  1.3939 -1.0667
   7523SM  H14G 9932   7.928   6.119  12.707  2.1385 -3.9081 -1.7141
   7523SM  C15F 9933   7.991   6.261  12.556  0.7534 -0.0442 -1.0261
   7523SM  H15F 9934   7.965   6.292  12.452  1.1283  0.3633 -1.0007
   7523SM  H15G 9935   8.090   6.211  12.563  0.0905 -1.3055 -0.4115
   7523SM  C16F 9936   8.011   6.391  12.646  0.4093  0.4139 -0.2156
   7523SM  H16F 9937   8.012   6.363  12.754  1.2650  0.0083 -0.3197
   7523SM  H16G 9938   7.923   6.457  12.637  0.7627  1.1908  1.5443
   7523SM  C17F 9939   8.142   6.458  12.619 -0.1240  0.2616 -0.4146
   7523SM  H17F 9940   8.140   6.490  12.512 -1.9018  1.9094  0.0517
   7523SM  H17G 9941   8.221   6.381  12.628 -0.5567 -0.2842 -1.1386
   7523SM  C18F 9942   8.176   6.583  12.706 -0.0434  0.0402  0.1669
   7523SM  H18F 9943   8.281   6.615  12.688 -0.2755 -0.2106 -1.9019
   7523SM  H18G 9944   8.164   6.562  12.814  2.4141 -0.0479  0.4852
   7523SM  C19F 9945   8.090   6.707  12.683 -0.7515 -0.0206  0.3655
   7523SM  H19F 9946   7.985   6.675  12.700 -0.4434 -1.4569 -0.3304
   7523SM  H19G 9947   8.098   6.735  12.576 -0.4379 -0.2690  0.3239
   7523SM  C20F 9948   8.135   6.830  12.768 -0.5562 -0.6205  0.1432
   7523SM  H20F 9949   8.225   6.875  12.722 -0.3411 -0.6226  0.5604
   7523SM  H20G 9950   8.149   6.798  12.873  1.0917 -2.8495 -0.6719
   7523SM  C21F 9951   8.034   6.945  12.771  0.3894 -0.0810  0.0841
   7523SM  H21F 9952   7.931   6.908  12.752 -0.2545  1.3753  0.6407
   7523SM  H21G 9953   8.060   7.019  12.692  0.4291 -0.8843 -0.6748
   7523SM  C22F 9954   8.019   7.029  12.904 -0.2390  0.5968  0.2926
   7523SM  H22F 9955   8.100   7.106  12.897 -1.4764  1.8590 -0.6209
   7523SM  H22G 9956   8.047   6.962  12.988 -1.1674 -0.9744 -0.6132
   7523SM  C23F 9957   7.880   7.079  12.940 -1.1102  0.1160 -0.8693
   7523SM  H23F 9958   7.891   7.148  13.027 -2.2466 -0.5202 -0.1955
   7523SM  H23G 9959   7.814   7.002  12.984  0.0242  1.0536  2.8111
   7523SM  H23H 9960   7.832   7.136  12.857 -3.3014  1.6759  1.3139
   7623SM     N 9961   7.905   5.899  14.330 -0.0486  0.3861  0.9414
   7623SM   C15 9962   8.013   5.826  14.398 -0.0362 -0.3068  0.3794
   7623SM  H15A 9963   8.073   5.892  14.459 -0.7521  0.4185  0.3246
   7623SM  H15B 9964   8.090   5.799  14.327  0.2019  1.4324 -0.0714
   7623SM  H15C 9965   7.968   5.740  14.445  1.2080 -0.7886  0.7066
   7623SM   C14 9966   7.814   5.798  14.259 -0.5764 -0.1825 -0.0610
   7623SM  H14A 9967   7.862   5.769  14.166  0.2930  1.2031 -0.0811
   7623SM  H14B 9968   7.722   5.843  14.226  1.1373 -0.6272 -7.1418
   7623SM  H14C 9969   7.788   5.715  14.323 -0.0359  0.2604  0.7455
   7623SM   C13 9970   7.831   5.962  14.448 -0.2673 -0.1680  0.7497
   7623SM  H13A 9971   7.752   6.027  14.416 -0.3284 -0.4631  0.3019
   7623SM  H13B 9972   7.892   6.024  14.513  2.2078 -2.3844  0.7567
   7623SM  H13C 9973   7.792   5.885  14.513 -0.5136  0.3283  1.1931
   7623SM   C12 9974   7.943   6.007  14.236 -0.2734 -0.5071 -0.4883
   7623SM  H12A 9975   7.999   6.069  14.303 -1.2894  0.1651 -0.2380
   7623SM  H12B 9976   7.851   6.056  14.207 -0.0548 -0.4988 -1.1889
   7623SM   C11 9977   8.022   5.974  14.105 -0.2203  0.3392  0.0749
   7623SM  H11A 9978   8.038   6.061  14.038  1.8828 -1.9326 -2.6565
   7623SM  H11B 9979   7.951   5.905  14.053  0.3537  0.3715 -0.7630
   7623SM     P 9980   8.254   6.015  14.193 -0.3611 -0.6008 -0.1696
   7623SM   O13 9981   8.237   6.033  14.340 -0.1459  0.3362  0.4070
   7623SM   O14 9982   8.390   5.964  14.152  0.6644 -0.2553 -0.4394
   7623SM   O11 9983   8.234   6.156  14.116 -0.4351  1.0479 -0.6871
   7623SM   O12 9984   8.146   5.910  14.136 -0.1687 -0.4776 -0.2263
   7623SM   C1S 9985   8.266   6.190  13.981  0.0012 -0.4023 -0.6077
   7623SM   H1S 9986   8.167   6.192  13.930 -0.2334 -2.1812 -0.3060
   7623SM   H1T 9987   8.323   6.103  13.943 -0.3512 -0.5940 -0.7032
   7623SM    NF 9988   8.391   6.328  13.826  0.4809  0.0508  0.3722
   7623SM   HNF 9989   8.485   6.321  13.796  0.3893  0.8243 -0.1096
   7623SM   C2S 9990   8.355   6.317  13.967 -0.3283  0.9396 -0.7338
   7623SM   H2S 9991   8.288   6.402  13.993  0.4930  1.4071 -0.1032
   7623SM   C3S 9992   8.475   6.320  14.068  0.1024 -0.4685  0.1880
   7623SM   H3S 9993   8.550   6.241  14.046  1.0751  0.8481 -1.5382
   7623SM    O3 9994   8.444   6.308  14.208  0.1632  0.0690  0.1861
   7623SM   HO3 9995   8.366   6.251  14.217  0.9971 -0.7745  2.8842
   7623SM   C4S 9996   8.554   6.448  14.049 -0.0257 -0.4830  0.1361
   7623SM   H4S 9997   8.658   6.422  14.025  0.3377 -0.0980  1.2603
   7623SM   C5S 9998   8.516   6.574  14.060  0.1320  0.4026  0.2380
   7623SM   H5S 9999   8.412   6.594  14.092 -1.4749 -3.1826 -2.1304
   7623SM   C6S10000   8.600   6.694  14.039  0.2886 -0.4982  0.2298
   7623SM   H6S10001   8.683   6.666  13.970 -1.8075 -1.9453 -1.8951
   7623SM   H6T10002   8.642   6.733  14.134 -1.6418 -1.2352  1.4430
   7623SM   C7S10003   8.512   6.797  13.975 -0.4850  0.2983 -0.0221
   7623SM   H7S10004   8.554   6.894  14.009  0.2949  0.2108 -0.6832
   7623SM   H7T10005   8.412   6.790  14.023 -1.0251 -3.2798 -1.3593
   7623SM   C8S10006   8.498   6.789  13.821  0.2828 -0.4487 -0.3235
   7623SM   H8S10007   8.450   6.692  13.795 -1.5824  0.0978  0.9070
   7623SM   H8T10008   8.593   6.794  13.762 -0.2623 -1.3441 -1.3200
   7623SM   C9S10009   8.425   6.912  13.765  0.4008 -0.6334  0.5118
   7623SM   H9S10010   8.467   7.004  13.811 -0.8825 -0.4477  1.3553
   7623SM   H9T10011   8.323   6.905  13.808  0.3850 -1.1495  0.4025
   7623SM  C10S10012   8.432   6.917  13.607 -0.2320  0.2295  0.0353
   7623SM  H10S10013   8.534   6.948  13.574  0.0512 -1.3905 -0.7248
   7623SM  H10T10014   8.369   7.001  13.570 -1.4735 -0.2296  1.0399
   7623SM  C11S10015   8.359   6.797  13.542 -0.3710 -0.2280  0.0062
   7623SM  H11S10016   8.275   6.792  13.615 -0.1745  3.3749  0.6498
   7623SM  H11T10017   8.416   6.702  13.549 -0.9541 -0.9632 -3.3051
   7623SM  C12S10018   8.327   6.825  13.396  0.0769  0.4879 -0.1955
   7623SM  H12S10019   8.289   6.926  13.372 -2.8546 -0.6510 -0.7317
   7623SM  H12T10020   8.250   6.755  13.358 -1.3403 -0.0996  3.3599
   7623SM  C13S10021   8.456   6.806  13.311  0.3700 -0.2732 -0.6319
   7623SM  H13S10022   8.508   6.713  13.343  0.1115 -0.0294  0.5656
   7623SM  H13T10023   8.524   6.889  13.340 -1.5102  0.2877  2.7608
   7623SM  C14S10024   8.427   6.799  13.163  0.2555  0.0885 -0.1035
   7623SM  H14S10025   8.333   6.746  13.136  0.2794  0.1484 -0.3121
   7623SM  H14T10026   8.514   6.753  13.113 -1.4076 -0.5983 -2.5505
   7623SM  C15S10027   8.404   6.941  13.100 -0.2893 -0.2402 -0.1102
   7623SM  H15S10028   8.315   6.975  13.158 -0.3088 -0.1748 -0.1771
   7623SM  H15T10029   8.380   6.916  12.995 -1.1028 -1.5428  0.3544
   7623SM  C16S10030   8.525   7.031  13.112  0.1835 -0.5637  0.5643
   7623SM  H16S10031   8.619   6.994  13.067 -1.2577 -0.7973 -2.4753
   7623SM  H16T10032   8.550   7.038  13.220 -1.8834  0.2802  1.0251
   7623SM  C17S10033   8.486   7.172  13.062 -0.2678 -0.2947  0.3831
   7623SM  H17S10034   8.409   7.202  13.136  0.8527  2.0292  0.7292
   7623SM  H17T10035   8.466   7.168  12.953  0.4720 -0.3260  0.2441
   7623SM  C18S10036   8.605   7.268  13.086  0.9485  0.8361  0.4331
   7623SM  H18S10037   8.686   7.254  13.011  2.2850  0.4946  1.8834
   7623SM  H18T10038   8.639   7.250  13.190  1.5713 -1.2302 -0.0863
   7623SM  H18U10039   8.561   7.370  13.073 -3.0241 -0.6907  0.6575
   7623SM   C1F10040   8.293   6.350  13.742  0.9087  0.1511 -0.0865
   7623SM    OF10041   8.179   6.372  13.782  0.0918 -0.6992 -0.1097
   7623SM   C2F10042   8.326   6.363  13.599 -0.1561  0.0775  0.4111
   7623SM   H2F10043   8.370   6.268  13.563 -0.2147 -1.0068  2.9838
   7623SM   H2G10044   8.409   6.436  13.584  1.1576 -1.3559  0.3948
   7623SM   C3F10045   8.203   6.408  13.518  0.5099  0.0633 -0.0190
   7623SM   H3F10046   8.171   6.508  13.555  2.1320  0.7486 -0.3763
   7623SM   H3G10047   8.122   6.332  13.516  0.0668  0.5356 -0.2181
   7623SM   C4F10048   8.217   6.436  13.370  0.1227 -0.2524 -0.0758
   7623SM   H4F10049   8.277   6.355  13.323  0.9924  0.3628 -0.0534
   7623SM   H4G10050   8.274   6.530  13.361  0.5016 -0.3912  0.7840
   7623SM   C5F10051   8.080   6.446  13.296  0.0659  0.0328 -0.1281
   7623SM   H5F10052   7.998   6.494  13.354  0.6578  0.9584 -0.0259
   7623SM   H5G10053   8.048   6.345  13.261 -0.6431  0.3061 -0.2936
   7623SM   C6F10054   8.096   6.529  13.165  0.6892 -0.1169 -0.4522
   7623SM   H6F10055   8.165   6.478  13.095  1.0064 -2.2979  1.3439
   7623SM   H6G10056   8.156   6.621  13.183  0.8035 -0.6579  2.5135
   7623SM   C7F10057   7.962   6.561  13.101  0.0104  0.2814 -1.0284
   7623SM   H7F10058   7.986   6.590  12.996  0.1090  0.1958 -1.0301
   7623SM   H7G10059   7.902   6.636  13.156 -1.9993 -2.0504  0.1463
   7623SM   C8F10060   7.854   6.453  13.115 -0.3324 -0.2013  0.6682
   7623SM   H8F10061   7.811   6.438  13.216 -1.5273  1.6520  0.4932
   7623SM   H8G10062   7.901   6.358  13.083  0.2431  0.4823 -0.6320
   7623SM   C9F10063   7.729   6.478  13.031  0.4702 -0.5099 -0.1753
   7623SM   H9F10064   7.692   6.385  12.982  0.2666  0.4172 -1.8521
   7623SM   H9G10065   7.753   6.548  12.948  1.1968 -0.9432 -0.3458
   7623SM  C10F10066   7.610   6.543  13.105 -0.6952  0.4636  0.0196
   7623SM  H10F10067   7.638   6.645  13.140  0.9354 -0.3740  1.2734
   7623SM  H10G10068   7.572   6.487  13.193  0.9447  1.3615  1.3474
   7623SM  C11F10069   7.495   6.546  12.998  0.3302 -0.5054 -0.2274
   7623SM  H11F10070   7.467   6.439  12.994 -0.7911 -0.1925 -2.2003
   7623SM  H11G10071   7.541   6.570  12.900  0.3386  0.9043  0.0894
   7623SM  C12F10072   7.382   6.641  13.027 -0.3049  0.0134 -0.2010
   7623SM  H12F10073   7.349   6.630  13.132  0.1791 -1.8543 -0.2093
   7623SM  H12G10074   7.302   6.611  12.956  0.4824 -1.5225 -0.4667
   7623SM  C13F10075   7.412   6.792  13.003  0.3371 -0.5145 -0.2325
   7623SM  H13F10076   7.474   6.827  13.087  0.3704  0.7135 -0.7398
   7623SM  H13G10077   7.312   6.842  13.005  0.2566 -0.6996  1.3437
   7623SM  C14F10078   7.498   6.820  12.879 -0.0842 -0.1323  0.2963
   7623SM  H14F10079   7.491   6.744  12.798 -0.2497 -0.3408  0.5054
   7623SM  H14G10080   7.605   6.818  12.911  0.1804 -1.4140 -0.6125
   7623SM  C15F10081   7.477   6.954  12.811  0.0684  0.3084  0.0557
   7623SM  H15F10082   7.474   7.030  12.892 -0.8346 -0.7706  1.0781
   7623SM  H15G10083   7.381   6.955  12.755 -0.4738  0.6710  0.9787
   7623SM  C16F10084   7.591   7.006  12.720 -0.1286 -0.4456  0.8638
   7623SM  H16F10085   7.627   6.923  12.656  1.2180  1.9994 -1.7604
   7623SM  H16G10086   7.671   7.044  12.787 -0.4470  0.7322  0.6013
   7623SM  C17F10087   7.554   7.116  12.619 -0.6254  0.3625 -0.7039
   7623SM  H17F10088   7.517   7.205  12.674 -1.2895 -0.1811 -0.2615
   7623SM  H17G10089   7.469   7.078  12.559  0.0959 -0.6126 -1.1427
   7623SM  C18F10090   7.670   7.152  12.522  0.8244 -0.9543 -0.2346
   7623SM  H18F10091   7.756   7.165  12.592 -1.2634  2.7789  1.9687
   7623SM  H18G10092   7.645   7.254  12.486  1.0436 -0.9283 -0.3112
   7623SM  C19F10093   7.684   7.064  12.404 -0.6667  0.7382  0.1379
   7623SM  H19F10094   7.673   6.959  12.438 -0.1768  1.0170  1.1797
   7623SM  H19G10095   7.789   7.072  12.367 -0.4804  1.3512  0.7662
   7623SM  C20F10096   7.587   7.097  12.285  0.2996 -0.1395 -0.3680
   7623SM  H20F10097   7.486   7.106  12.331  0.5434  0.6966  0.0268
   7623SM  H20G10098   7.595   7.018  12.208 -0.3618 -1.0360  0.4555
   7623SM  C21F10099   7.622   7.224  12.209  0.9999 -0.3504 -0.2595
   7623SM  H21F10100   7.730   7.223  12.184  0.9626  0.7040 -0.4983
   7623SM  H21G10101   7.591   7.308  12.274 -0.2956  0.3558 -1.7301
   7623SM  C22F10102   7.553   7.236  12.071 -0.2451  0.7006  0.2752
   7623SM  H22F10103   7.445   7.265  12.072 -1.4725 -3.1113 -2.4832
   7623SM  H22G10104   7.557   7.137  12.022 -2.3959  0.4564  0.4882
   7623SM  C23F10105   7.633   7.330  11.988  0.1956 -0.6053  1.2508
   7623SM  H23F10106   7.662   7.421  12.045  0.0732  0.2442  0.0023
   7623SM  H23G10107   7.585   7.352  11.890 -1.2126 -1.7075  1.6490
   7623SM  H23H10108   7.734   7.293  11.959  0.2436  0.5170 -0.1285
   7723SM     N10109   0.221   2.026  14.310 -0.1732 -0.3216  0.4407
   7723SM   C1510110   0.369   2.008  14.335  0.4128 -0.4591  0.2326
   7723SM  H15A10111   0.419   1.982  14.242  1.5175 -0.0529  0.6960
   7723SM  H15B10112   0.383   1.930  14.409  2.0274  0.0706  0.5236
   7723SM  H15C10113   0.414   2.098  14.373 -0.1976  0.1723 -0.5048
   7723SM   C1410114   0.167   1.904  14.243  0.2443 -0.5875 -0.4298
   7723SM  H14A10115   0.220   1.886  14.150  3.1370 -1.0400  1.1808
   7723SM  H14B10116   0.060   1.916  14.234  0.1539  1.0643  1.8659
   7723SM  H14C10117   0.184   1.814  14.299 -1.2462 -1.1435 -0.8228
   7723SM   C1310118   0.142   2.049  14.429  0.5454  0.3120  0.0166
   7723SM  H13A10119   0.038   2.074  14.412  0.0707 -1.0880  0.6778
   7723SM  H13B10120   0.175   2.136  14.484  1.2200 -0.5271  0.9757
   7723SM  H13C10121   0.137   1.956  14.484 -1.2149  0.5373  0.3011
   7723SM   C1210122   0.205   2.144  14.208  0.2039 -0.4020 -0.5979
   7723SM  H12A10123   0.260   2.225  14.254 -1.0045 -1.3118  2.7709
   7723SM  H12B10124   0.103   2.177  14.219  0.1581 -0.0355 -1.9348
   7723SM   C1110125   0.247   2.125  14.064 -0.0800 -0.2309  0.2216
   7723SM  H11A10126   0.208   2.207  14.000 -0.4378  0.7812  1.6764
   7723SM  H11B10127   0.196   2.033  14.030 -3.1512  0.7222  1.8056
   7723SM     P10128   0.482   2.031  13.997 -0.1727  0.0872 -0.2899
   7723SM   O1310129   0.623   2.059  14.037 -0.6624 -0.4182 -0.4566
   7723SM   O1410130   0.438   1.892  14.024 -0.7071 -0.2569 -0.2944
   7723SM   O1110131   0.460   2.059  13.843  0.0102 -0.4127  0.2885
   7723SM   O1210132   0.388   2.135  14.062 -0.0520 -0.3448 -0.4894
   7723SM   C1S10133   0.504   2.183  13.778  0.1784  0.3192 -0.0663
   7723SM   H1S10134   0.613   2.166  13.764 -0.2312 -4.6752  0.7081
   7723SM   H1T10135   0.489   2.269  13.847  0.2400 -0.4474  0.9313
   7723SM    NF10136   0.472   2.338  13.575 -0.1103 -0.3483 -0.3153
   7723SM   HNF10137   0.412   2.417  13.581  0.0088 -0.2151 -0.8185
   7723SM   C2S10138   0.433   2.209  13.641  0.9404  0.0738 -0.1339
   7723SM   H2S10139   0.476   2.135  13.570  0.5151 -2.7939  2.4043
   7723SM   C3S10140   0.285   2.203  13.650  0.2217  0.0232  0.2763
   7723SM   H3S10141   0.248   2.289  13.711  0.9679  0.3418  0.2949
   7723SM    O310142   0.240   2.076  13.702 -0.2110  0.6253 -0.8628
   7723SM   HO310143   0.309   2.042  13.760 -0.6333  0.6144 -0.3660
   7723SM   C4S10144   0.213   2.232  13.516  0.1318  0.4434 -0.4632
   7723SM   H4S10145   0.256   2.179  13.429 -0.7556  0.8508 -1.1754
   7723SM   C5S10146   0.111   2.315  13.488  0.0383 -0.5188  0.1131
   7723SM   H5S10147   0.068   2.372  13.571 -1.3050 -1.0356 -0.1984
   7723SM   C6S10148   0.057   2.332  13.347 -0.0455  0.3359  0.2320
   7723SM   H6S10149   0.111   2.267  13.275 -0.4612 -0.0456  0.2608
   7723SM   H6T10150   0.064   2.439  13.320 -3.1762  1.3297  2.8130
   7723SM   C7S10151  -0.085   2.299  13.322  0.5412 -0.2620  0.2963
   7723SM   H7S10152  -0.142   2.345  13.405 -0.5540 -0.1384 -0.5085
   7723SM   H7T10153  -0.105   2.190  13.329  1.0863 -0.3449  0.6897
   7723SM   C8S10154  -0.132   2.349  13.187  0.7446  0.1236 -0.4248
   7723SM   H8S10155  -0.113   2.458  13.178 -2.1989  0.7007 -0.4427
   7723SM   H8T10156  -0.242   2.340  13.183  0.7526  0.1690 -0.8233
   7723SM   C9S10157  -0.077   2.285  13.054  0.0598 -0.5096 -0.0673
   7723SM   H9S10158  -0.112   2.180  13.049  3.2390 -1.6278 -1.5864
   7723SM   H9T10159   0.034   2.294  13.054 -0.0693  1.8105 -1.3631
   7723SM  C10S10160  -0.124   2.360  12.925  0.1497 -0.0959 -0.6326
   7723SM  H10S10161  -0.094   2.301  12.836 -0.1900  1.5935 -1.9295
   7723SM  H10T10162  -0.054   2.446  12.936  1.3574 -1.3043  1.9315
   7723SM  C11S10163  -0.270   2.403  12.926  0.6977  0.3086 -0.3368
   7723SM  H11S10164  -0.257   2.506  12.964  1.9495  0.8896 -2.1913
   7723SM  H11T10165  -0.344   2.353  12.992 -0.5216  0.4558 -1.5397
   7723SM  C12S10166  -0.326   2.405  12.780 -0.3606  0.4872 -0.1451
   7723SM  H12S10167  -0.346   2.301  12.749 -0.6733  0.5876 -0.2859
   7723SM  H12T10168  -0.243   2.452  12.722  0.5661  1.5680  1.9596
   7723SM  C13S10169  -0.451   2.492  12.759  0.1714 -0.2450  0.0497
   7723SM  H13S10170  -0.436   2.586  12.815  3.1973 -0.0773 -0.8618
   7723SM  H13T10171  -0.532   2.438  12.814  0.7870  1.4017  2.7281
   7723SM  C14S10172  -0.490   2.508  12.620  0.3995 -0.2659  0.3108
   7723SM  H14S10173  -0.479   2.410  12.568  0.5284 -0.1104  0.0427
   7723SM  H14T10174  -0.426   2.579  12.564 -0.0551  0.2919  0.4915
   7723SM  C15S10175  -0.645   2.545  12.610  0.4782 -0.3467  0.0479
   7723SM  H15S10176  -0.705   2.465  12.657 -0.6485  0.2510 -0.3377
   7723SM  H15T10177  -0.666   2.556  12.501  1.9644 -2.6370 -0.5505
   7723SM  C16S10178  -0.682   2.685  12.675  0.3952 -1.1508  0.2009
   7723SM  H16S10179  -0.605   2.759  12.643  0.9068 -1.5592  0.4639
   7723SM  H16T10180  -0.660   2.669  12.783 -0.9309 -1.6697  0.4089
   7723SM  C17S10181  -0.822   2.742  12.646 -0.2913 -0.4062  0.0197
   7723SM  H17S10182  -0.840   2.746  12.537 -0.9568 -1.5872  0.0674
   7723SM  H17T10183  -0.832   2.847  12.681 -1.2057 -0.4784  0.0055
   7723SM  C18S10184  -0.940   2.656  12.703  0.0183  0.2367  0.6640
   7723SM  H18S10185  -1.038   2.703  12.683 -1.0313 -0.0363  4.3812
   7723SM  H18T10186  -0.920   2.634  12.810 -1.9340 -4.6453  0.3109
   7723SM  H18U10187  -0.933   2.555  12.656 -0.2321 -1.0684  3.2477
   7723SM   C1F10188   0.598   2.367  13.540 -0.3259 -0.2751  0.0170
   7723SM    OF10189   0.687   2.286  13.570 -0.3785  0.5611  0.1543
   7723SM   C2F10190   0.625   2.492  13.458 -0.4402 -0.1733 -0.4045
   7723SM   H2F10191   0.631   2.583  13.521 -2.9632  1.3498 -2.1783
   7723SM   H2G10192   0.531   2.508  13.400 -0.3098 -0.2919 -0.6481
   7723SM   C3F10193   0.752   2.465  13.376 -0.2313 -0.1255 -0.1600
   7723SM   H3F10194   0.738   2.366  13.329 -1.6244  0.2389 -0.5558
   7723SM   H3G10195   0.840   2.454  13.443  0.1430  1.4635 -0.3424
   7723SM   C4F10196   0.792   2.575  13.264 -0.4579  0.5484 -0.2318
   7723SM   H4F10197   0.802   2.670  13.321 -2.3670 -0.4585  1.9781
   7723SM   H4G10198   0.711   2.593  13.191 -0.3608  0.2231 -0.4216
   7723SM   C5F10199   0.939   2.540  13.215  0.1484 -0.1109  0.6402
   7723SM   H5F10200   0.936   2.433  13.184  0.5774 -0.7683  2.6974
   7723SM   H5G10201   1.018   2.565  13.289 -0.1713  2.9064  0.0801
   7723SM   C6F10202   0.977   2.609  13.081 -0.9049  0.2686 -0.0006
   7723SM   H6F10203   0.988   2.717  13.103  0.1526  0.0871  0.3956
   7723SM   H6G10204   0.902   2.583  13.002 -0.9682 -0.2172  0.2207
   7723SM   C7F10205   1.120   2.581  13.019  0.0999  0.3247 -0.2203
   7723SM   H7F10206   1.201   2.593  13.095  0.3619 -2.9743  0.1577
   7723SM   H7G10207   1.133   2.634  12.922 -1.0278  0.5373 -0.2617
   7723SM   C8F10208   1.131   2.431  12.981 -0.3335 -0.0412 -0.2216
   7723SM   H8F10209   1.050   2.402  12.911 -1.3194 -0.3498  1.0178
   7723SM   H8G10210   1.114   2.372  13.073  0.6857 -1.3248 -0.8112
   7723SM   C9F10211   1.274   2.393  12.924  0.0346 -0.0478 -0.0309
   7723SM   H9F10212   1.273   2.282  12.921  0.3879 -0.0762  0.6487
   7723SM   H9G10213   1.364   2.421  12.984  0.1876 -0.8588  0.1274
   7723SM  C10F10214   1.288   2.451  12.778 -0.1243  0.3668  0.5750
   7723SM  H10F10215   1.325   2.556  12.780  1.7537 -0.0960 -2.4985
   7723SM  H10G10216   1.180   2.461  12.755 -0.7158 -0.8673  2.5766
   7723SM  C11F10217   1.356   2.354  12.678  0.8366  0.7583 -0.0779
   7723SM  H11F10218   1.311   2.253  12.692 -1.8762  1.6550 -1.4526
   7723SM  H11G10219   1.464   2.334  12.693  0.5505 -0.1484  0.8732
   7723SM  C12F10220   1.322   2.409  12.541  0.4691  0.1693 -0.5620
   7723SM  H12F10221   1.355   2.514  12.526  0.0404  0.9640  3.0618
   7723SM  H12G10222   1.213   2.396  12.529  0.6992  0.1133 -3.0513
   7723SM  C13F10223   1.391   2.333  12.421 -0.1713 -0.8108 -0.2019
   7723SM  H13F10224   1.375   2.225  12.439 -1.2002 -0.8011 -0.9440
   7723SM  H13G10225   1.500   2.353  12.428 -0.2962 -0.3134  0.4420
   7723SM  C14F10226   1.340   2.385  12.290 -0.6114  0.8554 -0.0204
   7723SM  H14F10227   1.335   2.496  12.289  2.4080  1.0649 -1.7556
   7723SM  H14G10228   1.242   2.335  12.273 -0.1036 -0.2254  0.1435
   7723SM  C15F10229   1.424   2.344  12.169 -0.3363 -0.3428 -0.3516
   7723SM  H15F10230   1.435   2.235  12.187 -0.9046 -0.6675 -1.8031
   7723SM  H15G10231   1.516   2.406  12.172 -0.9569  0.6040  2.7212
   7723SM  C16F10232   1.354   2.381  12.032  0.0322  0.2456 -0.7137
   7723SM  H16F10233   1.333   2.489  12.046 -1.0082 -0.1223  0.8443
   7723SM  H16G10234   1.253   2.334  12.041 -1.6958  3.5734 -1.1408
   7723SM  C17F10235   1.427   2.342  11.907 -0.4733  0.2949  0.4013
   7723SM  H17F10236   1.448   2.233  11.906  1.4011  0.6052  1.4542
   7723SM  H17G10237   1.523   2.398  11.902 -0.9317  1.1251  0.6525
   7723SM  C18F10238   1.350   2.375  11.781 -0.8645  0.1129  0.3117
   7723SM  H18F10239   1.328   2.483  11.766 -0.0277  0.1365 -0.8212
   7723SM  H18G10240   1.254   2.319  11.784  0.0157 -1.4322  0.7001
   7723SM  C19F10241   1.429   2.329  11.650  0.4322 -0.0356 -0.0274
   7723SM  H19F10242   1.431   2.218  11.654  0.7410 -0.0354 -0.1856
   7723SM  H19G10243   1.533   2.366  11.655  0.4973 -0.0539 -1.1255
   7723SM  C20F10244   1.356   2.379  11.522 -0.4371 -0.3397 -1.0036
   7723SM  H20F10245   1.319   2.483  11.538 -0.8717 -0.7118  0.4850
   7723SM  H20G10246   1.261   2.324  11.510 -1.3744  0.6631  1.2856
   7723SM  C21F10247   1.442   2.377  11.397  0.5667  0.4855 -0.6262
   7723SM  H21F10248   1.537   2.429  11.421 -0.4410  1.9549  0.2605
   7723SM  H21G10249   1.403   2.425  11.304 -0.5677  0.3534 -0.2324
   7723SM  C22F10250   1.469   2.237  11.343  0.4246  0.1573  0.0727
   7723SM  H22F10251   1.370   2.187  11.335  1.2788 -1.6257  0.0377
   7723SM  H22G10252   1.519   2.182  11.426  0.8974  2.0039  1.0836
   7723SM  C23F10253   1.554   2.227  11.219 -0.2259  0.7328 -0.1520
   7723SM  H23F10254   1.656   2.265  11.238 -0.0303  0.1931 -0.0848
   7723SM  H23G10255   1.507   2.283  11.136 -2.2676 -0.8943 -0.1863
   7723SM  H23H10256   1.547   2.119  11.193 -1.1621  0.7352  0.0536
   7823SM     N10257   2.200   1.131  13.898  0.3920  0.2693  0.2172
   7823SM   C1510258   2.153   0.998  13.965 -0.5007 -0.3807 -0.3533
   7823SM  H15A10259   2.091   0.943  13.896  1.1796 -0.1882 -2.1041
   7823SM  H15B10260   2.092   1.026  14.050 -0.8684  0.1581 -0.7867
   7823SM  H15C10261   2.235   0.939  14.002 -0.2260  0.3879  0.3003
   7823SM   C1410262   2.276   1.081  13.781 -0.2480 -0.1607 -0.1297
   7823SM  H14A10263   2.207   1.026  13.718 -0.0312 -0.5109 -0.0677
   7823SM  H14B10264   2.348   1.004  13.805 -0.3261 -0.4014 -0.6316
   7823SM  H14C10265   2.337   1.159  13.739 -1.1362  0.6181  0.0166
   7823SM   C1310266   2.075   1.200  13.851  0.0138 -0.8253 -0.3746
   7823SM  H13A10267   2.024   1.123  13.796  1.5644 -1.9584 -0.3006
   7823SM  H13B10268   2.095   1.296  13.806  0.8782 -0.1066  1.4270
   7823SM  H13C10269   2.010   1.217  13.935 -0.8036 -1.4743 -0.8567
   7823SM   C1210270   2.292   1.210  13.986  0.7523  0.0765 -0.5381
   7823SM  H12A10271   2.227   1.251  14.062  0.2799 -0.8311 -0.4469
   7823SM  H12B10272   2.334   1.293  13.930  2.7347  0.2666  1.1197
   7823SM   C1110273   2.421   1.145  14.039  0.1951 -0.7582 -0.7107
   7823SM  H11A10274   2.403   1.044  14.082  2.1744 -1.5042 -1.5182
   7823SM  H11B10275   2.454   1.218  14.117 -2.9313  1.7294 -1.5465
   7823SM     P10276   2.606   1.257  13.904 -0.1987 -0.2256 -0.2727
   7823SM   O1310277   2.547   1.384  13.952  0.2111  0.1328  0.2684
   7823SM   O1410278   2.741   1.223  13.954 -0.2295 -0.3296  0.1523
   7823SM   O1110279   2.608   1.262  13.740  0.5667 -0.2395  0.1537
   7823SM   O1210280   2.510   1.137  13.925  0.5752 -0.1548  0.1279
   7823SM   C1S10281   2.614   1.140  13.660  0.8610  1.4863 -0.3885
   7823SM   H1S10282   2.516   1.089  13.646  3.3750 -3.2723 -3.5587
   7823SM   H1T10283   2.686   1.065  13.699 -0.0432  1.1261  0.6281
   7823SM    NF10284   2.635   1.081  13.422 -0.0149  0.1934 -0.0868
   7823SM   HNF10285   2.723   1.052  13.385  0.8550 -2.3659  3.5091
   7823SM   C2S10286   2.658   1.182  13.519 -0.6755  0.5897  0.7195
   7823SM   H2S10287   2.604   1.270  13.479 -0.3897  0.4638  0.0392
   7823SM   C3S10288   2.809   1.231  13.528  0.0187 -0.0443 -0.3239
   7823SM   H3S10289   2.861   1.140  13.565  1.1930  0.6817 -0.1480
   7823SM    O310290   2.843   1.329  13.623 -0.2038  0.2890 -0.7229
   7823SM   HO310291   2.770   1.329  13.685  1.1324 -2.0310  1.0028
   7823SM   C4S10292   2.851   1.270  13.388 -0.6720  0.2904  0.0843
   7823SM   H4S10293   2.901   1.190  13.331  1.8111  1.3673  0.6156
   7823SM   C5S10294   2.833   1.393  13.339 -0.3106 -0.3569  0.9482
   7823SM   H5S10295   2.786   1.472  13.398  0.7264 -0.0640  1.3994
   7823SM   C6S10296   2.873   1.444  13.198  0.5590  0.3182  0.1107
   7823SM   H6S10297   2.958   1.385  13.156  0.0626 -1.2516  1.1974
   7823SM   H6T10298   2.902   1.550  13.212  0.8753 -0.0317  2.7258
   7823SM   C7S10299   2.756   1.420  13.101  0.2524  0.5792  0.4486
   7823SM   H7S10300   2.757   1.492  13.017  0.0751  1.4689  1.1908
   7823SM   H7T10301   2.664   1.431  13.162  0.0068  0.5257  0.0913
   7823SM   C8S10302   2.776   1.278  13.041 -0.5642 -0.3068  0.1929
   7823SM   H8S10303   2.765   1.203  13.123 -1.6624 -1.6954 -1.1595
   7823SM   H8T10304   2.877   1.268  12.997  0.1119  2.6671  0.8350
   7823SM   C9S10305   2.667   1.248  12.940  0.9773  0.8418 -0.2541
   7823SM   H9S10306   2.676   1.313  12.851 -0.7027  2.8362  0.9335
   7823SM   H9T10307   2.567   1.271  12.982  0.5530 -0.3199 -0.6032
   7823SM  C10S10308   2.667   1.100  12.899 -0.3306  0.1413  0.0975
   7823SM  H10S10309   2.640   1.033  12.983  1.0515  0.6666  0.9865
   7823SM  H10T10310   2.773   1.076  12.876 -1.0784 -2.5985 -0.8150
   7823SM  C11S10311   2.582   1.089  12.774  0.0242 -0.3734  0.2397
   7823SM  H11S10312   2.626   1.147  12.690  2.4131 -1.1767  0.8528
   7823SM  H11T10313   2.482   1.125  12.805  0.6043  2.7562 -1.1113
   7823SM  C12S10314   2.565   0.946  12.714  0.5966  0.8936  0.2666
   7823SM  H12S10315   2.484   0.943  12.639  1.5792 -1.2784 -0.7954
   7823SM  H12T10316   2.539   0.870  12.791  0.3391 -0.1992 -0.8671
   7823SM  C13S10317   2.699   0.890  12.640  0.3933 -0.5934  0.2986
   7823SM  H13S10318   2.776   0.868  12.717 -0.4992 -0.0278  1.3755
   7823SM  H13T10319   2.732   0.954  12.555  0.3825 -2.8760 -1.5240
   7823SM  C14S10320   2.677   0.755  12.572 -0.0948  0.1096 -0.8452
   7823SM  H14S10321   2.652   0.683  12.653  0.6476  0.2780 -0.4550
   7823SM  H14T10322   2.783   0.734  12.543  0.2774  1.9742 -0.9539
   7823SM  C15S10323   2.570   0.748  12.465 -0.0746  0.3993 -0.4663
   7823SM  H15S10324   2.607   0.797  12.373  1.1766 -0.8568 -0.6629
   7823SM  H15T10325   2.477   0.794  12.504 -0.5701 -1.2188  0.3746
   7823SM  C16S10326   2.523   0.600  12.444  0.3737  0.3101  0.8222
   7823SM  H16S10327   2.478   0.572  12.542 -0.5070 -0.9100  0.0990
   7823SM  H16T10328   2.613   0.537  12.427  0.4884  0.1963  1.7760
   7823SM  C17S10329   2.440   0.592  12.318  0.3125  0.2131  0.3026
   7823SM  H17S10330   2.514   0.593  12.235 -0.5939  0.1592 -0.5208
   7823SM  H17T10331   2.375   0.682  12.312  0.5568  0.3401 -0.6543
   7823SM  C18S10332   2.352   0.463  12.320 -0.2913 -0.7423 -0.5709
   7823SM  H18S10333   2.414   0.379  12.355  0.7425  0.5667  0.8175
   7823SM  H18T10334   2.300   0.459  12.221 -0.6919 -0.4538 -0.3742
   7823SM  H18U10335   2.269   0.476  12.392  1.4498  1.9748  1.1055
   7823SM   C1F10336   2.517   1.031  13.386  0.0953 -0.1747 -0.7308
   7823SM    OF10337   2.420   1.092  13.423 -0.5990 -0.3945  0.1900
   7823SM   C2F10338   2.514   0.910  13.299  0.1339  0.2000  0.0356
   7823SM   H2F10339   2.514   0.811  13.350 -2.1112 -1.9699 -3.7734
   7823SM   H2G10340   2.608   0.906  13.240  1.1138 -0.4763  1.5777
   7823SM   C3F10341   2.390   0.923  13.205 -0.2350  0.1865 -0.4371
   7823SM   H3F10342   2.393   1.032  13.182 -1.6806  0.1204 -1.0267
   7823SM   H3G10343   2.290   0.923  13.254 -0.2579 -0.0590 -0.4835
   7823SM   C4F10344   2.394   0.843  13.073  0.2199 -0.1896 -0.0401
   7823SM   H4F10345   2.482   0.882  13.017 -1.1171  0.0917 -2.0649
   7823SM   H4G10346   2.300   0.862  13.017 -0.2701 -0.7773  0.5534
   7823SM   C5F10347   2.397   0.687  13.092  0.1457 -0.6727  0.8889
   7823SM   H5F10348   2.315   0.659  13.161  1.8919 -0.5018  3.1648
   7823SM   H5G10349   2.487   0.664  13.154  1.4392 -0.3846 -0.8017
   7823SM   C6F10350   2.393   0.603  12.963  0.0651 -0.2811 -0.3149
   7823SM   H6F10351   2.469   0.627  12.886 -1.6600 -0.1221 -2.0551
   7823SM   H6G10352   2.297   0.635  12.917  0.6037  1.8554 -0.0547
   7823SM   C7F10353   2.391   0.448  12.989  0.7855 -0.8121  0.0778
   7823SM   H7F10354   2.327   0.423  13.076  0.1595 -2.2078 -0.7434
   7823SM   H7G10355   2.501   0.435  12.999  1.0485  1.1209 -0.0112
   7823SM   C8F10356   2.344   0.367  12.859 -0.0597  0.2428  0.3355
   7823SM   H8F10357   2.345   0.259  12.886  0.8972  0.7210  2.4127
   7823SM   H8G10358   2.424   0.378  12.783  0.0689 -1.3182  0.2032
   7823SM   C9F10359   2.209   0.399  12.807 -0.4820 -0.2564 -0.3944
   7823SM   H9F10360   2.207   0.506  12.778  0.7707  1.0989  3.9029
   7823SM   H9G10361   2.134   0.392  12.888 -1.3101 -1.5819 -1.2439
   7823SM  C10F10362   2.164   0.331  12.673  0.6638 -0.9946 -0.0383
   7823SM  H10F10363   2.162   0.220  12.673 -1.0299 -0.9815 -0.4248
   7823SM  H10G10364   2.230   0.375  12.595 -0.1449  1.6214  0.6371
   7823SM  C11F10365   2.021   0.359  12.631  0.7197 -0.0732  0.0935
   7823SM  H11F10366   2.014   0.470  12.621 -0.9599  0.0851  2.2475
   7823SM  H11G10367   1.965   0.325  12.720  0.7427 -2.0943 -0.6203
   7823SM  C12F10368   1.984   0.296  12.499 -0.0619  0.0633  0.1534
   7823SM  H12F10369   2.006   0.187  12.497  3.8365  0.7227 -0.0931
   7823SM  H12G10370   2.062   0.329  12.427 -1.6626 -0.6185 -2.0389
   7823SM  C13F10371   1.853   0.336  12.431 -0.0817 -0.4219  0.2322
   7823SM  H13F10372   1.848   0.359  12.322 -1.6839 -0.5752  0.2509
   7823SM  H13G10373   1.820   0.420  12.496  0.3065 -0.7906  0.9055
   7823SM  C14F10374   1.747   0.232  12.458  0.5386  0.8557  0.0728
   7823SM  H14F10375   1.732   0.199  12.563  0.3559 -0.1359 -0.2532
   7823SM  H14G10376   1.790   0.135  12.424 -2.4259 -1.1555  1.6890
   7823SM  C15F10377   1.609   0.256  12.391 -1.1531 -0.4191 -0.1884
   7823SM  H15F10378   1.575   0.353  12.433 -0.4696  0.0695 -0.7203
   7823SM  H15G10379   1.538   0.181  12.432 -0.3623 -0.6706  0.7691
   7823SM  C16F10380   1.611   0.250  12.240 -0.0528 -0.4994 -0.4541
   7823SM  H16F10381   1.655   0.154  12.204  0.2015  0.2547 -2.2228
   7823SM  H16G10382   1.668   0.334  12.196 -1.7382  0.8745 -0.1059
   7823SM  C17F10383   1.468   0.243  12.185 -0.0605  0.5596 -0.0641
   7823SM  H17F10384   1.416   0.320  12.246  2.2036  0.7900  1.6953
   7823SM  H17G10385   1.417   0.151  12.220 -0.2115  0.5539 -0.2985
   7823SM  C18F10386   1.458   0.265  12.037 -0.7695  0.3006 -0.2696
   7823SM  H18F10387   1.508   0.359  12.006  0.5076 -0.8819 -2.0263
   7823SM  H18G10388   1.351   0.280  12.012 -1.4348 -0.1635  2.0249
   7823SM  C19F10389   1.512   0.141  11.954  0.4934 -0.1388 -0.4535
   7823SM  H19F10390   1.440   0.058  11.975 -0.5519  0.4174 -1.6633
   7823SM  H19G10391   1.621   0.119  11.955  1.1930  2.9690 -0.1731
   7823SM  C20F10392   1.505   0.176  11.802 -0.4562 -0.1275 -0.0426
   7823SM  H20F10393   1.565   0.268  11.786  2.7641 -1.8341  1.4150
   7823SM  H20G10394   1.398   0.196  11.778 -1.6607 -1.6761  3.3243
   7823SM  C21F10395   1.558   0.072  11.700  0.6239 -0.0364 -0.2260
   7823SM  H21F10396   1.656   0.041  11.741  0.5635  0.4416  0.3028
   7823SM  H21G10397   1.568   0.110  11.596 -1.1252 -1.0958 -0.8218
   7823SM  C22F10398   1.479  -0.060  11.688  0.3187 -0.5858 -0.1592
   7823SM  H22F10399   1.378  -0.027  11.655  0.6910  0.4109 -0.3189
   7823SM  H22G10400   1.468  -0.095  11.793  0.4226 -0.4573 -0.1052
   7823SM  C23F10401   1.535  -0.165  11.587 -0.5565 -0.3014 -0.3329
   7823SM  H23F10402   1.473  -0.256  11.600 -2.3419  0.9316  0.1407
   7823SM  H23G10403   1.646  -0.174  11.594 -0.0967  3.1890 -1.1300
   7823SM  H23H10404   1.518  -0.129  11.483  1.3231  1.4570 -0.0930
   7923SM     N10405   6.901   7.870  14.776  0.7503  0.4191  0.1434
   7923SM   C1510406   6.989   7.890  14.889 -0.6238 -0.2289  0.0221
   7923SM  H15A10407   6.989   7.992  14.926  0.9769 -1.3110  3.4027
   7923SM  H15B10408   7.091   7.862  14.868 -0.5212 -1.3234  1.8172
   7923SM  H15C10409   6.961   7.830  14.974 -4.7312  0.9481 -0.2856
   7923SM   C1410410   6.880   7.718  14.771 -0.1717  0.2387 -0.1432
   7923SM  H14A10411   6.863   7.676  14.869  0.0646  0.9830  0.2209
   7923SM  H14B10412   6.971   7.665  14.748  0.9476  1.1962  1.8077
   7923SM  H14C10413   6.805   7.686  14.700 -0.2862 -0.3849  0.2543
   7923SM   C1310414   6.770   7.932  14.814  0.3050 -0.0227  0.5820
   7923SM  H13A10415   6.728   7.878  14.898 -0.5133 -1.5165 -0.7472
   7923SM  H13B10416   6.707   7.921  14.727 -0.1884 -0.5924  1.0021
   7923SM  H13C10417   6.788   8.036  14.839 -2.0871  0.1823  1.7407
   7923SM   C1210418   6.967   7.924  14.653 -0.3022 -0.0151  0.0725
   7923SM  H12A10419   7.073   7.905  14.646 -0.5101 -0.4104 -4.2521
   7923SM  H12B10420   6.958   8.031  14.661  0.8025  0.2280 -1.5081
   7923SM   C1110421   6.910   7.881  14.518 -0.3782 -0.4707 -0.6435
   7923SM  H11A10422   6.906   7.770  14.516 -1.8819 -0.4302 -0.8832
   7923SM  H11B10423   6.994   7.918  14.456  1.5452 -0.8232  1.6127
   7923SM     P10424   6.774   8.084  14.439  0.3750  0.0761 -0.0863
   7923SM   O1310425   6.637   8.117  14.395  0.1496 -0.2072 -0.1985
   7923SM   O1410426   6.839   8.189  14.525  0.3982 -0.4535  1.0239
   7923SM   O1110427   6.871   8.055  14.310  0.2847 -0.3476  0.6217
   7923SM   O1210428   6.782   7.943  14.502 -0.0508 -0.1065  0.5967
   7923SM   C1S10429   6.809   7.965  14.211 -0.2488 -0.7641 -0.2301
   7923SM   H1S10430   6.707   7.998  14.183  0.9637  2.8620 -0.8646
   7923SM   H1T10431   6.795   7.864  14.255  0.2255  0.0038  1.8406
   7923SM    NF10432   6.832   7.863  13.982  0.3340  0.1367 -0.7145
   7923SM   HNF10433   6.873   7.775  13.963 -0.4173  0.0956 -2.3767
   7923SM   C2S10434   6.894   7.952  14.080  0.3557 -0.2704 -0.1362
   7923SM   H2S10435   6.896   8.056  14.041  2.4959  0.2940  1.3168
   7923SM   C3S10436   7.035   7.910  14.102 -0.7387 -0.5548  0.5171
   7923SM   H3S10437   7.026   7.804  14.134  0.8093 -1.0673 -0.6148
   7923SM    O310438   7.110   7.983  14.204  0.7277  0.2037  0.5454
   7923SM   HO310439   7.045   8.038  14.249 -0.5205 -1.0244  0.3122
   7923SM   C4S10440   7.113   7.925  13.972 -0.6869  0.5370  0.4907
   7923SM   H4S10441   7.127   7.830  13.918  2.3603  1.9902 -1.5838
   7923SM   C5S10442   7.175   8.038  13.920  1.1401  0.2698  0.3276
   7923SM   H5S10443   7.167   8.132  13.976 -1.5115  0.3957 -0.1099
   7923SM   C6S10444   7.258   8.053  13.796 -0.1852 -0.5918  0.3825
   7923SM   H6S10445   7.341   8.113  13.840 -1.3799  1.0893  0.4508
   7923SM   H6T10446   7.202   8.110  13.720  2.5823  0.1029 -1.2844
   7923SM   C7S10447   7.317   7.928  13.727 -0.6013 -1.1188  0.0536
   7923SM   H7S10448   7.243   7.888  13.654 -0.3438 -2.4153  0.4719
   7923SM   H7T10449   7.340   7.843  13.795  0.9536  0.1639  1.2131
   7923SM   C8S10450   7.455   7.948  13.650 -0.9819 -0.3497  0.7647
   7923SM   H8S10451   7.458   7.852  13.594 -1.2322  0.0410  0.0752
   7923SM   H8T10452   7.537   7.954  13.725 -0.8741  2.5639  0.5221
   7923SM   C9S10453   7.469   8.079  13.563 -0.3022  0.7929 -0.2228
   7923SM   H9S10454   7.366   8.109  13.535 -0.6968  0.6542  0.9845
   7923SM   H9T10455   7.523   8.041  13.474  0.0360 -0.3697  0.4500
   7923SM  C10S10456   7.555   8.193  13.616  0.2737  0.2252 -0.2365
   7923SM  H10S10457   7.663   8.170  13.625  0.3146  0.8377  1.1781
   7923SM  H10T10458   7.513   8.207  13.718  0.1029  4.6703 -0.7280
   7923SM  C11S10459   7.549   8.323  13.529  0.2537  0.6247 -0.5897
   7923SM  H11S10460   7.590   8.404  13.594 -0.2140 -0.7412  1.5106
   7923SM  H11T10461   7.441   8.341  13.508 -0.1809 -0.8616  0.2315
   7923SM  C12S10462   7.612   8.320  13.390  0.1780  0.3459 -0.4156
   7923SM  H12S10463   7.568   8.249  13.317 -0.4292  0.1996  0.0860
   7923SM  H12T10464   7.718   8.291  13.399  1.1687  2.9822 -2.1751
   7923SM  C13S10465   7.624   8.464  13.324 -0.1975 -0.2245 -0.5588
   7923SM  H13S10466   7.674   8.531  13.397  0.0556 -0.1723 -0.7786
   7923SM  H13T10467   7.521   8.500  13.304  0.9417  1.3202 -4.4393
   7923SM  C14S10468   7.689   8.460  13.187  0.3683  0.0202  0.0460
   7923SM  H14S10469   7.635   8.378  13.135  0.3920 -0.9167  1.4695
   7923SM  H14T10470   7.796   8.431  13.198  1.0233  0.7011 -3.3172
   7923SM  C15S10471   7.686   8.595  13.117  0.0816 -0.1997  0.1351
   7923SM  H15S10472   7.749   8.662  13.179 -1.4199  0.8037  0.6164
   7923SM  H15T10473   7.581   8.631  13.120  0.4734  1.1569 -1.2259
   7923SM  C16S10474   7.727   8.603  12.966  0.2084  0.4546  0.1077
   7923SM  H16S10475   7.664   8.678  12.914  0.3748  1.8394  1.8049
   7923SM  H16T10476   7.702   8.509  12.912  0.4455  1.5842 -2.0705
   7923SM  C17S10477   7.876   8.644  12.951  0.5005 -0.5040  0.3254
   7923SM  H17S10478   7.942   8.587  13.020  0.6749  1.0365  1.4770
   7923SM  H17T10479   7.888   8.748  12.987  0.5441 -0.8273  1.2978
   7923SM  C18S10480   7.900   8.642  12.799  0.3302  1.1821 -0.3591
   7923SM  H18S10481   7.914   8.539  12.760 -1.4808  1.1945 -1.1253
   7923SM  H18T10482   7.984   8.711  12.776  0.6529  0.5842 -1.0023
   7923SM  H18U10483   7.813   8.687  12.748 -1.5017 -2.4729 -0.7415
   7923SM   C1F10484   6.720   7.888  13.921 -0.2346  0.0089  0.9162
   7923SM    OF10485   6.656   7.988  13.938  0.7252 -0.0807  0.0721
   7923SM   C2F10486   6.668   7.773  13.826 -0.2315 -0.5015  0.2331
   7923SM   H2F10487   6.560   7.768  13.851 -0.3449  1.2462  0.1765
   7923SM   H2G10488   6.714   7.674  13.847  2.8993  0.8506  0.3224
   7923SM   C3F10489   6.685   7.816  13.680 -0.2280 -0.2200  0.9183
   7923SM   H3F10490   6.612   7.887  13.635  0.8727  0.5058  0.2124
   7923SM   H3G10491   6.650   7.721  13.634 -1.0284  0.4473  0.1180
   7923SM   C4F10492   6.834   7.825  13.636 -0.1142 -0.3512 -0.0113
   7923SM   H4F10493   6.900   7.758  13.695  3.1430  0.2920 -2.6040
   7923SM   H4G10494   6.869   7.929  13.656 -0.9711  0.1684 -1.0820
   7923SM   C5F10495   6.870   7.774  13.497  0.4478  0.3375  0.3803
   7923SM   H5F10496   6.847   7.666  13.484  0.1965  0.4802 -0.3890
   7923SM   H5G10497   6.980   7.776  13.484  0.2902  0.1485 -1.1327
   7923SM   C6F10498   6.821   7.861  13.384 -0.2310 -0.1322  0.0162
   7923SM   H6F10499   6.848   7.967  13.405  0.6222 -0.1870 -0.7605
   7923SM   H6G10500   6.710   7.871  13.378 -0.2557 -0.5081 -0.1778
   7923SM   C7F10501   6.883   7.821  13.243  0.1821 -0.7802 -0.0661
   7923SM   H7F10502   6.837   7.723  13.216 -0.7469 -0.8254  1.5196
   7923SM   H7G10503   6.991   7.816  13.268  0.0183 -1.2166  0.5950
   7923SM   C8F10504   6.841   7.924  13.135 -0.2152  0.3762 -0.3134
   7923SM   H8F10505   6.881   8.023  13.165 -1.4060  0.1152  2.4533
   7923SM   H8G10506   6.731   7.928  13.121 -0.4622 -0.8888  0.9695
   7923SM   C9F10507   6.918   7.888  13.004  0.1869  0.4996  0.6383
   7923SM   H9F10508   6.880   7.793  12.962 -0.6556  2.4377 -3.5050
   7923SM   H9G10509   7.023   7.870  13.036  0.1607 -1.7491 -0.3862
   7923SM  C10F10510   6.921   7.995  12.897  0.7926  0.1985  0.0445
   7923SM  H10F10511   6.947   8.099  12.926 -0.5340  0.9972 -1.4419
   7923SM  H10G10512   6.821   7.999  12.848  1.4088 -0.4803 -1.3365
   7923SM  C11F10513   7.024   7.958  12.790  0.6369  0.0364 -0.1555
   7923SM  H11F10514   7.116   7.940  12.851  2.0628  0.6605 -2.0285
   7923SM  H11G10515   7.039   8.041  12.717  3.1235  0.0927  0.3394
   7923SM  C12F10516   7.001   7.827  12.712 -0.7256 -0.1131 -0.5049
   7923SM  H12F10517   7.049   7.748  12.774  0.1726  1.6080  1.1058
   7923SM  H12G10518   7.060   7.840  12.619 -0.9997 -0.6801 -0.7643
   7923SM  C13F10519   6.859   7.801  12.670  0.2082 -0.3423  0.3212
   7923SM  H13F10520   6.822   7.892  12.617 -1.9715  0.0009  2.2535
   7923SM  H13G10521   6.788   7.800  12.756  1.3400 -0.8176  1.2634
   7923SM  C14F10522   6.846   7.679  12.580  0.4105 -0.1883 -0.0664
   7923SM  H14F10523   6.744   7.634  12.584  1.0396 -1.6102  0.7866
   7923SM  H14G10524   6.898   7.593  12.627  1.4604  0.4649  0.0085
   7923SM  C15F10525   6.887   7.714  12.438  0.4422  0.0764  0.0375
   7923SM  H15F10526   6.998   7.709  12.442  0.6580  2.7746 -0.1953
   7923SM  H15G10527   6.852   7.818  12.419  0.3266  0.3718  1.6906
   7923SM  C16F10528   6.817   7.630  12.330  0.0091  1.2932  0.0640
   7923SM  H16F10529   6.710   7.659  12.343 -0.0714  0.2002  2.5109
   7923SM  H16G10530   6.836   7.524  12.359  1.0402  1.0419 -1.4095
   7923SM  C17F10531   6.864   7.643  12.188 -0.5483  0.0029  0.0433
   7923SM  H17F10532   6.975   7.645  12.189 -0.5321 -0.6218 -0.1681
   7923SM  H17G10533   6.826   7.741  12.152  1.6514  0.9973  0.2959
   7923SM  C18F10534   6.805   7.544  12.090 -0.1523 -0.0239  0.5069
   7923SM  H18F10535   6.697   7.531  12.112 -0.0465  0.4196  1.3378
   7923SM  H18G10536   6.843   7.440  12.101  1.1887  0.4907  0.9911
   7923SM  C19F10537   6.823   7.579  11.940 -0.6000  0.1244 -0.6453
   7923SM  H19F10538   6.920   7.629  11.920  0.4681 -2.2043 -1.7164
   7923SM  H19G10539   6.754   7.655  11.898  0.7679 -0.0355 -3.3837
   7923SM  C20F10540   6.812   7.459  11.839 -0.5080  0.4076 -0.0054
   7923SM  H20F10541   6.729   7.393  11.871 -0.2688  1.4260  3.0871
   7923SM  H20G10542   6.904   7.398  11.849  1.0159  2.1479 -2.2881
   7923SM  C21F10543   6.814   7.518  11.705 -0.0981  0.1722 -0.0019
   7923SM  H21F10544   6.902   7.576  11.670  0.8480 -2.1554 -1.7760
   7923SM  H21G10545   6.722   7.577  11.684  0.5093  0.6577 -1.4615
   7923SM  C22F10546   6.788   7.402  11.598  0.0578  0.0343 -0.5639
   7923SM  H22F10547   6.743   7.437  11.503  1.3656 -0.1929 -1.2845
   7923SM  H22G10548   6.712   7.340  11.651 -0.5283  1.4652  0.3502
   7923SM  C23F10549   6.917   7.321  11.562 -0.1093 -0.1246 -0.1639
   7923SM  H23F10550   6.947   7.260  11.650 -0.0357 -1.1039 -0.8500
   7923SM  H23G10551   7.001   7.389  11.534  0.3017 -0.2908  0.6454
   7923SM  H23H10552   6.893   7.255  11.475 -0.4375 -0.4399  0.1597
   8023SM     N10553   0.736   1.236  14.282  0.5600  0.4291 -0.0709
   8023SM   C1510554   0.737   1.092  14.325 -0.0609 -0.5382 -0.5516
   8023SM  H15A10555   0.704   1.027  14.245 -1.7680  0.2209 -0.5180
   8023SM  H15B10556   0.672   1.075  14.409 -0.7999 -0.2890 -1.0607
   8023SM  H15C10557   0.832   1.059  14.362 -0.2988 -1.5743 -0.8286
   8023SM   C1410558   0.590   1.267  14.245  0.3916 -0.8149  0.2454
   8023SM  H14A10559   0.541   1.196  14.181 -0.6735  1.2074 -1.3024
   8023SM  H14B10560   0.577   1.365  14.202  0.2442 -0.2864  1.4484
   8023SM  H14C10561   0.533   1.279  14.336  1.6291 -1.9149  1.1929
   8023SM   C1310562   0.780   1.320  14.397 -0.0239 -0.3287  0.0322
   8023SM  H13A10563   0.764   1.425  14.379  0.8844 -0.1272  0.3191
   8023SM  H13B10564   0.884   1.310  14.427 -0.3128 -0.5115  1.0154
   8023SM  H13C10565   0.727   1.295  14.488  1.2233 -0.9869  0.6151
   8023SM   C1210566   0.822   1.247  14.156  0.4824 -0.6966 -0.1258
   8023SM  H12A10567   0.919   1.209  14.186  0.4160 -0.0571  0.9742
   8023SM  H12B10568   0.827   1.354  14.140  0.5213 -0.2982  2.2112
   8023SM   C1110569   0.777   1.169  14.034  0.3576  0.2156 -0.0591
   8023SM  H11A10570   0.820   1.213  13.942  0.8761  0.8650  0.4838
   8023SM  H11B10571   0.667   1.174  14.018 -0.2144 -1.7462  2.5361
   8023SM     P10572   0.947   0.972  14.055 -0.3139 -0.3656  0.1163
   8023SM   O1310573   1.029   1.036  14.163  0.0378 -0.6007  0.5704
   8023SM   O1410574   0.928   0.827  14.068  0.2287 -0.5748  0.1280
   8023SM   O1110575   1.015   1.002  13.918 -0.0067  0.0400 -0.3834
   8023SM   O1210576   0.802   1.028  14.049 -0.3662  0.2580 -0.4930
   8023SM   C1S10577   0.960   0.948  13.799 -0.4293  0.2398  0.6628
   8023SM   H1S10578   0.854   0.981  13.794 -0.9284 -1.4641 -0.8440
   8023SM   H1T10579   0.967   0.837  13.795 -1.5548  0.1161  1.6728
   8023SM    NF10580   0.964   0.925  13.560 -0.1075 -0.2310  0.0509
   8023SM   HNF10581   1.032   0.861  13.525 -1.0985 -0.6844 -1.1365
   8023SM   C2S10582   1.010   1.012  13.670  0.1552 -0.4471  0.5367
   8023SM   H2S10583   0.963   1.112  13.654  2.0292  1.0619  3.4439
   8023SM   C3S10584   1.158   1.045  13.685  0.0806 -0.4265  0.2464
   8023SM   H3S10585   1.206   0.952  13.723 -1.8079 -2.0361 -1.1247
   8023SM    O310586   1.193   1.140  13.783 -0.2043  0.3403  0.2387
   8023SM   HO310587   1.112   1.148  13.835 -0.1658 -1.2927  0.6065
   8023SM   C4S10588   1.217   1.082  13.549 -0.0422 -0.6700 -0.3335
   8023SM   H4S10589   1.264   0.993  13.505 -3.0737 -1.7146 -1.7375
   8023SM   C5S10590   1.192   1.194  13.477 -0.0255 -0.4320  0.0183
   8023SM   H5S10591   1.122   1.266  13.521  0.4472  0.1732 -0.2079
   8023SM   C6S10592   1.214   1.218  13.327 -0.2736 -0.1841 -0.2456
   8023SM   H6S10593   1.114   1.221  13.279 -0.0521 -1.5144 -0.8415
   8023SM   H6T10594   1.272   1.131  13.289  0.6596 -0.2872  1.3222
   8023SM   C7S10595   1.310   1.334  13.285 -0.1912 -0.4907 -0.2002
   8023SM   H7S10596   1.410   1.317  13.329  0.1170  1.8137  0.1116
   8023SM   H7T10597   1.273   1.437  13.307  3.2043  0.6375  0.7906
   8023SM   C8S10598   1.340   1.346  13.130  0.0241 -0.1487 -0.5532
   8023SM   H8S10599   1.249   1.368  13.070 -0.4899  0.4301  0.4248
   8023SM   H8T10600   1.374   1.246  13.095 -1.4363 -0.4148 -1.2636
   8023SM   C9S10601   1.442   1.458  13.106 -0.6391 -0.1486 -0.0707
   8023SM   H9S10602   1.544   1.432  13.141 -0.3804  0.5317 -0.3124
   8023SM   H9T10603   1.402   1.553  13.147 -2.0991 -0.7336 -0.0945
   8023SM  C10S10604   1.449   1.484  12.953 -0.3257  0.0744  0.1715
   8023SM  H10S10605   1.344   1.475  12.918 -0.5248 -1.2275  1.0273
   8023SM  H10T10606   1.523   1.413  12.910  1.0359  1.3099  0.4071
   8023SM  C11S10607   1.501   1.618  12.913  0.2585  0.2310 -0.2018
   8023SM  H11S10608   1.599   1.642  12.960 -0.3754  0.1625  1.1844
   8023SM  H11T10609   1.424   1.685  12.957  0.8489  1.1644 -0.5612
   8023SM  C12S10610   1.501   1.633  12.756  0.4372  0.0259 -0.2210
   8023SM  H12S10611   1.406   1.599  12.711  0.0599  0.8422 -0.0621
   8023SM  H12T10612   1.580   1.563  12.722  0.6072  0.0398  0.1373
   8023SM  C13S10613   1.534   1.775  12.703  0.4377 -0.2017  0.2187
   8023SM  H13S10614   1.623   1.812  12.758  0.6473 -0.1868 -0.1293
   8023SM  H13T10615   1.459   1.857  12.712 -1.1516 -1.5559 -0.0873
   8023SM  C14S10616   1.556   1.768  12.551  0.6695 -0.2649  0.5838
   8023SM  H14S10617   1.467   1.729  12.498 -0.1183  1.4791  0.5426
   8023SM  H14T10618   1.635   1.693  12.528  1.3401  1.0165 -1.6086
   8023SM  C15S10619   1.582   1.907  12.484 -0.1005 -0.6427 -0.2032
   8023SM  H15S10620   1.530   1.994  12.528  1.6817  0.3780 -0.0072
   8023SM  H15T10621   1.544   1.901  12.379  1.2684  0.2402 -0.7868
   8023SM  C16S10622   1.737   1.942  12.478 -0.5267 -0.2297 -0.2490
   8023SM  H16S10623   1.778   1.878  12.397  1.4538  0.1373  0.4256
   8023SM  H16T10624   1.778   1.914  12.578  0.0275 -0.2177 -0.4692
   8023SM  C17S10625   1.769   2.089  12.442 -0.4842 -0.0520  0.3324
   8023SM  H17S10626   1.877   2.116  12.439 -0.3095 -0.6702  0.7813
   8023SM  H17T10627   1.735   2.160  12.519  1.4903  2.0806 -0.6236
   8023SM  C18S10628   1.702   2.127  12.308 -0.5602 -0.4305 -0.5979
   8023SM  H18S10629   1.748   2.059  12.233 -0.6798 -0.2284 -0.8580
   8023SM  H18T10630   1.735   2.231  12.285  1.6719 -0.8372  0.4966
   8023SM  H18U10631   1.592   2.118  12.299 -0.4444 -1.9830 -0.6522
   8023SM   C1F10632   0.834   0.921  13.519  0.5478  0.1153 -0.2157
   8023SM    OF10633   0.749   0.996  13.567  0.5905  0.4308  0.2463
   8023SM   C2F10634   0.810   0.822  13.410 -0.4662  0.2977 -0.2877
   8023SM   H2F10635   0.799   0.718  13.447  1.0306 -0.5518 -2.0332
   8023SM   H2G10636   0.898   0.826  13.343  0.3415 -0.9098  0.6622
   8023SM   C3F10637   0.670   0.856  13.338  0.0910  0.2777 -0.3944
   8023SM   H3F10638   0.697   0.952  13.289  1.9891  0.0768  0.1646
   8023SM   H3G10639   0.589   0.870  13.412  1.3279  2.3855  0.6516
   8023SM   C4F10640   0.648   0.747  13.233 -0.1843 -0.2423  1.0925
   8023SM   H4F10641   0.621   0.653  13.285 -1.9966 -0.2402  0.2336
   8023SM   H4G10642   0.737   0.727  13.171 -0.9271  4.2779 -1.8833
   8023SM   C5F10643   0.535   0.779  13.137 -0.1927 -0.1565 -0.0760
   8023SM   H5F10644   0.564   0.880  13.101 -3.1484  1.3241  1.3513
   8023SM   H5G10645   0.436   0.798  13.185 -0.3244  0.1503 -0.4570
   8023SM   C6F10646   0.529   0.680  13.008 -0.1162  0.3120 -0.4178
   8023SM   H6F10647   0.499   0.579  13.043  0.7337  0.5102  0.9892
   8023SM   H6G10648   0.629   0.660  12.964 -0.7283 -1.5270 -1.0784
   8023SM   C7F10649   0.435   0.732  12.902 -0.1082 -0.1879  0.7020
   8023SM   H7F10650   0.334   0.739  12.949 -0.0897  0.8000  0.6148
   8023SM   H7G10651   0.426   0.659  12.819 -0.8496  0.5945  0.0696
   8023SM   C8F10652   0.458   0.870  12.843 -0.3831 -0.6371 -0.4067
   8023SM   H8F10653   0.424   0.944  12.919  0.0342  1.3103 -1.9982
   8023SM   H8G10654   0.395   0.900  12.756  0.7780 -2.0983 -1.7988
   8023SM   C9F10655   0.602   0.908  12.807 -0.0107  0.1413 -0.0254
   8023SM   H9F10656   0.656   0.887  12.902 -1.0772  0.8777  0.7627
   8023SM   H9G10657   0.606   1.018  12.791 -0.0973  0.0387 -0.8110
   8023SM  C10F10658   0.667   0.817  12.690 -0.1289 -0.8413 -0.3824
   8023SM  H10F10659   0.639   0.712  12.716 -0.2264 -1.6102 -3.2451
   8023SM  H10G10660   0.776   0.826  12.710 -0.6284 -1.3434  3.1504
   8023SM  C11F10661   0.631   0.852  12.547  0.2625 -0.1340  0.5027
   8023SM  H11F10662   0.665   0.958  12.537 -0.6362  0.0067 -1.4365
   8023SM  H11G10663   0.520   0.847  12.541  0.0816  1.5633  1.7534
   8023SM  C12F10664   0.688   0.759  12.433 -0.0820 -0.2979  0.3157
   8023SM  H12F10665   0.798   0.751  12.446  0.0141 -2.9925 -1.4096
   8023SM  H12G10666   0.680   0.814  12.337 -1.3241  0.0463  0.5885
   8023SM  C13F10667   0.623   0.625  12.415  0.0732 -0.1788  0.4248
   8023SM  H13F10668   0.513   0.630  12.404  0.1014 -1.0632 -0.3440
   8023SM  H13G10669   0.640   0.566  12.508 -2.6873 -0.5801  0.7332
   8023SM  C14F10670   0.679   0.558  12.293  0.5692  0.3863 -0.1032
   8023SM  H14F10671   0.661   0.448  12.295  0.9305  0.2106 -2.4629
   8023SM  H14G10672   0.789   0.572  12.305  0.3433 -0.1735  3.5029
   8023SM  C15F10673   0.621   0.601  12.151 -0.1115 -0.2594 -0.4927
   8023SM  H15F10674   0.704   0.586  12.079  0.9246 -1.6757  0.9316
   8023SM  H15G10675   0.602   0.710  12.157 -1.2873 -0.5095  0.6448
   8023SM  C16F10676   0.493   0.522  12.099  0.0601 -0.2443  0.1780
   8023SM  H16F10677   0.405   0.530  12.167  0.4277 -1.6145  0.8354
   8023SM  H16G10678   0.527   0.416  12.097 -0.3923 -0.3958  0.5691
   8023SM  C17F10679   0.458   0.554  11.957 -0.2600  0.1118 -0.0388
   8023SM  H17F10680   0.548   0.560  11.893 -0.6916 -2.3239 -0.9639
   8023SM  H17G10681   0.413   0.655  11.957  0.9620  0.6794 -1.2981
   8023SM  C18F10682   0.348   0.458  11.897  0.2290  0.3640  0.0051
   8023SM  H18F10683   0.261   0.517  11.862  1.0431  1.7670  0.3054
   8023SM  H18G10684   0.308   0.389  11.975  1.3538 -0.7726 -0.3911
   8023SM  C19F10685   0.407   0.384  11.782  0.3665 -0.2405  0.4321
   8023SM  H19F10686   0.494   0.324  11.816  0.6746  0.0492  0.1670
   8023SM  H19G10687   0.436   0.462  11.708 -1.0101  0.1490  0.2799
   8023SM  C20F10688   0.297   0.291  11.721  0.5323  0.6143  0.5690
   8023SM  H20F10689   0.225   0.359  11.669  1.5813  1.9173  0.7771
   8023SM  H20G10690   0.245   0.240  11.805  1.0815  0.5086  0.8461
   8023SM  C21F10691   0.358   0.195  11.624  0.3520  0.6220  0.8964
   8023SM  H21F10692   0.409   0.116  11.684  0.5642 -0.0345 -0.1234
   8023SM  H21G10693   0.437   0.231  11.555  0.0354 -1.0527 -0.4102
   8023SM  C22F10694   0.253   0.135  11.532  0.3294  0.6144 -0.7887
   8023SM  H22F10695   0.211   0.217  11.470  2.2821  0.4160 -2.4494
   8023SM  H22G10696   0.173   0.090  11.595 -0.7874  1.8733 -1.2521
   8023SM  C23F10697   0.304   0.024  11.441 -0.2102 -0.7671 -0.7483
   8023SM  H23F10698   0.260   0.032  11.339 -1.9170 -0.8223 -0.0561
   8023SM  H23G10699   0.270  -0.070  11.490 -1.4274  1.8529  4.0420
   8023SM  H23H10700   0.415   0.033  11.437 -0.3715  3.1320 -0.5338
   8123SM     N10701   3.885   5.036  10.209 -0.0970 -0.0287 -0.0492
   8123SM   C1510702   3.879   4.886  10.219 -0.0629 -0.3412 -0.1544
   8123SM  H15A10703   3.970   4.846  10.175  1.8949  3.5272 -0.0343
   8123SM  H15B10704   3.798   4.839  10.166 -0.4742  0.0607  0.1139
   8123SM  H15C10705   3.874   4.863  10.325 -0.2077 -2.5850 -0.5886
   8123SM   C1410706   4.000   5.092  10.273 -0.5164 -0.0063  0.4296
   8123SM  H14A10707   3.989   5.073  10.378  1.3954 -0.0315  0.6519
   8123SM  H14B10708   4.008   5.199  10.257 -1.2282 -0.2833 -2.5183
   8123SM  H14C10709   4.088   5.041  10.237 -0.7176  0.6464 -1.0998
   8123SM   C1310710   3.894   5.078  10.066 -0.1747  0.6213  0.3392
   8123SM  H13A10711   3.876   5.184  10.053  4.2588  1.4522 -0.4777
   8123SM  H13B10712   3.818   5.029  10.007 -0.1049  1.6776 -0.6462
   8123SM  H13C10713   3.992   5.054  10.027 -0.9913 -0.3268 -1.2378
   8123SM   C1210714   3.754   5.086  10.267  0.1392 -0.4149 -0.0017
   8123SM  H12A10715   3.684   5.043  10.197  1.3027 -0.6015 -1.0865
   8123SM  H12B10716   3.744   5.193  10.249  0.0827 -0.3927  0.1546
   8123SM   C1110717   3.722   5.040  10.412 -0.3933 -0.2089 -0.2996
   8123SM  H11A10718   3.720   4.929  10.412 -1.7956 -0.2142 -1.6425
   8123SM  H11B10719   3.616   5.064  10.433 -0.4290 -0.3799 -0.2828
   8123SM     P10720   3.793   5.199  10.615 -0.1041  0.2972 -0.7515
   8123SM   O1310721   3.921   5.204  10.679  0.2075  0.4190  0.1120
   8123SM   O1410722   3.739   5.326  10.556 -0.2047  0.0434  0.0598
   8123SM   O1110723   3.688   5.164  10.733 -0.2174 -0.5649 -0.4320
   8123SM   O1210724   3.807   5.075  10.523 -0.1705  0.7029 -0.1278
   8123SM   C1S10725   3.690   5.024  10.776 -0.0404 -0.0557 -0.1906
   8123SM   H1S10726   3.785   4.969  10.760 -0.4176 -1.6282  2.4310
   8123SM   H1T10727   3.622   4.961  10.715  2.2194 -1.5744 -1.2756
   8123SM    NF10728   3.645   4.858  10.949 -0.8809 -0.6900 -0.7819
   8123SM   HNF10729   3.563   4.800  10.946 -1.0794 -0.4488 -0.2065
   8123SM   C2S10730   3.632   5.002  10.920 -0.0792  0.8157  0.5038
   8123SM   H2S10731   3.688   5.059  10.997 -2.4476  3.8297  0.1595
   8123SM   C3S10732   3.486   5.058  10.929  0.0802 -0.5506  0.3219
   8123SM   H3S10733   3.417   5.006  10.860 -0.9728 -1.4320  1.9622
   8123SM    O310734   3.471   5.193  10.887  0.0173 -0.4138  0.0846
   8123SM   HO310735   3.549   5.199  10.831 -0.3767  1.3519 -0.3361
   8123SM   C4S10736   3.445   5.026  11.071 -0.2289 -0.5028  0.0792
   8123SM   H4S10737   3.407   4.923  11.075 -0.5191 -0.4543 -1.0332
   8123SM   C5S10738   3.441   5.114  11.175  0.3844  0.3806 -0.5340
   8123SM   H5S10739   3.466   5.222  11.171  2.1177  0.0912  1.0412
   8123SM   C6S10740   3.409   5.078  11.323 -0.3819 -1.1566 -0.4081
   8123SM   H6S10741   3.351   4.985  11.342 -1.5248 -0.4423 -0.2807
   8123SM   H6T10742   3.343   5.155  11.368  2.3611  1.5348 -0.6164
   8123SM   C7S10743   3.537   5.080  11.399  0.3408 -0.0615 -0.4333
   8123SM   H7S10744   3.578   5.183  11.410 -0.0181  0.0047  0.4002
   8123SM   H7T10745   3.609   5.016  11.345 -2.8208 -2.4228 -2.1374
   8123SM   C8S10746   3.523   5.026  11.548  0.4295 -0.0413  0.1123
   8123SM   H8S10747   3.469   4.929  11.538 -0.3682  0.5094 -1.3944
   8123SM   H8T10748   3.462   5.092  11.614 -0.2792 -0.4405 -0.1258
   8123SM   C9S10749   3.655   4.994  11.619 -0.0661 -0.2894 -0.0394
   8123SM   H9S10750   3.704   5.093  11.630  1.9341 -0.7961 -3.1606
   8123SM   H9T10751   3.714   4.932  11.548  1.5602  2.6393 -1.4090
   8123SM  C10S10752   3.637   4.907  11.749  0.3882 -0.5741  0.8742
   8123SM  H10S10753   3.743   4.878  11.764  0.5935 -1.5255 -1.8955
   8123SM  H10T10754   3.577   4.818  11.719  0.7673 -1.6955  3.2553
   8123SM  C11S10755   3.571   4.978  11.867  0.2688  0.0667 -0.5286
   8123SM  H11S10756   3.529   4.907  11.942  2.2175 -0.2536  0.3117
   8123SM  H11T10757   3.494   5.041  11.817  2.4934  3.2136 -0.2717
   8123SM  C12S10758   3.659   5.067  11.946 -0.1484  0.1652 -0.5878
   8123SM  H12S10759   3.590   5.104  12.025 -1.4737 -1.1202 -1.0791
   8123SM  H12T10760   3.690   5.154  11.885  0.3715  0.3707 -0.0381
   8123SM  C13S10761   3.790   5.003  12.003 -0.1512 -0.4083 -0.8329
   8123SM  H13S10762   3.868   4.994  11.924  0.5932  0.1888 -0.1746
   8123SM  H13T10763   3.762   4.912  12.060 -0.0585 -0.3002 -0.6167
   8123SM  C14S10764   3.873   5.093  12.102  0.1542  0.8196  0.6894
   8123SM  H14S10765   3.805   5.115  12.188 -0.8437 -1.4222  0.5295
   8123SM  H14T10766   3.906   5.189  12.057  0.4189  1.5689  2.4004
   8123SM  C15S10767   4.004   5.022  12.152  0.0501  0.0937 -0.0068
   8123SM  H15S10768   4.077   5.025  12.068 -0.5818  3.5557 -0.5673
   8123SM  H15T10769   3.989   4.913  12.171 -1.9952  0.4748  0.8495
   8123SM  C16S10770   4.060   5.095  12.277  0.0612  0.7066  0.3748
   8123SM  H16S10771   4.005   5.058  12.366 -1.8086 -0.9654 -1.4104
   8123SM  H16T10772   4.041   5.204  12.266 -0.0288  0.5677 -1.0363
   8123SM  C17S10773   4.211   5.061  12.294  0.2207 -0.4372 -0.1070
   8123SM  H17S10774   4.277   5.118  12.225  0.6430 -2.5320 -1.5206
   8123SM  H17T10775   4.233   4.958  12.257  1.2560 -0.2709  0.0127
   8123SM  C18S10776   4.255   5.061  12.441  0.1143 -0.3825 -0.5938
   8123SM  H18S10777   4.192   4.979  12.482  2.1093 -1.0966  1.2394
   8123SM  H18T10778   4.221   5.151  12.496  3.1343 -1.6261  3.8696
   8123SM  H18U10779   4.362   5.035  12.459 -0.0851 -2.2972 -1.7898
   8123SM   C1F10780   3.765   4.801  10.954 -0.2229  0.2708  0.1610
   8123SM    OF10781   3.863   4.876  10.969  0.2647  0.1479  0.0206
   8123SM   C2F10782   3.784   4.654  10.932  0.7957 -0.3105  0.0137
   8123SM   H2F10783   3.841   4.635  10.839  0.3719 -1.0588 -0.1018
   8123SM   H2G10784   3.686   4.602  10.922  0.1209  0.6706  1.1752
   8123SM   C3F10785   3.859   4.592  11.051 -0.3611 -1.0969  0.6678
   8123SM   H3F10786   3.965   4.621  11.067 -0.5513 -1.5971  3.3592
   8123SM   H3G10787   3.864   4.481  11.044  2.6497 -0.9612 -0.7877
   8123SM   C4F10788   3.803   4.617  11.193  0.3431  0.0873 -0.3187
   8123SM   H4F10789   3.696   4.587  11.196 -0.2948  2.1559 -0.6541
   8123SM   H4G10790   3.816   4.727  11.209  1.0987  0.0978 -0.9729
   8123SM   C5F10791   3.885   4.568  11.307  0.2676  0.3034 -1.0608
   8123SM   H5F10792   3.992   4.594  11.293  0.3370  2.3910  2.1989
   8123SM   H5G10793   3.880   4.457  11.304  0.0565  0.1336  1.8851
   8123SM   C6F10794   3.844   4.622  11.450  0.1544  0.7852  0.1124
   8123SM   H6F10795   3.741   4.584  11.464  0.7850 -0.0697  2.8560
   8123SM   H6G10796   3.843   4.733  11.438 -0.9746  0.7925  0.0908
   8123SM   C7F10797   3.926   4.562  11.570 -0.2502 -0.0851 -0.1507
   8123SM   H7F10798   4.031   4.598  11.558 -0.2871 -0.4408 -1.8307
   8123SM   H7G10799   3.927   4.452  11.561  0.7914 -0.0186 -1.0784
   8123SM   C8F10800   3.866   4.609  11.695 -0.5181  0.0554  0.2540
   8123SM   H8F10801   3.755   4.615  11.698 -0.4795  0.7535  0.3616
   8123SM   H8G10802   3.899   4.714  11.707 -2.6201  0.9080 -0.8693
   8123SM   C9F10803   3.931   4.532  11.812  0.3185  0.8720 -0.0414
   8123SM   H9F10804   4.026   4.478  11.790  0.4852  0.1317  2.2468
   8123SM   H9G10805   3.862   4.447  11.828 -0.4520  1.3359 -0.8367
   8123SM  C10F10806   3.951   4.607  11.936 -0.3500  0.0428 -0.7386
   8123SM  H10F10807   3.852   4.648  11.964  0.0595 -0.0444  0.9046
   8123SM  H10G10808   4.023   4.691  11.927  1.1690 -0.7872  2.3968
   8123SM  C11F10809   3.995   4.523  12.062  0.0722  0.7007  0.9365
   8123SM  H11F10810   4.087   4.463  12.044  0.4900  1.6054 -0.0752
   8123SM  H11G10811   3.923   4.446  12.095 -0.2197  1.2672  1.6577
   8123SM  C12F10812   4.033   4.617  12.180  0.0229  0.1619 -0.0932
   8123SM  H12F10813   3.946   4.672  12.221  0.3638 -0.8478  2.1371
   8123SM  H12G10814   4.108   4.685  12.134 -0.7529 -0.5167 -2.5003
   8123SM  C13F10815   4.108   4.559  12.304  0.0879  0.0440 -0.0158
   8123SM  H13F10816   4.214   4.531  12.285  0.8794  0.7741  2.8393
   8123SM  H13G10817   4.068   4.458  12.326 -0.9303  0.3833 -0.2602
   8123SM  C14F10818   4.105   4.654  12.425  0.0677 -1.0321 -0.3936
   8123SM  H14F10819   4.002   4.678  12.459  0.2044 -0.3952 -0.4210
   8123SM  H14G10820   4.167   4.745  12.412  0.7386 -1.0353  2.2403
   8123SM  C15F10821   4.190   4.592  12.539  0.0967 -0.4047 -0.1513
   8123SM  H15F10822   4.293   4.569  12.504  0.4036  0.1479  0.3649
   8123SM  H15G10823   4.139   4.497  12.565 -0.2051 -0.0254  0.6668
   8123SM  C16F10824   4.210   4.686  12.660  0.8865  0.3180 -1.0234
   8123SM  H16F10825   4.115   4.717  12.708  2.5049 -0.1201  2.8007
   8123SM  H16G10826   4.254   4.774  12.608 -2.3170  1.9251 -1.2047
   8123SM  C17F10827   4.299   4.623  12.763  0.0856  0.0476 -0.4615
   8123SM  H17F10828   4.329   4.714  12.820  1.0822  0.2560 -1.2918
   8123SM  H17G10829   4.385   4.564  12.726  0.8897 -1.0569  2.8104
   8123SM  C18F10830   4.225   4.521  12.852  0.0503 -0.7044 -0.4829
   8123SM  H18F10831   4.163   4.449  12.795  0.8741 -0.6617 -1.4607
   8123SM  H18G10832   4.145   4.580  12.900 -0.0087  1.0591 -2.6199
   8123SM  C19F10833   4.317   4.453  12.950 -0.0524  0.0698 -0.5459
   8123SM  H19F10834   4.379   4.539  12.985 -3.0183  2.2785 -0.3449
   8123SM  H19G10835   4.398   4.397  12.899  0.9191 -0.7050  1.7241
   8123SM  C20F10836   4.255   4.382  13.063  0.1992  0.7172  0.0025
   8123SM  H20F10837   4.167   4.317  13.043  0.2512  0.7920 -0.4865
   8123SM  H20G10838   4.196   4.453  13.125 -1.3227 -0.7269  0.3093
   8123SM  C21F10839   4.356   4.303  13.153  0.1247 -0.8139  0.4229
   8123SM  H21F10840   4.461   4.334  13.131 -1.1116  1.4879 -3.2345
   8123SM  H21G10841   4.336   4.194  13.138 -1.2755 -0.7625  1.7178
   8123SM  C22F10842   4.322   4.337  13.299 -0.5573  0.3183 -0.1288
   8123SM  H22F10843   4.214   4.325  13.319 -0.7078 -1.0509 -1.5863
   8123SM  H22G10844   4.351   4.442  13.322  1.1828 -0.0723 -0.3554
   8123SM  C23F10845   4.396   4.238  13.390 -0.1800 -0.1491  0.3146
   8123SM  H23F10846   4.504   4.255  13.407  0.3390 -1.9906 -0.8413
   8123SM  H23G10847   4.382   4.133  13.358  2.6042 -0.4215 -0.2077
   8123SM  H23H10848   4.348   4.253  13.489  0.2907  1.0350  0.3824
   8223SM     N10849   4.366   6.550   9.903  0.4628 -1.0685 -0.2613
   8223SM   C1510850   4.515   6.543   9.897  0.1084 -0.1173 -0.4293
   8223SM  H15A10851   4.552   6.639   9.930 -2.2375  0.8878 -0.4846
   8223SM  H15B10852   4.562   6.534   9.800 -0.8961  0.3753 -0.9873
   8223SM  H15C10853   4.555   6.466   9.961  0.4145 -1.2901 -1.9879
   8223SM   C1410854   4.328   6.663   9.811  0.0051  0.0033  0.2964
   8223SM  H14A10855   4.221   6.679   9.817  0.1796  1.7222 -0.6596
   8223SM  H14B10856   4.357   6.632   9.712 -0.3305  0.0028  0.1947
   8223SM  H14C10857   4.386   6.751   9.830  0.5756 -0.9096  3.4061
   8223SM   C1310858   4.307   6.419   9.853  0.0765  0.1084 -0.0847
   8223SM  H13A10859   4.339   6.337   9.915  0.0795  0.1721 -0.0016
   8223SM  H13B10860   4.331   6.396   9.751  1.6341  2.4554 -0.3424
   8223SM  H13C10861   4.200   6.429   9.853  0.0521  0.4037 -2.4209
   8223SM   C1210862   4.313   6.588  10.043 -0.8192  0.1037 -0.0407
   8223SM  H12A10863   4.205   6.586  10.044 -0.8189  0.0036 -0.1579
   8223SM  H12B10864   4.340   6.689  10.069  0.8470  0.1398 -1.6759
   8223SM   C1110865   4.363   6.490  10.159  0.0053  0.2887  0.4888
   8223SM  H11A10866   4.347   6.540  10.257  0.8329 -0.3644  0.9612
   8223SM  H11B10867   4.471   6.469  10.156 -0.2410 -1.1537 -2.5173
   8223SM     P10868   4.147   6.349  10.193  0.3702  0.5005 -0.0584
   8223SM   O1310869   4.060   6.455  10.130  0.1652 -0.0044  0.7056
   8223SM   O1410870   4.104   6.208  10.186 -0.4905  0.0582  0.0353
   8223SM   O1110871   4.166   6.390  10.350 -0.5146  0.3821 -0.2586
   8223SM   O1210872   4.293   6.362  10.142 -0.3504  0.2709 -0.2279
   8223SM   C1S10873   4.214   6.292  10.444 -0.2631  0.3479 -0.9467
   8223SM   H1S10874   4.305   6.236  10.411 -1.0738 -2.4792  1.2394
   8223SM   H1T10875   4.139   6.213  10.463  0.1454  0.6274  2.2896
   8223SM    NF10876   4.286   6.243  10.686 -0.5697 -0.2855 -0.1500
   8223SM   HNF10877   4.232   6.234  10.769  1.1832  2.5526  1.4502
   8223SM   C2S10878   4.253   6.346  10.592 -0.3308 -0.0778  0.1957
   8223SM   H2S10879   4.338   6.416  10.578 -1.5992  1.2537 -1.1141
   8223SM   C3S10880   4.132   6.439  10.646 -0.7507  0.3262  0.4585
   8223SM   H3S10881   4.066   6.372  10.705  0.1934 -0.8554  0.2151
   8223SM    O310882   4.044   6.487  10.555  0.3171 -0.3441  0.5956
   8223SM   HO310883   4.082   6.458  10.472 -0.6441  1.2686 -0.4769
   8223SM   C4S10884   4.189   6.535  10.742 -0.1462  0.1237 -0.1991
   8223SM   H4S10885   4.176   6.505  10.847  0.4720  0.5389  0.0039
   8223SM   C5S10886   4.257   6.648  10.710  0.4559 -0.1042 -0.5100
   8223SM   H5S10887   4.273   6.673  10.604 -0.8651  1.4630 -0.3860
   8223SM   C6S10888   4.319   6.746  10.808  0.0876 -0.3141 -1.0672
   8223SM   H6S10889   4.335   6.846  10.764  1.9224 -0.8554 -1.6922
   8223SM   H6T10890   4.426   6.720  10.811  0.5448  1.3604 -1.6314
   8223SM   C7S10891   4.260   6.753  10.955 -1.2799  0.1626 -0.3903
   8223SM   H7S10892   4.267   6.656  11.007 -0.5518  0.2685 -0.2783
   8223SM   H7T10893   4.155   6.781  10.930 -1.1639 -0.8309 -2.1247
   8223SM   C8S10894   4.312   6.858  11.059  0.0770 -0.2123 -0.0703
   8223SM   H8S10895   4.421   6.867  11.076  0.1016 -0.6881  0.0384
   8223SM   H8T10896   4.270   6.841  11.160 -0.7998 -0.4470 -0.4551
   8223SM   C9S10897   4.263   7.004  11.016 -0.3191  0.1422 -0.3578
   8223SM   H9S10898   4.152   7.009  11.009 -0.3539  3.3879  0.7234
   8223SM   H9T10899   4.313   7.032  10.921 -0.5889  0.4668 -0.4035
   8223SM  C10S10900   4.315   7.111  11.117 -0.1199 -0.1858 -0.0985
   8223SM  H10S10901   4.291   7.211  11.074  1.1884  0.2886  0.2113
   8223SM  H10T10902   4.426   7.107  11.129 -0.3561  0.0629  2.9077
   8223SM  C11S10903   4.248   7.105  11.255  0.3984 -0.0227 -0.2130
   8223SM  H11S10904   4.317   7.156  11.326 -0.5600  0.1852  0.5867
   8223SM  H11T10905   4.250   7.004  11.301  2.3518  0.5432  1.0883
   8223SM  C12S10906   4.112   7.181  11.265  0.7264  0.1658 -0.1871
   8223SM  H12S10907   4.044   7.117  11.204  1.7467  1.4956 -2.8428
   8223SM  H12T10908   4.127   7.279  11.215 -2.2277  0.3454 -0.9171
   8223SM  C13S10909   4.066   7.205  11.408 -0.4738  0.3899 -0.3377
   8223SM  H13S10910   4.155   7.245  11.461  1.1718  0.6478 -3.1331
   8223SM  H13T10911   4.038   7.108  11.457 -0.7870  1.7128  2.3060
   8223SM  C14S10912   3.944   7.299  11.434  0.1009 -0.1468  0.6954
   8223SM  H14S10913   3.933   7.321  11.543 -4.1462 -1.3178  0.6990
   8223SM  H14T10914   3.851   7.251  11.398  0.4286 -0.2963  0.0296
   8223SM  C15S10915   3.946   7.435  11.358  0.4338  0.1335  0.0870
   8223SM  H15S10916   3.908   7.411  11.257  1.4564 -0.6250 -0.1237
   8223SM  H15T10917   4.050   7.471  11.344  0.5529  0.1033  0.8447
   8223SM  C16S10918   3.859   7.536  11.433  0.7081  0.4904  0.2866
   8223SM  H16S10919   3.906   7.561  11.531 -2.5699 -0.4371  2.2267
   8223SM  H16T10920   3.759   7.494  11.457  1.0054 -0.0757  0.5488
   8223SM  C17S10921   3.834   7.660  11.349 -0.2650  0.3866  0.2827
   8223SM  H17S10922   3.788   7.623  11.255  0.5858  2.5335 -1.0531
   8223SM  H17T10923   3.928   7.707  11.314  0.0827 -0.0177  0.6502
   8223SM  C18S10924   3.745   7.774  11.417  0.2926  0.5926  0.0827
   8223SM  H18S10925   3.805   7.838  11.486 -1.2948  2.5238 -0.2651
   8223SM  H18T10926   3.676   7.723  11.488  0.6051 -0.6346 -0.4668
   8223SM  H18U10927   3.686   7.844  11.355  1.1565  1.0595 -0.2396
   8223SM   C1F10928   4.387   6.157  10.677  0.0474 -0.0538 -0.4707
   8223SM    OF10929   4.468   6.170  10.591 -0.4451 -0.1521  0.9719
   8223SM   C2F10930   4.394   6.056  10.779 -0.5412 -0.1290 -0.0504
   8223SM   H2F10931   4.317   5.977  10.763 -0.5662 -0.4985  1.7004
   8223SM   H2G10932   4.364   6.101  10.876 -1.0974  1.1382 -0.7946
   8223SM   C3F10933   4.540   5.996  10.788 -0.0222  0.5154 -0.3751
   8223SM   H3F10934   4.612   6.081  10.783  0.1407  0.4112  0.1081
   8223SM   H3G10935   4.564   5.940  10.696  0.2363  1.7773 -1.1035
   8223SM   C4F10936   4.564   5.912  10.919 -0.2350  0.0410 -0.7416
   8223SM   H4F10937   4.544   5.980  11.004 -0.9742 -2.4243  1.1903
   8223SM   H4G10938   4.666   5.869  10.933 -0.3336 -0.3285 -1.1624
   8223SM   C5F10939   4.473   5.791  10.945  0.1032  0.6593 -1.0008
   8223SM   H5F10940   4.471   5.723  10.858  2.1491 -0.1993 -0.4267
   8223SM   H5G10941   4.371   5.836  10.945 -0.5014 -0.6526 -0.5977
   8223SM   C6F10942   4.514   5.706  11.068 -0.1011 -0.5784 -0.2769
   8223SM   H6F10943   4.607   5.651  11.041 -1.5862 -2.8908 -0.9636
   8223SM   H6G10944   4.444   5.623  11.093 -0.5123 -1.0521 -2.7716
   8223SM   C7F10945   4.523   5.770  11.210 -0.1051  0.2984 -0.1162
   8223SM   H7F10946   4.448   5.851  11.221  0.7184  0.8664  1.5542
   8223SM   H7G10947   4.625   5.814  11.212  1.1432 -2.3630 -0.0721
   8223SM   C8F10948   4.520   5.681  11.339  0.2349  0.3601 -0.0380
   8223SM   H8F10949   4.606   5.613  11.358 -0.0112  0.4857  1.7433
   8223SM   H8G10950   4.429   5.618  11.348 -0.2398  0.5420 -2.7880
   8223SM   C9F10951   4.522   5.782  11.465  0.3301  0.7455 -0.7203
   8223SM   H9F10952   4.431   5.845  11.476  0.1747  0.5171 -0.6806
   8223SM   H9G10953   4.617   5.840  11.463 -1.0597  3.1739  0.0359
   8223SM  C10F10954   4.530   5.691  11.589  0.5224 -0.0725 -0.5063
   8223SM  H10F10955   4.615   5.619  11.578 -0.1478 -1.0708  0.5617
   8223SM  H10G10956   4.450   5.614  11.594  0.2004  0.3312  1.1336
   8223SM  C11F10957   4.533   5.766  11.727  0.3218  0.2654  0.3655
   8223SM  H11F10958   4.497   5.694  11.803 -0.9668 -0.2816 -0.7061
   8223SM  H11G10959   4.463   5.852  11.733 -0.2433 -0.1924  0.3871
   8223SM  C12F10960   4.666   5.821  11.758 -0.0086 -0.0998 -0.2542
   8223SM  H12F10961   4.688   5.887  11.671  0.9398  0.3707  0.3240
   8223SM  H12G10962   4.743   5.742  11.767 -0.4992 -0.8368 -1.9892
   8223SM  C13F10963   4.671   5.917  11.881 -0.0196  0.5018 -0.5077
   8223SM  H13F10964   4.638   5.851  11.963  0.4576  0.1590 -0.5878
   8223SM  H13G10965   4.601   6.000  11.858 -0.2435  0.1081 -1.2715
   8223SM  C14F10966   4.812   5.976  11.914 -0.2410  1.1457 -0.2156
   8223SM  H14F10967   4.810   6.058  11.989  1.0956  2.8582 -1.9464
   8223SM  H14G10968   4.856   6.008  11.817  1.3069 -1.3424 -0.4297
   8223SM  C15F10969   4.896   5.860  11.980 -0.8612  0.1431  0.4081
   8223SM  H15F10970   4.903   5.776  11.908 -2.1050  1.9355 -1.9777
   8223SM  H15G10971   4.842   5.819  12.068  1.6165 -1.0255  1.4826
   8223SM  C16F10972   5.027   5.921  12.033  0.1384  0.2925 -0.0211
   8223SM  H16F10973   4.995   5.991  12.113  1.4786  0.9328 -0.0275
   8223SM  H16G10974   5.067   5.979  11.948 -0.8029 -0.0010 -0.6792
   8223SM  C17F10975   5.111   5.801  12.087  0.3637  0.9250 -0.5268
   8223SM  H17F10976   5.138   5.736  12.002  1.9949  1.1319 -0.1948
   8223SM  H17G10977   5.053   5.742  12.161 -1.1969  3.2040  0.1808
   8223SM  C18F10978   5.233   5.834  12.179 -0.5496  0.0420  0.2796
   8223SM  H18F10979   5.295   5.907  12.123 -1.1666  1.8044  1.7897
   8223SM  H18G10980   5.277   5.733  12.195 -0.6079 -0.4017 -2.0407
   8223SM  C19F10981   5.194   5.891  12.315 -0.5008 -0.2836 -0.3590
   8223SM  H19F10982   5.155   5.810  12.379 -0.5396 -0.2683 -0.3631
   8223SM  H19G10983   5.106   5.953  12.289  0.3038 -0.0566 -2.8793
   8223SM  C20F10984   5.303   5.957  12.400  0.6453 -0.4036 -0.6665
   8223SM  H20F10985   5.406   5.917  12.393  0.7274 -0.1352 -1.0663
   8223SM  H20G10986   5.276   5.962  12.507 -0.9894 -1.3544 -0.9948
   8223SM  C21F10987   5.320   6.109  12.383 -0.1100  0.0037  0.1046
   8223SM  H21F10988   5.220   6.148  12.411  0.9167  1.8458  1.3784
   8223SM  H21G10989   5.335   6.149  12.280 -0.1275 -0.1726  0.0319
   8223SM  C22F10990   5.409   6.177  12.492 -0.0786 -0.0172 -0.3060
   8223SM  H22F10991   5.514   6.178  12.455  0.1486 -2.8063  0.0812
   8223SM  H22G10992   5.412   6.112  12.581 -2.8196  3.6622  2.7793
   8223SM  C23F10993   5.358   6.311  12.533  0.0851 -0.5390 -0.4496
   8223SM  H23F10994   5.368   6.385  12.450  2.1658  0.2586  0.4479
   8223SM  H23G10995   5.419   6.352  12.616 -0.1907  0.7095 -0.8399
   8223SM  H23H10996   5.252   6.303  12.566 -0.3252 -0.2264 -1.6168
   8323SM     N10997   4.752   5.442  10.412 -0.4953  0.4334 -0.4061
   8323SM   C1510998   4.767   5.336  10.312 -0.1822  0.0476  0.2357
   8323SM  H15A10999   4.868   5.300  10.323  0.1947  0.2316 -2.0726
   8323SM  H15B11000   4.756   5.379  10.213 -0.7762 -2.3338 -0.8163
   8323SM  H15C11001   4.694   5.257  10.324  0.2510 -0.3806  0.1037
   8323SM   C1411002   4.854   5.546  10.410 -0.3641  0.1036  0.1990
   8323SM  H14A11003   4.944   5.505  10.456 -0.5688  0.0554  0.5596
   8323SM  H14B11004   4.827   5.633  10.467 -0.7203  0.0388  0.1293
   8323SM  H14C11005   4.888   5.573  10.311  0.7230  1.6725  0.9469
   8323SM   C1311006   4.620   5.505  10.394 -0.2934 -0.2039 -0.0219
   8323SM  H13A11007   4.607   5.583  10.468 -0.6247  1.9933 -2.2691
   8323SM  H13B11008   4.536   5.437  10.400  0.7759 -1.4520  1.3263
   8323SM  H13C11009   4.628   5.547  10.295  0.3398 -1.8969 -0.7226
   8323SM   C1211010   4.750   5.368  10.543  0.0677  0.6835  1.1879
   8323SM  H12A11011   4.663   5.304  10.534 -2.3637  3.2865  4.0585
   8323SM  H12B11012   4.738   5.437  10.625  1.2935  1.2431  0.9110
   8323SM   C1111013   4.877   5.282  10.576  0.0401 -0.1785  0.2250
   8323SM  H11A11014   4.892   5.194  10.510 -1.7125 -1.3470  1.3106
   8323SM  H11B11015   4.857   5.240  10.677 -0.7752 -1.8064 -0.5684
   8323SM     P11016   5.132   5.309  10.612  0.0747  0.2755  0.0861
   8323SM   O1311017   5.143   5.180  10.544  0.4957  0.3125  0.7035
   8323SM   O1411018   5.235   5.405  10.575 -0.0880  0.7788 -0.3572
   8323SM   O1111019   5.126   5.282  10.770  0.4191 -0.3593 -0.3185
   8323SM   O1211020   4.993   5.362  10.587 -0.2331  0.3626  0.2544
   8323SM   C1S11021   5.125   5.389  10.857  0.0909 -0.0554 -0.6657
   8323SM   H1S11022   5.028   5.441  10.846 -0.2064 -0.4259  0.0724
   8323SM   H1T11023   5.202   5.464  10.831 -0.4097  0.0058 -2.0580
   8323SM    NF11024   5.117   5.465  11.087  0.2580  0.0019 -0.3068
   8323SM   HNF11025   5.205   5.492  11.125 -1.0609  0.7298  2.5596
   8323SM   C2S11026   5.123   5.343  11.006 -0.1716  0.1349  0.2959
   8323SM   H2S11027   5.024   5.295  11.018 -0.2365  0.1719 -0.0729
   8323SM   C3S11028   5.235   5.244  11.035  0.7472  0.1626  0.3556
   8323SM   H3S11029   5.332   5.285  11.000  0.0599 -0.0643 -1.9897
   8323SM    O311030   5.238   5.127  10.957 -0.1022  0.5598 -0.4130
   8323SM   HO311031   5.176   5.159  10.891  0.4412  0.7130 -0.8575
   8323SM   C4S11032   5.235   5.210  11.180 -0.2607 -0.0863  0.2879
   8323SM   H4S11033   5.313   5.267  11.233 -0.6184 -0.1639  0.9005
   8323SM   C5S11034   5.163   5.115  11.246 -0.6282 -0.5927 -0.0714
   8323SM   H5S11035   5.085   5.063  11.189  0.5814 -0.7242 -1.6797
   8323SM   C6S11036   5.165   5.088  11.396 -0.0879  0.5534 -0.5142
   8323SM   H6S11037   5.239   5.006  11.413  0.1898  0.9623  0.2667
   8323SM   H6T11038   5.068   5.039  11.417  0.6185 -0.6668  0.0671
   8323SM   C7S11039   5.205   5.203  11.484 -0.3338  0.3511  0.3881
   8323SM   H7S11040   5.118   5.272  11.484 -0.8684 -0.3090  0.4152
   8323SM   H7T11041   5.303   5.248  11.460 -0.2655  0.7583  1.3720
   8323SM   C8S11042   5.239   5.160  11.628  0.5269  0.4167 -0.6254
   8323SM   H8S11043   5.297   5.065  11.624  1.8936  1.1699  0.4852
   8323SM   H8T11044   5.140   5.133  11.670 -0.2996  0.5350 -2.4015
   8323SM   C9S11045   5.315   5.256  11.708 -0.0340 -0.3169 -0.1001
   8323SM   H9S11046   5.380   5.320  11.644 -2.0255  3.3494  1.2284
   8323SM   H9T11047   5.374   5.206  11.787  0.1246  0.9297  0.6094
   8323SM  C10S11048   5.215   5.358  11.777  0.0643 -0.3529 -0.5615
   8323SM  H10S11049   5.119   5.312  11.807  0.9022 -1.8109  0.0020
   8323SM  H10T11050   5.195   5.441  11.706 -1.6948  0.4381  0.7954
   8323SM  C11S11051   5.268   5.427  11.905  0.3386 -0.3342 -0.1547
   8323SM  H11S11052   5.187   5.484  11.957  1.5724  1.5325 -0.2087
   8323SM  H11T11053   5.351   5.497  11.883  0.0180 -0.0043 -0.3360
   8323SM  C12S11054   5.326   5.330  12.017  0.5836 -0.3648  0.4711
   8323SM  H12S11055   5.420   5.285  11.977 -0.2457 -1.6379 -0.0792
   8323SM  H12T11056   5.242   5.262  12.042 -0.4729  0.6061 -0.3158
   8323SM  C13S11057   5.374   5.408  12.137  0.5736  0.1586 -0.4478
   8323SM  H13S11058   5.280   5.449  12.181 -1.4498 -3.6576 -0.7568
   8323SM  H13T11059   5.446   5.486  12.105  0.6105  0.7682  1.0311
   8323SM  C14S11060   5.449   5.319  12.233 -0.7425  0.1439 -0.3585
   8323SM  H14S11061   5.542   5.299  12.176  2.0472  2.8964  2.7559
   8323SM  H14T11062   5.405   5.219  12.254  1.0686 -0.4545  0.7827
   8323SM  C15S11063   5.482   5.386  12.364  0.6215  0.3299  0.4583
   8323SM  H15S11064   5.393   5.440  12.401 -0.4302  0.3424 -1.9391
   8323SM  H15T11065   5.564   5.456  12.335  1.3835 -0.4637  0.6499
   8323SM  C16S11066   5.543   5.309  12.482 -0.4528 -0.5784  0.9297
   8323SM  H16S11067   5.627   5.246  12.446  0.4483  0.2578  1.5233
   8323SM  H16T11068   5.472   5.239  12.532 -0.0168 -1.3152  0.5310
   8323SM  C17S11069   5.603   5.419  12.576 -0.0631  0.2739 -0.4592
   8323SM  H17S11070   5.514   5.484  12.596 -2.3672 -2.6355 -0.5632
   8323SM  H17T11071   5.682   5.472  12.519 -0.4861  1.4630  0.0347
   8323SM  C18S11072   5.670   5.361  12.705  0.3409 -0.0661 -0.1748
   8323SM  H18S11073   5.748   5.289  12.673  1.1724 -0.0091  1.5824
   8323SM  H18T11074   5.592   5.311  12.766  0.1633 -0.1870 -0.4998
   8323SM  H18U11075   5.716   5.434  12.776  0.8920 -1.3055  0.7946
   8323SM   C1F11076   5.006   5.541  11.105  0.8129 -1.4593 -0.0560
   8323SM    OF11077   4.897   5.499  11.057  0.0517  0.3195 -0.3607
   8323SM   C2F11078   5.017   5.672  11.179 -0.5626 -0.5351  0.2214
   8323SM   H2F11079   4.982   5.748  11.106 -0.0277 -0.4336  0.0625
   8323SM   H2G11080   5.121   5.685  11.217 -0.8699 -0.7373  1.1587
   8323SM   C3F11081   4.920   5.677  11.297  0.1224  0.2283  0.3787
   8323SM   H3F11082   4.819   5.650  11.262  0.1612 -1.0913  1.2144
   8323SM   H3G11083   4.904   5.784  11.323 -0.7783  0.1816  0.0460
   8323SM   C4F11084   4.948   5.587  11.421 -0.1457 -0.6944  0.2019
   8323SM   H4F11085   5.057   5.565  11.419 -0.0471 -0.2524  0.5661
   8323SM   H4G11086   4.902   5.488  11.402 -1.8176  0.1646 -0.3859
   8323SM   C5F11087   4.909   5.656  11.556  0.1316  0.1292 -0.1587
   8323SM   H5F11088   4.924   5.580  11.636 -1.4064 -0.4294 -0.3736
   8323SM   H5G11089   4.799   5.671  11.558 -0.1667 -1.7818  0.1784
   8323SM   C6F11090   4.989   5.781  11.598  0.7005 -0.3432  0.3854
   8323SM   H6F11091   4.937   5.833  11.681  0.2579 -1.4851  0.8490
   8323SM   H6G11092   5.001   5.850  11.512 -0.3479 -2.6762 -1.7600
   8323SM   C7F11093   5.125   5.738  11.650 -0.4509 -0.7086 -0.3469
   8323SM   H7F11094   5.172   5.694  11.559 -2.5749  0.1471 -1.9755
   8323SM   H7G11095   5.112   5.672  11.738 -3.2417 -0.2350 -0.3061
   8323SM   C8F11096   5.198   5.863  11.696 -0.1368  0.6188  0.5507
   8323SM   H8F11097   5.155   5.887  11.795  0.8569 -0.1941  1.1997
   8323SM   H8G11098   5.175   5.950  11.631 -2.4258  0.7538  1.4573
   8323SM   C9F11099   5.343   5.832  11.728  0.2357  0.2590 -0.8839
   8323SM   H9F11100   5.343   5.733  11.779  0.6625 -0.4614 -2.2352
   8323SM   H9G11101   5.392   5.904  11.797 -0.8155  2.4499 -2.3106
   8323SM  C10F11102   5.430   5.816  11.608  0.6814 -0.2743 -0.4859
   8323SM  H10F11103   5.442   5.920  11.569 -0.9154 -0.0414 -0.4320
   8323SM  H10G11104   5.390   5.760  11.521 -0.7536  1.3101 -0.9067
   8323SM  C11F11105   5.572   5.765  11.644  0.2823  0.3361 -0.0748
   8323SM  H11F11106   5.582   5.659  11.610  0.3771  0.5933 -0.8808
   8323SM  H11G11107   5.600   5.774  11.751  1.0906 -0.9542 -0.1558
   8323SM  C12F11108   5.674   5.830  11.561 -1.1347 -0.5786  0.1494
   8323SM  H12F11109   5.667   5.940  11.574 -1.0861 -0.2097 -2.3771
   8323SM  H12G11110   5.662   5.805  11.453 -1.6493 -2.1457  0.5480
   8323SM  C13F11111   5.819   5.790  11.607  0.2310  0.5287  0.0451
   8323SM  H13F11112   5.887   5.825  11.526 -1.9940  1.7772 -1.3810
   8323SM  H13G11113   5.837   5.681  11.617  3.5110  1.0185  0.5125
   8323SM  C14F11114   5.862   5.852  11.737  0.1396 -0.3186 -0.2961
   8323SM  H14F11115   5.804   5.818  11.825 -1.5799 -0.7638 -1.5425
   8323SM  H14G11116   5.855   5.963  11.735 -2.4901 -0.4196  0.3169
   8323SM  C15F11117   6.009   5.810  11.762  0.2708 -0.2696 -0.6871
   8323SM  H15F11118   6.067   5.861  11.682 -1.7758 -1.8187 -3.3261
   8323SM  H15G11119   6.025   5.701  11.755 -0.8735 -0.7971  2.9398
   8323SM  C16F11120   6.064   5.862  11.902 -0.0042 -0.0544  0.7303
   8323SM  H16F11121   6.175   5.853  11.890 -0.2234  1.0313 -4.2586
   8323SM  H16G11122   6.011   5.807  11.982 -2.0951  1.1098  0.2032
   8323SM  C17F11123   6.033   6.008  11.929  0.3662  0.3825 -0.1633
   8323SM  H17F11124   5.924   6.028  11.925 -0.1008 -1.4581  1.8453
   8323SM  H17G11125   6.085   6.057  11.844  0.0421 -0.9710 -1.1689
   8323SM  C18F11126   6.099   6.054  12.063 -0.2740  0.4529  0.4034
   8323SM  H18F11127   6.203   6.014  12.065 -0.2678  0.4843  0.9350
   8323SM  H18G11128   6.050   6.010  12.152  0.1483  0.1573  0.4923
   8323SM  C19F11129   6.112   6.204  12.081 -0.0904 -0.8123 -0.5004
   8323SM  H19F11130   6.179   6.256  12.009 -0.4741  2.4012  1.2911
   8323SM  H19G11131   6.142   6.215  12.187 -2.3355 -0.5722  0.1623
   8323SM  C20F11132   5.975   6.274  12.081  0.4342  0.2985  1.1160
   8323SM  H20F11133   5.902   6.211  12.136 -1.7144 -0.3079 -2.1368
   8323SM  H20G11134   5.934   6.291  11.979  1.3533  0.0286  0.6930
   8323SM  C21F11135   5.974   6.404  12.160  0.2148 -0.7461 -0.3866
   8323SM  H21F11136   6.028   6.399  12.257 -0.4338  3.1224  0.3224
   8323SM  H21G11137   5.875   6.425  12.205  1.0876 -1.6224  2.1620
   8323SM  C22F11138   6.015   6.527  12.074  0.3432  0.6513 -0.4812
   8323SM  H22F11139   5.942   6.524  11.991 -3.3875  1.1976  2.5158
   8323SM  H22G11140   6.117   6.510  12.032  0.4585  2.2890 -0.9481
   8323SM  C23F11141   6.009   6.656  12.159  0.3281  0.5236 -0.3757
   8323SM  H23F11142   5.913   6.666  12.213 -0.1404  0.6415 -1.2010
   8323SM  H23G11143   6.012   6.740  12.086 -1.0544 -0.6396 -1.8418
   8323SM  H23H11144   6.097   6.660  12.227  0.5010 -1.1238 -0.4588
   8423SM     N11145   4.415   2.611  10.596 -0.1377  0.0803 -0.6403
   8423SM   C1511146   4.449   2.465  10.615  0.1192  0.4506 -1.1254
   8423SM  H15A11147   4.493   2.454  10.712 -0.7384 -1.9142 -0.9546
   8423SM  H15B11148   4.519   2.434  10.539 -1.4976  1.9791 -3.3705
   8423SM  H15C11149   4.358   2.406  10.615  0.3850  0.0341 -0.6536
   8423SM   C1411150   4.533   2.693  10.602 -0.9210 -0.5325 -0.3815
   8423SM  H14A11151   4.575   2.682  10.701 -0.1301  1.2414 -0.4908
   8423SM  H14B11152   4.509   2.798  10.591  1.0329  0.1440  1.1564
   8423SM  H14C11153   4.611   2.668  10.532  0.0812  2.6117 -0.5442
   8423SM   C1311154   4.352   2.619  10.459 -0.1919 -0.2542  0.2389
   8423SM  H13A11155   4.342   2.720  10.424  0.5816 -0.7225 -1.4423
   8423SM  H13B11156   4.255   2.570  10.462  0.1204 -0.8426  2.0497
   8423SM  H13C11157   4.419   2.571  10.390  1.5345  0.7079  1.1953
   8423SM   C1211158   4.316   2.670  10.706 -0.2020 -0.6573  0.0391
   8423SM  H12A11159   4.225   2.611  10.705 -1.0991  0.6777  0.7645
   8423SM  H12B11160   4.282   2.767  10.673  0.9759 -0.6172 -1.1372
   8423SM   C1111161   4.376   2.690  10.845  0.4534  0.1579  1.3676
   8423SM  H11A11162   4.418   2.598  10.891 -0.5338 -2.1669 -1.9837
   8423SM  H11B11163   4.281   2.712  10.899 -0.8176 -2.9400  0.5807
   8423SM     P11164   4.528   2.830  10.985 -0.3044  0.3391 -0.2045
   8423SM   O1311165   4.620   2.943  10.964  0.0067 -0.5941 -0.0730
   8423SM   O1411166   4.420   2.845  11.082 -0.2622  0.1157  0.1480
   8423SM   O1111167   4.610   2.690  11.007 -0.5887 -0.1528 -0.3530
   8423SM   O1211168   4.467   2.803  10.837  0.4412  0.0915 -0.7740
   8423SM   C1S11169   4.684   2.676  11.127 -0.3752 -0.0620 -0.3345
   8423SM   H1S11170   4.684   2.777  11.174 -1.8417  0.5754 -1.5871
   8423SM   H1T11171   4.790   2.652  11.107 -0.6497 -0.8860 -0.8607
   8423SM    NF11172   4.692   2.556  11.355  0.6036  0.6053  0.4813
   8423SM   HNF11173   4.737   2.467  11.366 -2.1635 -1.6639 -3.7085
   8423SM   C2S11174   4.616   2.572  11.230  0.1238  0.2775 -0.7794
   8423SM   H2S11175   4.520   2.615  11.265  1.2280 -0.4428  3.6468
   8423SM   C3S11176   4.602   2.434  11.158  0.1255 -0.0595  0.3578
   8423SM   H3S11177   4.706   2.396  11.142 -0.1371 -0.5067 -0.3048
   8423SM    O311178   4.552   2.444  11.023  0.2413  0.3762  0.1685
   8423SM   HO311179   4.562   2.538  11.010  0.7937  0.5441  1.5973
   8423SM   C4S11180   4.535   2.327  11.242 -0.1230  0.2208 -0.2821
   8423SM   H4S11181   4.606   2.282  11.313 -1.2939 -0.2450  0.6232
   8423SM   C5S11182   4.408   2.296  11.250  0.1995 -0.5525 -0.1897
   8423SM   H5S11183   4.329   2.335  11.185  0.3661 -0.6810 -0.4689
   8423SM   C6S11184   4.357   2.183  11.339 -0.0746  0.6442  0.5706
   8423SM   H6S11185   4.304   2.109  11.276 -0.9798  1.3588  0.4768
   8423SM   H6T11186   4.283   2.221  11.413 -0.5897  0.4226  0.1714
   8423SM   C7S11187   4.466   2.096  11.408 -0.0329  0.5490  0.0565
   8423SM   H7S11188   4.539   2.157  11.466 -0.3502  1.3737 -0.3787
   8423SM   H7T11189   4.523   2.049  11.325 -1.5657 -2.8708  0.8097
   8423SM   C8S11190   4.417   1.975  11.484  0.5581 -0.1791  0.1954
   8423SM   H8S11191   4.506   1.923  11.527 -1.0819 -2.4234  1.1109
   8423SM   H8T11192   4.367   1.917  11.404 -0.4669 -0.5645  1.0839
   8423SM   C9S11193   4.321   2.011  11.601 -0.0509  0.4287  0.5658
   8423SM   H9S11194   4.232   2.056  11.551 -0.0361  0.7723  0.8392
   8423SM   H9T11195   4.366   2.094  11.660 -1.2346  0.1258  1.9384
   8423SM  C10S11196   4.289   1.901  11.700 -0.2133  0.3130 -0.0884
   8423SM  H10S11197   4.375   1.880  11.767 -1.7210  1.0478  2.1699
   8423SM  H10T11198   4.280   1.806  11.643 -0.9952 -0.1390  0.7623
   8423SM  C11S11199   4.160   1.933  11.782 -0.7510 -0.3531  0.2845
   8423SM  H11S11200   4.083   1.969  11.711  0.5541  2.8512  0.3452
   8423SM  H11T11201   4.175   2.026  11.841  1.0824 -0.1026 -0.5160
   8423SM  C12S11202   4.115   1.811  11.860 -0.2314  0.6957  0.4747
   8423SM  H12S11203   4.202   1.774  11.916  0.7867 -1.0224 -2.0598
   8423SM  H12T11204   4.100   1.730  11.786  0.2004  0.3120  0.8094
   8423SM  C13S11205   3.984   1.833  11.940  0.1841  0.2414  0.4950
   8423SM  H13S11206   3.907   1.880  11.876  0.4333  1.3608  0.9858
   8423SM  H13T11207   4.007   1.917  12.009  0.6068 -0.1364  0.8225
   8423SM  C14S11208   3.929   1.713  12.011 -0.3983 -0.2138 -0.3277
   8423SM  H14S11209   4.011   1.647  12.045 -0.1416  0.4869  0.4307
   8423SM  H14T11210   3.887   1.652  11.927 -0.0690  0.1342 -0.7517
   8423SM  C15S11211   3.813   1.735  12.108 -0.1005 -0.4338  0.3004
   8423SM  H15S11212   3.745   1.649  12.094  0.0063 -0.1796 -2.4148
   8423SM  H15T11213   3.760   1.830  12.087  0.0944 -0.0460  1.4961
   8423SM  C16S11214   3.859   1.735  12.253  0.4862 -0.4333 -0.4771
   8423SM  H16S11215   3.951   1.795  12.243  0.4968 -0.5839 -1.3796
   8423SM  H16T11216   3.887   1.629  12.270  2.3589  0.1998  0.6312
   8423SM  C17S11217   3.757   1.795  12.354 -0.3948 -0.0293  0.1105
   8423SM  H17S11218   3.660   1.745  12.333 -1.0850  1.0935  0.5191
   8423SM  H17T11219   3.755   1.906  12.353 -0.0109  0.0037  1.1020
   8423SM  C18S11220   3.780   1.753  12.498  0.7085 -0.6181 -0.2598
   8423SM  H18S11221   3.684   1.765  12.554  0.4064  0.0051 -0.8954
   8423SM  H18T11222   3.868   1.792  12.552  0.4828  1.0581 -1.0394
   8423SM  H18U11223   3.805   1.644  12.493  1.3183 -0.5515  0.9175
   8423SM   C1F11224   4.724   2.652  11.434  0.6159 -0.1568 -0.3189
   8423SM    OF11225   4.689   2.770  11.415 -0.5061  0.2139 -0.2940
   8423SM   C2F11226   4.803   2.613  11.557 -0.9771 -0.0659 -0.2938
   8423SM   H2F11227   4.833   2.507  11.540 -0.7947 -0.2580  1.0819
   8423SM   H2G11228   4.735   2.602  11.645 -0.1015 -0.5330  0.3399
   8423SM   C3F11229   4.919   2.708  11.589 -0.5720  0.2618 -0.1610
   8423SM   H3F11230   4.885   2.811  11.564  0.3799  0.3821 -1.0271
   8423SM   H3G11231   5.002   2.675  11.523 -1.5901 -0.1884 -1.2401
   8423SM   C4F11232   4.977   2.730  11.730  0.5314  0.2246  0.3166
   8423SM   H4F11233   4.883   2.723  11.790  0.4743 -0.0024  0.2036
   8423SM   H4G11234   5.023   2.830  11.746  2.2741 -0.3680 -0.7918
   8423SM   C5F11235   5.067   2.606  11.759  0.4368 -0.7348  0.4558
   8423SM   H5F11236   5.141   2.580  11.680  0.7679  1.8639 -0.1649
   8423SM   H5G11237   4.996   2.521  11.766 -0.3151 -0.0400  1.6420
   8423SM   C6F11238   5.134   2.627  11.895 -0.3698 -0.5353 -0.8156
   8423SM   H6F11239   5.054   2.656  11.967  0.3029  1.6680 -0.8841
   8423SM   H6G11240   5.211   2.707  11.895 -0.1562 -0.6754  1.1510
   8423SM   C7F11241   5.208   2.504  11.945  0.8785 -0.0093  0.0973
   8423SM   H7F11242   5.298   2.482  11.884 -1.0357 -1.5760 -2.3859
   8423SM   H7G11243   5.150   2.408  11.945 -0.0429  0.5313  0.1630
   8423SM   C8F11244   5.252   2.526  12.092 -0.4773  0.8439 -0.2795
   8423SM   H8F11245   5.167   2.554  12.157  0.1635  3.5705 -0.4639
   8423SM   H8G11246   5.327   2.608  12.103 -1.0739  1.3136  0.3925
   8423SM   C9F11247   5.334   2.407  12.144  0.5549  0.8123 -0.0278
   8423SM   H9F11248   5.286   2.312  12.112  0.2129  0.4677  1.4269
   8423SM   H9G11249   5.327   2.407  12.255 -2.0636  0.0661 -0.1449
   8423SM  C10F11250   5.481   2.418  12.103 -0.0911  0.3386 -0.5503
   8423SM  H10F11251   5.531   2.499  12.159  0.3935  1.9311 -3.0931
   8423SM  H10G11252   5.483   2.445  11.995  0.2509  2.7138 -0.0068
   8423SM  C11F11253   5.564   2.283  12.123  0.0681  0.4953  0.0562
   8423SM  H11F11254   5.665   2.320  12.097  0.0581 -0.0127 -0.7538
   8423SM  H11G11255   5.529   2.206  12.051  1.5621 -0.4294  0.2828
   8423SM  C12F11256   5.562   2.241  12.273 -0.3113 -0.0075 -0.3663
   8423SM  H12F11257   5.461   2.208  12.305  0.6225 -2.1567  0.5968
   8423SM  H12G11258   5.585   2.336  12.325  1.2922  0.6265 -2.1556
   8423SM  C13F11259   5.652   2.118  12.303 -0.7529 -0.2858  0.7147
   8423SM  H13F11260   5.665   2.114  12.413 -0.4452  3.0369  0.8968
   8423SM  H13G11261   5.755   2.142  12.269 -0.1627  0.0950  2.6865
   8423SM  C14F11262   5.602   1.982  12.253  0.3072 -0.3352 -0.9528
   8423SM  H14F11263   5.629   1.952  12.150 -2.4712  0.8485 -2.1242
   8423SM  H14G11264   5.492   1.998  12.243  0.5538  1.7352 -0.8499
   8423SM  C15F11265   5.635   1.867  12.349 -0.3127  0.1031 -0.3962
   8423SM  H15F11266   5.678   1.908  12.443 -2.0013  2.0089 -0.3807
   8423SM  H15G11267   5.722   1.814  12.306  0.1657  0.5287  0.0327
   8423SM  C16F11268   5.520   1.781  12.405  0.6434  0.4983  0.1154
   8423SM  H16F11269   5.569   1.704  12.469 -0.3397  0.2133  0.5349
   8423SM  H16G11270   5.468   1.733  12.319 -1.3262  3.8672 -0.7406
   8423SM  C17F11271   5.421   1.861  12.488  0.8467 -0.1483 -0.4304
   8423SM  H17F11272   5.359   1.917  12.415  2.9215  1.5095 -1.0254
   8423SM  H17G11273   5.477   1.930  12.555  0.9049  0.0007 -0.6345
   8423SM  C18F11274   5.320   1.778  12.571  0.0354  0.0608  0.3665
   8423SM  H18F11275   5.257   1.729  12.494  0.0960  2.0279 -0.9922
   8423SM  H18G11276   5.246   1.843  12.622 -1.5293 -0.4760 -1.1376
   8423SM  C19F11277   5.391   1.688  12.675  0.0716  0.4217 -0.9173
   8423SM  H19F11278   5.442   1.605  12.622  0.0784 -1.1691  1.3999
   8423SM  H19G11279   5.306   1.643  12.731  1.8724 -0.6602  1.1102
   8423SM  C20F11280   5.504   1.760  12.757  0.1207  0.1791  0.0126
   8423SM  H20F11281   5.467   1.857  12.799 -1.5341 -0.0676 -0.7924
   8423SM  H20G11282   5.587   1.775  12.686  1.7378 -1.0461  1.5518
   8423SM  C21F11283   5.536   1.671  12.868  0.0089  1.1260 -0.2070
   8423SM  H21F11284   5.570   1.571  12.833  0.3178 -0.3914  3.8433
   8423SM  H21G11285   5.447   1.658  12.932  1.1198  1.7767  1.5441
   8423SM  C22F11286   5.645   1.721  12.962  0.1613 -0.1069 -0.1390
   8423SM  H22F11287   5.739   1.738  12.905 -0.0851  3.0321  0.2010
   8423SM  H22G11288   5.664   1.633  13.027 -2.3777 -0.1808  0.6145
   8423SM  C23F11289   5.605   1.849  13.029 -0.0239 -0.5533 -0.3942
   8423SM  H23F11290   5.604   1.924  12.948  1.0626  0.7300  0.7310
   8423SM  H23G11291   5.674   1.888  13.108 -0.4645  1.6071 -1.0210
   8423SM  H23H11292   5.506   1.832  13.077  1.0397 -2.8960  1.1965
   8523SM     N11293   5.521   3.710   9.896  0.6784 -0.4088 -1.1638
   8523SM   C1511294   5.647   3.790   9.930  0.3770  0.3294 -0.5207
   8523SM  H15A11295   5.632   3.897   9.930  0.6260  0.3759 -1.7830
   8523SM  H15B11296   5.721   3.776   9.852 -0.8976  0.7081 -1.8445
   8523SM  H15C11297   5.684   3.755  10.025 -0.0708 -0.5324 -0.6563
   8523SM   C1411298   5.473   3.762   9.770  0.5829  0.2974  0.1710
   8523SM  H14A11299   5.438   3.863   9.776  1.0272  0.5047 -0.4982
   8523SM  H14B11300   5.391   3.703   9.732  2.7868 -1.6223 -2.0363
   8523SM  H14C11301   5.543   3.765   9.687 -1.6634  1.9727 -1.7804
   8523SM   C1311302   5.554   3.565   9.894  0.2907  0.4000 -0.1392
   8523SM  H13A11303   5.472   3.502   9.861  0.1918 -0.7181  2.0296
   8523SM  H13B11304   5.578   3.537   9.996 -2.4611 -2.0816 -0.0343
   8523SM  H13C11305   5.637   3.549   9.828  1.0161  0.4478  0.7386
   8523SM   C1211306   5.415   3.749  10.003 -0.6189  0.8906 -0.3981
   8523SM  H12A11307   5.322   3.695   9.990 -0.4561  0.5193 -0.0256
   8523SM  H12B11308   5.395   3.855  10.008  1.1288  1.1937  1.6220
   8523SM   C1111309   5.451   3.721  10.154  0.3630  0.7517 -0.2770
   8523SM  H11A11310   5.465   3.612  10.168 -2.3599  0.5048  1.1633
   8523SM  H11B11311   5.371   3.748  10.227  0.9193 -0.4235  0.8027
   8523SM     P11312   5.557   3.966  10.238 -0.0118  0.1607 -0.5926
   8523SM   O1311313   5.692   4.011  10.283 -0.1067 -0.2651  0.0465
   8523SM   O1411314   5.500   4.043  10.127  0.0048 -0.4287  0.4986
   8523SM   O1111315   5.454   3.992  10.354  0.2531 -0.0983  0.1006
   8523SM   O1211316   5.562   3.800  10.203 -0.0771 -0.8580 -0.2074
   8523SM   C1S11317   5.452   3.899  10.465 -0.1110 -0.2686 -0.1970
   8523SM   H1S11318   5.554   3.863  10.493 -0.2798 -1.0392 -0.5374
   8523SM   H1T11319   5.385   3.811  10.457  1.2847 -1.3692 -0.2337
   8523SM    NF11320   5.395   3.878  10.715 -0.2130  0.6622  0.1381
   8523SM   HNF11321   5.307   3.837  10.737  0.5414 -0.5695  1.0233
   8523SM   C2S11322   5.410   3.972  10.599 -0.4036  0.1588 -0.4469
   8523SM   H2S11323   5.496   4.035  10.629  0.5330 -0.7290 -1.1928
   8523SM   C3S11324   5.293   4.070  10.582 -0.3151 -0.3701  0.0918
   8523SM   H3S11325   5.202   4.006  10.579 -1.3031  0.7859  2.7072
   8523SM    O311326   5.293   4.157  10.474 -0.3039 -0.0323  0.0226
   8523SM   HO311327   5.347   4.107  10.412  1.2055  0.5267  0.8409
   8523SM   C4S11328   5.259   4.142  10.716  0.2699 -0.0288 -0.3144
   8523SM   H4S11329   5.200   4.074  10.777 -0.0852 -0.9352 -1.6271
   8523SM   C5S11330   5.307   4.256  10.767 -0.0499 -0.4473 -0.5867
   8523SM   H5S11331   5.383   4.314  10.712 -2.3109  1.7328 -1.6397
   8523SM   C6S11332   5.269   4.320  10.899  0.1741 -0.5369 -0.2609
   8523SM   H6S11333   5.197   4.400  10.872 -0.3633 -0.0443  2.3834
   8523SM   H6T11334   5.353   4.371  10.951 -1.0868  1.6158 -0.2336
   8523SM   C7S11335   5.200   4.225  10.995 -0.4074 -0.2764  0.3533
   8523SM   H7S11336   5.256   4.132  11.014  2.4301  1.0752 -0.8301
   8523SM   H7T11337   5.099   4.200  10.954 -0.1980 -1.1991  0.3877
   8523SM   C8S11338   5.173   4.286  11.128 -0.1119 -0.3467 -0.9051
   8523SM   H8S11339   5.097   4.215  11.166 -0.7507 -0.4365 -2.2891
   8523SM   H8T11340   5.135   4.389  11.111  1.7419  0.0525 -3.0622
   8523SM   C9S11341   5.293   4.305  11.227 -0.9542  0.3335  0.1709
   8523SM   H9S11342   5.371   4.369  11.180 -0.8115 -0.1073 -0.2020
   8523SM   H9T11343   5.325   4.203  11.259 -1.4645 -0.3586 -1.3792
   8523SM  C10S11344   5.262   4.377  11.358  0.4495  0.0303 -0.1673
   8523SM  H10S11345   5.189   4.309  11.408  1.1503 -1.0136 -0.5255
   8523SM  H10T11346   5.218   4.477  11.341 -0.2850  0.1597  2.1339
   8523SM  C11S11347   5.383   4.391  11.455 -0.3812  0.1460  0.2419
   8523SM  H11S11348   5.464   4.449  11.405 -2.1267  1.4492 -1.2173
   8523SM  H11T11349   5.426   4.289  11.469  1.3450  0.9355  0.9981
   8523SM  C12S11350   5.345   4.454  11.586  0.0854 -0.1992 -0.2263
   8523SM  H12S11351   5.287   4.546  11.564  0.0175 -0.4480 -1.1571
   8523SM  H12T11352   5.437   4.477  11.643 -0.5721  2.0457 -0.0061
   8523SM  C13S11353   5.263   4.363  11.681 -0.0613  0.4763 -0.4235
   8523SM  H13S11354   5.274   4.256  11.656 -0.6287 -0.2335  2.0442
   8523SM  H13T11355   5.155   4.389  11.671  0.1478  1.2235 -0.7969
   8523SM  C14S11356   5.295   4.379  11.832 -0.7008 -0.0917 -0.1497
   8523SM  H14S11357   5.319   4.486  11.853  0.1861 -0.2120 -0.4905
   8523SM  H14T11358   5.386   4.318  11.852 -0.6531 -0.0954 -0.3690
   8523SM  C15S11359   5.180   4.321  11.926  0.3092 -0.7413 -0.7984
   8523SM  H15S11360   5.150   4.218  11.896 -0.0358 -0.1866 -2.4019
   8523SM  H15T11361   5.088   4.382  11.917 -0.4666 -1.6687  0.4408
   8523SM  C16S11362   5.221   4.305  12.077 -0.0165  0.7265 -0.4523
   8523SM  H16S11363   5.236   4.398  12.136  0.9725  0.5043 -0.3412
   8523SM  H16T11364   5.319   4.253  12.078  0.6237  1.8961 -0.5962
   8523SM  C17S11365   5.127   4.218  12.164  0.6890 -0.3492 -0.2793
   8523SM  H17S11366   5.106   4.121  12.114  0.4583 -0.7045  0.4966
   8523SM  H17T11367   5.035   4.274  12.189  0.2133 -1.4978  0.6082
   8523SM  C18S11368   5.186   4.185  12.298  0.1938  0.0894 -0.1345
   8523SM  H18S11369   5.295   4.169  12.291  0.1604 -1.2144  1.7338
   8523SM  H18T11370   5.132   4.104  12.352 -0.2876 -0.3604 -1.2744
   8523SM  H18U11371   5.182   4.278  12.360 -0.4238  0.2598 -0.4163
   8523SM   C1F11372   5.494   3.822  10.773 -0.2692  0.5222  0.1544
   8523SM    OF11373   5.608   3.854  10.735  0.1681  0.2273  0.3355
   8523SM   C2F11374   5.461   3.729  10.893  0.9251  0.6633  0.1601
   8523SM   H2F11375   5.537   3.648  10.902 -1.7356 -2.1874 -0.9020
   8523SM   H2G11376   5.373   3.669  10.860  2.3221 -2.1416  1.2154
   8523SM   C3F11377   5.431   3.811  11.023 -0.6728  0.4143 -0.1436
   8523SM   H3F11378   5.373   3.747  11.092 -1.1125 -0.4289 -1.2674
   8523SM   H3G11379   5.365   3.897  11.000 -1.6379 -0.2377  0.1387
   8523SM   C4F11380   5.558   3.851  11.098  0.0921  0.0655  0.2218
   8523SM   H4F11381   5.533   3.899  11.195  0.1355 -0.0845  0.3082
   8523SM   H4G11382   5.598   3.937  11.040 -0.4297 -0.7775 -1.4635
   8523SM   C5F11383   5.662   3.742  11.126 -0.3990 -0.6694 -0.0815
   8523SM   H5F11384   5.697   3.690  11.034 -0.4216 -2.0348  0.6571
   8523SM   H5G11385   5.615   3.671  11.196 -0.3230 -0.3771  0.2712
   8523SM   C6F11386   5.784   3.801  11.199 -0.3106 -0.0946 -0.3046
   8523SM   H6F11387   5.762   3.872  11.282 -1.1904 -0.7104  0.0109
   8523SM   H6G11388   5.843   3.848  11.118 -0.0349 -2.2328 -1.4152
   8523SM   C7F11389   5.864   3.684  11.255 -0.1205  0.5014  0.2384
   8523SM   H7F11390   5.894   3.608  11.179  1.7370  0.8627  0.5663
   8523SM   H7G11391   5.803   3.627  11.328  0.7831 -0.3417  0.3663
   8523SM   C8F11392   5.996   3.730  11.327  0.4885 -0.0583  0.4420
   8523SM   H8F11393   6.049   3.804  11.263 -0.2163  1.6139  1.7180
   8523SM   H8G11394   6.052   3.636  11.346 -1.1404 -1.1431  0.0393
   8523SM   C9F11395   5.965   3.801  11.461  0.2839 -0.6073 -0.8439
   8523SM   H9F11396   5.915   3.724  11.524  0.6425  1.6709  2.4901
   8523SM   H9G11397   5.899   3.890  11.461  0.4764 -0.4243  1.0745
   8523SM  C10F11398   6.103   3.842  11.528  0.2271  0.3467 -0.0544
   8523SM  H10F11399   6.176   3.842  11.444  0.0146  0.2943 -0.2413
   8523SM  H10G11400   6.145   3.765  11.596 -0.8616  1.0284  1.4253
   8523SM  C11F11401   6.109   3.976  11.599 -0.0795 -0.5281 -0.5835
   8523SM  H11F11402   6.027   3.987  11.673  0.0009 -1.4703 -0.3414
   8523SM  H11G11403   6.106   4.058  11.525 -1.5580 -0.2661 -0.2578
   8523SM  C12F11404   6.248   3.987  11.671 -0.0098 -0.1626  0.5158
   8523SM  H12F11405   6.324   3.967  11.592  0.3646  0.3561  0.7406
   8523SM  H12G11406   6.267   3.906  11.746 -0.0052 -0.3525  0.3110
   8523SM  C13F11407   6.269   4.124  11.738 -0.7975  0.1972 -0.2365
   8523SM  H13F11408   6.242   4.205  11.668 -0.1411  1.3380  0.7965
   8523SM  H13G11409   6.374   4.136  11.774 -0.5739 -1.7623 -0.1297
   8523SM  C14F11410   6.200   4.139  11.876 -0.3764  0.0201 -0.7639
   8523SM  H14F11411   6.246   4.055  11.931  0.7048  1.0906  0.0125
   8523SM  H14G11412   6.089   4.138  11.876 -0.4677  2.2625  0.8764
   8523SM  C15F11413   6.234   4.271  11.950  0.2993  0.4360 -0.2443
   8523SM  H15F11414   6.200   4.353  11.884 -1.0430 -1.8473 -2.5929
   8523SM  H15G11415   6.345   4.274  11.951  0.3458  2.1867 -2.5628
   8523SM  C16F11416   6.182   4.296  12.088  0.0698  0.0081  0.0715
   8523SM  H16F11417   6.077   4.331  12.087  0.1731  0.3429 -1.3509
   8523SM  H16G11418   6.230   4.388  12.127  1.7595 -0.3177 -1.1520
   8523SM  C17F11419   6.222   4.196  12.191  0.2268 -0.0711 -0.4084
   8523SM  H17F11420   6.330   4.175  12.174 -0.1101 -1.8272 -0.6004
   8523SM  H17G11421   6.171   4.098  12.180  1.6231 -0.8131 -0.5703
   8523SM  C18F11422   6.200   4.243  12.339  0.3481  0.2577  0.3590
   8523SM  H18F11423   6.089   4.248  12.333  0.1311 -3.2800 -1.1384
   8523SM  H18G11424   6.245   4.343  12.357 -0.3747  0.7072 -0.2184
   8523SM  C19F11425   6.254   4.139  12.446  0.0950 -0.4746  0.8024
   8523SM  H19F11426   6.360   4.172  12.440  0.0158 -0.3928 -0.2313
   8523SM  H19G11427   6.217   4.039  12.416  0.9700 -0.1872 -1.4189
   8523SM  C20F11428   6.200   4.152  12.590 -0.6943  0.4853 -0.2968
   8523SM  H20F11429   6.213   4.259  12.618  0.4638  0.1726  0.3953
   8523SM  H20G11430   6.265   4.085  12.650 -0.0741 -1.8188 -3.2587
   8523SM  C21F11431   6.061   4.094  12.610  0.1844 -0.0558  0.6332
   8523SM  H21F11432   6.066   3.984  12.617 -3.3082 -0.3314  0.2803
   8523SM  H21G11433   6.002   4.110  12.517 -1.1065 -0.5386  1.3412
   8523SM  C22F11434   5.997   4.137  12.740 -0.2528  0.3850 -0.5146
   8523SM  H22F11435   5.968   4.243  12.724 -0.0546  0.3924 -0.8255
   8523SM  H22G11436   6.054   4.131  12.835 -0.9860 -2.3569 -0.1647
   8523SM  C23F11437   5.862   4.065  12.770 -0.3975 -0.4727 -0.1272
   8523SM  H23F11438   5.896   3.959  12.774  2.2909  0.3487  1.8653
   8523SM  H23G11439   5.794   4.076  12.683 -0.0377 -3.9295 -0.9976
   8523SM  H23H11440   5.820   4.089  12.870  1.0116 -1.8792  0.8579
   8623SM     N11441   3.428   2.497  10.765 -0.3285  0.0427  1.0315
   8623SM   C1511442   3.418   2.479  10.908 -0.8731 -0.3247 -0.0531
   8623SM  H15A11443   3.330   2.420  10.925  0.2724 -1.6774  1.4914
   8623SM  H15B11444   3.417   2.573  10.963 -0.0461  0.1763 -0.8591
   8623SM  H15C11445   3.500   2.417  10.940 -0.3073  0.6917  0.5384
   8623SM   C1411446   3.440   2.358  10.703  0.4322  0.1222 -0.2035
   8623SM  H14A11447   3.360   2.297  10.744  0.4730  0.9043  1.0792
   8623SM  H14B11448   3.534   2.314  10.731 -0.0135 -1.0327 -0.4439
   8623SM  H14C11449   3.446   2.352  10.595  0.0739  0.6983 -0.2606
   8623SM   C1311450   3.301   2.561  10.722  0.0198 -0.4499 -0.5157
   8623SM  H13A11451   3.226   2.486  10.699 -0.1549 -0.1790 -0.8334
   8623SM  H13B11452   3.317   2.619  10.632  1.8751 -1.0265 -0.5881
   8623SM  H13C11453   3.263   2.618  10.806  1.2354 -1.3500  0.6891
   8623SM   C1211454   3.557   2.572  10.736 -0.2543  0.3541  0.7623
   8623SM  H12A11455   3.539   2.677  10.758 -1.4867 -0.0880  2.0652
   8623SM  H12B11456   3.571   2.568  10.629  0.4364  1.0464  0.8186
   8623SM   C1111457   3.699   2.523  10.795  0.4264  0.4727 -0.0850
   8623SM  H11A11458   3.708   2.569  10.895  0.3724 -0.6300  0.4498
   8623SM  H11B11459   3.774   2.561  10.722 -1.1123 -0.1872 -2.1320
   8623SM     P11460   3.759   2.299  10.915 -0.2399 -0.1747 -0.1206
   8623SM   O1311461   3.641   2.232  10.982 -0.3346  0.3016 -0.0652
   8623SM   O1411462   3.871   2.217  10.874 -0.0191 -0.1636  0.3036
   8623SM   O1111463   3.816   2.402  11.013  0.1146 -0.4513 -0.0029
   8623SM   O1211464   3.707   2.380  10.791 -0.1282 -0.0326 -0.0128
   8623SM   C1S11465   3.744   2.453  11.127 -0.0943 -0.1964  0.4473
   8623SM   H1S11466   3.634   2.442  11.115  0.3019 -2.2103 -2.2117
   8623SM   H1T11467   3.763   2.562  11.132 -3.0100  0.5312 -1.7171
   8623SM    NF11468   3.675   2.437  11.363 -0.7384  1.0809 -0.4030
   8623SM   HNF11469   3.728   2.480  11.435  2.2920 -1.0645 -1.1335
   8623SM   C2S11470   3.765   2.377  11.260 -0.5416 -0.5198 -0.6822
   8623SM   H2S11471   3.734   2.271  11.246  1.1764 -1.3725  1.3410
   8623SM   C3S11472   3.918   2.372  11.290 -0.5639  1.1463 -0.3855
   8623SM   H3S11473   3.955   2.477  11.285 -1.3429  1.4063 -0.7289
   8623SM    O311474   3.994   2.293  11.206 -0.4120 -0.0371 -0.1934
   8623SM   HO311475   3.943   2.302  11.125  0.9283  1.9555 -0.8875
   8623SM   C4S11476   3.940   2.309  11.427  0.3342 -0.0731  0.0286
   8623SM   H4S11477   3.907   2.205  11.439 -0.7413 -0.2456 -3.5017
   8623SM   C5S11478   3.998   2.358  11.532  0.1508  0.1589  0.6847
   8623SM   H5S11479   4.037   2.461  11.528 -1.8090  1.0100  2.1525
   8623SM   C6S11480   4.006   2.289  11.665 -0.4418 -0.3660  0.0600
   8623SM   H6S11481   4.111   2.255  11.678 -1.5617 -3.7330  1.4708
   8623SM   H6T11482   3.940   2.200  11.665 -3.0693  1.4436 -0.7128
   8623SM   C7S11483   3.969   2.390  11.773 -0.1384  0.3513 -0.4580
   8623SM   H7S11484   3.865   2.419  11.749 -0.8277 -2.3341 -0.9319
   8623SM   H7T11485   4.041   2.474  11.761  1.0134 -0.4586  0.5187
   8623SM   C8S11486   3.989   2.323  11.919  0.0460  0.3631 -0.8986
   8623SM   H8S11487   3.987   2.398  12.002  2.3080 -0.5450  0.0621
   8623SM   H8T11488   4.078   2.258  11.934 -0.2843  0.3997  1.8837
   8623SM   C9S11489   3.874   2.231  11.961  0.3464 -0.0083 -0.1319
   8623SM   H9S11490   3.868   2.133  11.910 -1.4626  0.8705 -1.6898
   8623SM   H9T11491   3.775   2.272  11.934 -0.5307 -1.2342  1.0758
   8623SM  C10S11492   3.863   2.212  12.115 -0.1403 -0.5980  0.9578
   8623SM  H10S11493   3.794   2.128  12.138 -2.2235  1.0260  0.9101
   8623SM  H10T11494   3.805   2.298  12.156 -0.2002 -0.6575  0.9991
   8623SM  C11S11495   3.994   2.195  12.192 -0.6199 -0.4953 -0.8154
   8623SM  H11S11496   4.069   2.276  12.179  1.2077 -1.9247  0.2881
   8623SM  H11T11497   4.043   2.101  12.157 -1.4264 -2.0147  1.8240
   8623SM  C12S11498   3.961   2.178  12.344 -0.1222 -0.1646 -0.7194
   8623SM  H12S11499   3.850   2.173  12.351 -0.0035 -0.7347  1.1531
   8623SM  H12T11500   3.988   2.270  12.400  1.1543 -1.6083  1.1636
   8623SM  C13S11501   4.025   2.054  12.412 -0.1450  0.3962 -0.3264
   8623SM  H13S11502   4.136   2.055  12.407 -0.1929  0.1727 -1.8350
   8623SM  H13T11503   3.990   1.958  12.370 -0.7488  0.9082 -1.0223
   8623SM  C14S11504   3.993   2.058  12.562 -0.7420  0.2738  0.4261
   8623SM  H14S11505   3.886   2.039  12.582 -0.6744 -0.1825  0.3738
   8623SM  H14T11506   4.024   2.160  12.594  3.1133  0.3493 -2.7155
   8623SM  C15S11507   4.079   1.953  12.631 -0.3386  0.7789 -0.2278
   8623SM  H15S11508   4.181   1.973  12.593 -0.6160 -1.3721 -2.3298
   8623SM  H15T11509   4.048   1.852  12.598  2.1855 -0.0140 -0.3623
   8623SM  C16S11510   4.077   1.974  12.784  0.3562 -0.4264  0.8611
   8623SM  H16S11511   4.086   2.084  12.794  3.3465 -0.2691 -1.9020
   8623SM  H16T11512   4.174   1.939  12.825 -0.1390 -0.2649  2.2358
   8623SM  C17S11513   3.957   1.899  12.852  0.5827  0.3831  0.6024
   8623SM  H17S11514   3.873   1.961  12.815  3.6030  2.9210 -2.8153
   8623SM  H17T11515   3.972   1.916  12.961  0.3227  0.0434  0.6915
   8623SM  C18S11516   3.953   1.747  12.838 -0.4638  0.7454 -0.5039
   8623SM  H18S11517   3.949   1.717  12.731  0.4724 -0.1641 -0.2942
   8623SM  H18T11518   3.873   1.704  12.901 -0.2449  0.3182 -0.5160
   8623SM  H18U11519   4.051   1.702  12.864 -0.4087  0.6492 -0.8748
   8623SM   C1F11520   3.547   2.418  11.373  0.1226 -0.2422  0.1238
   8623SM    OF11521   3.488   2.337  11.307  0.2647 -0.7853  0.7815
   8623SM   C2F11522   3.475   2.496  11.477  0.0374  0.5852 -0.1182
   8623SM   H2F11523   3.548   2.537  11.549  0.5089  1.7832 -1.2452
   8623SM   H2G11524   3.410   2.428  11.537  2.3817 -1.5959  0.1511
   8623SM   C3F11525   3.389   2.614  11.418 -0.2317  0.5093 -0.1480
   8623SM   H3F11526   3.309   2.573  11.354  0.6514  0.7132 -1.4052
   8623SM   H3G11527   3.467   2.677  11.370  2.4055 -0.5625  2.3819
   8623SM   C4F11528   3.326   2.703  11.530 -0.3659  0.0769 -0.3386
   8623SM   H4F11529   3.407   2.700  11.606 -0.7767  1.5930  0.1887
   8623SM   H4G11530   3.239   2.658  11.581 -1.0915  0.5621 -1.1261
   8623SM   C5F11531   3.294   2.849  11.490 -0.7571  0.0044  0.9517
   8623SM   H5F11532   3.228   2.839  11.401 -1.5322 -3.0459  1.7211
   8623SM   H5G11533   3.388   2.903  11.466 -2.1966  1.5903 -1.4673
   8623SM   C6F11534   3.222   2.917  11.609 -0.5918 -0.5566  0.9161
   8623SM   H6F11535   3.125   2.863  11.613 -0.2334 -1.1991  1.0941
   8623SM   H6G11536   3.209   3.025  11.586 -0.0080 -0.5165  0.7502
   8623SM   C7F11537   3.295   2.896  11.744  0.3231  0.7207 -0.5135
   8623SM   H7F11538   3.403   2.908  11.722  0.4508  0.5265 -0.0199
   8623SM   H7G11539   3.289   2.793  11.785  2.0511  0.0606 -1.7779
   8623SM   C8F11540   3.251   2.992  11.852 -0.3243  0.1509  0.0512
   8623SM   H8F11541   3.141   2.983  11.867 -0.3453  1.1020  0.5774
   8623SM   H8G11542   3.273   3.095  11.815  0.4271 -0.1467 -0.3434
   8623SM   C9F11543   3.324   2.964  11.981 -0.0592  0.1168 -0.0110
   8623SM   H9F11544   3.430   2.985  11.956  0.2800 -1.2084  0.2299
   8623SM   H9G11545   3.309   2.861  12.021  2.3182 -0.5291 -0.6632
   8623SM  C10F11546   3.273   3.049  12.093  0.6803 -0.1352  0.7055
   8623SM  H10F11547   3.275   3.153  12.055  2.7347 -0.0037  1.0426
   8623SM  H10G11548   3.341   3.053  12.181 -0.2353  1.1022  1.3878
   8623SM  C11F11549   3.124   3.018  12.144 -0.0834  0.3826  0.2968
   8623SM  H11F11550   3.059   2.994  12.057 -0.6560 -1.7936  1.2559
   8623SM  H11G11551   3.088   3.110  12.195  0.5519 -0.5636  2.5593
   8623SM  C12F11552   3.119   2.903  12.243 -0.3599  0.4320 -0.5113
   8623SM  H12F11553   3.215   2.916  12.298  0.5860  0.1493 -2.0259
   8623SM  H12G11554   3.130   2.805  12.191 -1.6232 -0.7120  1.2650
   8623SM  C13F11555   3.006   2.906  12.345  0.1522  0.1053  0.9254
   8623SM  H13F11556   2.984   3.010  12.379  2.1838  0.6040  0.8872
   8623SM  H13G11557   3.029   2.854  12.441 -0.6989  2.1366  2.3077
   8623SM  C14F11558   2.878   2.839  12.293  0.5047 -0.2685 -0.6122
   8623SM  H14F11559   2.879   2.732  12.322  1.4883  0.2589  1.4919
   8623SM  H14G11560   2.865   2.842  12.183  0.5446 -0.9043 -0.6378
   8623SM  C15F11561   2.749   2.896  12.351  0.4293  0.1919  0.5568
   8623SM  H15F11562   2.733   2.995  12.303  2.1828 -0.3183 -1.2130
   8623SM  H15G11563   2.766   2.922  12.458 -0.6219 -0.0732  0.8011
   8623SM  C16F11564   2.619   2.811  12.335 -0.5893 -0.2466 -0.1284
   8623SM  H16F11565   2.533   2.881  12.333 -1.3696 -1.1424 -2.8187
   8623SM  H16G11566   2.610   2.734  12.414  0.4258  1.4074  1.6944
   8623SM  C17F11567   2.600   2.749  12.200  0.4085  0.5312 -0.0354
   8623SM  H17F11568   2.668   2.661  12.189 -0.4579 -0.0913 -0.5745
   8623SM  H17G11569   2.638   2.815  12.119 -0.5596 -1.4545 -2.2213
   8623SM  C18F11570   2.454   2.702  12.166  0.5163  0.2331  0.5200
   8623SM  H18F11571   2.388   2.751  12.242 -2.0220  1.1519 -2.1026
   8623SM  H18G11572   2.446   2.596  12.197  3.1320  0.2970  1.6479
   8623SM  C19F11573   2.408   2.726  12.024  0.0154 -0.0182  1.1967
   8623SM  H19F11574   2.410   2.835  12.004  2.3480  0.8965  5.2069
   8623SM  H19G11575   2.301   2.695  12.022  0.3305 -1.1834  1.2288
   8623SM  C20F11576   2.496   2.651  11.924 -0.1483  0.5937  0.4011
   8623SM  H20F11577   2.501   2.544  11.956 -0.6168  0.7508  1.0185
   8623SM  H20G11578   2.599   2.690  11.933 -0.6233  1.7616  0.9965
   8623SM  C21F11579   2.452   2.651  11.772  0.4692 -0.0915 -0.3942
   8623SM  H21F11580   2.439   2.756  11.739  3.0586 -0.0176 -1.4221
   8623SM  H21G11581   2.352   2.602  11.775 -1.3177  3.3108 -0.0160
   8623SM  C22F11582   2.541   2.575  11.670 -0.2755 -0.0133  0.0792
   8623SM  H22F11583   2.582   2.481  11.712  0.0197  0.2215  0.3239
   8623SM  H22G11584   2.638   2.628  11.659 -0.1637 -0.3600 -0.6845
   8623SM  C23F11585   2.483   2.542  11.533  0.2528  0.3658  0.0478
   8623SM  H23F11586   2.451   2.631  11.474  2.7552  1.2275 -0.1623
   8623SM  H23G11587   2.400   2.468  11.535 -0.2490  0.9318  0.5375
   8623SM  H23H11588   2.563   2.488  11.477  0.2856 -0.9399  1.3260
   8723SM     N11589   5.337   2.622  10.809 -0.2927 -0.4074  0.0179
   8723SM   C1511590   5.448   2.705  10.744 -0.1487 -0.5838 -0.0960
   8723SM  H15A11591   5.411   2.759  10.657  0.9458 -0.3019 -0.4000
   8723SM  H15B11592   5.527   2.646  10.701  0.6896  0.7629 -0.4692
   8723SM  H15C11593   5.498   2.779  10.804  0.6411 -0.7232 -0.5709
   8723SM   C1411594   5.244   2.705  10.887 -0.2372 -0.0876  0.5113
   8723SM  H14A11595   5.297   2.752  10.969 -1.1047 -0.2457  1.1813
   8723SM  H14B11596   5.167   2.644  10.932 -2.0920  0.8390 -1.2380
   8723SM  H14C11597   5.205   2.780  10.821  1.2663  0.7497  0.5408
   8723SM   C1311598   5.276   2.543  10.704  0.8038 -0.9948 -0.2353
   8723SM  H13A11599   5.254   2.602  10.616 -1.2794 -1.0473  0.1892
   8723SM  H13B11600   5.183   2.506  10.744  0.6288  1.2655  1.6888
   8723SM  H13C11601   5.345   2.463  10.682  2.9966  0.6169  0.3898
   8723SM   C1211602   5.402   2.527  10.909  0.1617  0.2362 -0.0729
   8723SM  H12A11603   5.461   2.586  10.978 -3.1144  2.3227  1.1588
   8723SM  H12B11604   5.476   2.467  10.858 -0.6255 -2.3025  1.5776
   8723SM   C1111605   5.310   2.443  11.004 -0.1065 -0.3006  0.3670
   8723SM  H11A11606   5.254   2.514  11.069  1.8131  0.6932  1.0212
   8723SM  H11B11607   5.363   2.370  11.068 -1.6645 -0.9719  0.9493
   8723SM     P11608   5.065   2.364  10.956 -0.0540  0.1116  0.4934
   8723SM   O1311609   5.002   2.497  10.972 -0.0243 -0.2631 -0.0779
   8723SM   O1411610   4.999   2.273  10.862 -0.0269 -0.1014  0.1934
   8723SM   O1111611   5.063   2.305  11.098 -1.1489  0.0381  0.5542
   8723SM   O1211612   5.224   2.364  10.923  0.1834 -0.1077 -0.1219
   8723SM   C1S11613   5.062   2.164  11.127 -1.0865 -0.0423 -0.1180
   8723SM   H1S11614   5.153   2.113  11.091 -1.0017 -0.2604  0.3978
   8723SM   H1T11615   4.979   2.109  11.077 -0.2453 -3.2627  1.7086
   8723SM    NF11616   5.068   1.995  11.306  0.0215 -0.3021 -0.1784
   8723SM   HNF11617   4.990   1.935  11.322  0.7195 -1.0491  0.4965
   8723SM   C2S11618   5.044   2.139  11.277 -0.3464 -0.3592  0.0336
   8723SM   H2S11619   5.117   2.194  11.340 -1.5120 -1.0971  2.1196
   8723SM   C3S11620   4.907   2.193  11.332  0.4515  0.4453 -0.0343
   8723SM   H3S11621   4.824   2.162  11.265 -0.8861  1.7953  0.9162
   8723SM    O311622   4.894   2.333  11.329 -0.2649  0.2110 -0.5126
   8723SM   HO311623   4.979   2.366  11.299  1.4169 -2.9871  0.2874
   8723SM   C4S11624   4.870   2.135  11.472 -0.0209  0.4062  0.2720
   8723SM   H4S11625   4.793   2.057  11.471 -1.5875  1.8250  2.2521
   8723SM   C5S11626   4.907   2.170  11.595 -0.4424 -0.3445 -0.4681
   8723SM   H5S11627   4.975   2.256  11.605 -1.6192  0.4728  0.7934
   8723SM   C6S11628   4.860   2.123  11.730 -0.3556 -0.0563 -0.1495
   8723SM   H6S11629   4.842   2.216  11.789  0.0021  0.1533 -0.3671
   8723SM   H6T11630   4.944   2.070  11.779  0.5669  1.5472  0.0630
   8723SM   C7S11631   4.740   2.025  11.735  0.1976 -0.1674 -0.0567
   8723SM   H7S11632   4.766   1.937  11.672 -1.6306 -0.2677 -0.7397
   8723SM   H7T11633   4.649   2.074  11.693 -0.3999 -0.6270  0.6781
   8723SM   C8S11634   4.710   1.985  11.879  0.3634  0.8956  0.4753
   8723SM   H8S11635   4.808   1.960  11.924  0.3018 -4.4277 -1.5583
   8723SM   H8T11636   4.647   1.893  11.879 -0.4570  1.4394  1.7783
   8723SM   C9S11637   4.648   2.096  11.961  0.3096 -0.3363  0.3064
   8723SM   H9S11638   4.554   2.134  11.917 -0.9498 -4.4807 -1.0314
   8723SM   H9T11639   4.716   2.184  11.951  1.5771 -1.4622 -1.5460
   8723SM  C10S11640   4.609   2.049  12.100  0.0150 -0.6053 -0.0381
   8723SM  H10S11641   4.567   2.132  12.159 -4.2959 -0.9420 -2.2285
   8723SM  H10T11642   4.706   2.022  12.148  1.5696  1.3943 -1.8425
   8723SM  C11S11643   4.510   1.932  12.119 -0.7968 -0.6814 -0.1706
   8723SM  H11S11644   4.548   1.879  12.209 -0.1583 -0.4767 -0.3181
   8723SM  H11T11645   4.522   1.863  12.033 -3.9759 -2.7988  0.8587
   8723SM  C12S11646   4.364   1.970  12.136  0.4619  0.0960 -0.1923
   8723SM  H12S11647   4.326   1.990  12.034 -0.7177 -0.3778  0.1478
   8723SM  H12T11648   4.356   2.062  12.198 -1.1746  0.2109 -0.5404
   8723SM  C13S11649   4.295   1.845  12.194  0.0982 -0.1779 -0.6858
   8723SM  H13S11650   4.333   1.764  12.127  1.3145 -1.2659  1.2042
   8723SM  H13T11651   4.186   1.856  12.180 -0.0104  0.5865  0.5871
   8723SM  C14S11652   4.313   1.807  12.345  0.0757 -0.0677 -0.0745
   8723SM  H14S11653   4.282   1.903  12.392 -0.7558  0.2183 -1.1635
   8723SM  H14T11654   4.420   1.797  12.372  0.7627  2.5228 -1.4550
   8723SM  C15S11655   4.224   1.687  12.385  0.0884 -0.7457  0.2319
   8723SM  H15S11656   4.116   1.712  12.380  0.2601 -0.0920 -0.2475
   8723SM  H15T11657   4.247   1.652  12.488  1.8637 -0.8776 -0.1750
   8723SM  C16S11658   4.243   1.557  12.292  0.0730 -0.1273  0.9483
   8723SM  H16S11659   4.206   1.578  12.190 -0.2839 -1.7735  0.7144
   8723SM  H16T11660   4.186   1.475  12.340  1.4692 -0.4770  2.0870
   8723SM  C17S11661   4.389   1.508  12.280  0.3288 -1.3224  0.2914
   8723SM  H17S11662   4.432   1.506  12.382  1.6888 -0.6851 -0.2504
   8723SM  H17T11663   4.451   1.586  12.232 -2.2342 -1.0650 -3.0036
   8723SM  C18S11664   4.404   1.378  12.206 -0.5386 -0.1202  0.7476
   8723SM  H18S11665   4.338   1.386  12.118  0.0012  0.3067  0.3772
   8723SM  H18T11666   4.377   1.293  12.272  1.6034 -0.1417  1.6917
   8723SM  H18U11667   4.508   1.362  12.170 -0.7591  1.8837 -0.9517
   8723SM   C1F11668   5.188   1.948  11.292 -0.6758  0.1936  0.4767
   8723SM    OF11669   5.280   2.016  11.244  0.8724  0.4526  0.3816
   8723SM   C2F11670   5.204   1.803  11.339 -0.6387 -0.1313 -0.0943
   8723SM   H2F11671   5.105   1.755  11.328 -1.0527  0.2312  1.6968
   8723SM   H2G11672   5.210   1.814  11.449 -0.5335  0.6827 -0.1710
   8723SM   C3F11673   5.322   1.729  11.266 -0.3652  0.1468  0.9498
   8723SM   H3F11674   5.415   1.788  11.281 -0.4073  0.3947  0.2726
   8723SM   H3G11675   5.301   1.720  11.157 -0.1636 -1.1556  1.0068
   8723SM   C4F11676   5.351   1.586  11.315  0.2108  0.0287 -0.1798
   8723SM   H4F11677   5.435   1.540  11.259  2.9573  1.8276  2.1691
   8723SM   H4G11678   5.263   1.524  11.288  0.4675 -0.5472  0.3002
   8723SM   C5F11679   5.391   1.564  11.463  0.4031  0.2360  0.0207
   8723SM   H5F11680   5.431   1.461  11.474 -0.9611 -0.0861  2.6541
   8723SM   H5G11681   5.300   1.577  11.525 -0.1669 -0.5900 -0.6122
   8723SM   C6F11682   5.505   1.661  11.514  0.4586  0.3617  0.3457
   8723SM   H6F11683   5.456   1.759  11.530 -0.0523 -0.0289  1.2032
   8723SM   H6G11684   5.573   1.665  11.426  0.0247 -0.2508 -0.0250
   8723SM   C7F11685   5.576   1.606  11.638  0.0635  0.5655  0.6532
   8723SM   H7F11686   5.671   1.659  11.660  1.2555 -1.0513 -0.3084
   8723SM   H7G11687   5.617   1.504  11.621 -0.8557  0.2639  0.1837
   8723SM   C8F11688   5.471   1.614  11.746 -0.3993  0.6470  0.0337
   8723SM   H8F11689   5.391   1.540  11.727 -0.2644  0.6398 -0.5209
   8723SM   H8G11690   5.420   1.713  11.750 -1.8043 -0.0320 -0.2480
   8723SM   C9F11691   5.524   1.584  11.890 -1.1611  0.4302  0.2844
   8723SM   H9F11692   5.634   1.585  11.880 -1.2515 -0.2996 -0.9592
   8723SM   H9G11693   5.499   1.478  11.915 -1.6503 -0.2486 -2.7204
   8723SM  C10F11694   5.473   1.686  11.997 -0.5183  0.0665  0.2086
   8723SM  H10F11695   5.483   1.790  11.959 -1.5682  0.2904  0.5139
   8723SM  H10G11696   5.540   1.676  12.085  0.0334 -0.9780 -0.3086
   8723SM  C11F11697   5.327   1.654  12.057 -0.4998 -0.1591 -0.0104
   8723SM  H11F11698   5.258   1.659  11.970  3.1948  2.1575 -3.1197
   8723SM  H11G11699   5.293   1.743  12.113 -0.5505  1.1059 -1.9550
   8723SM  C12F11700   5.330   1.528  12.145  0.2112 -0.0613  0.9541
   8723SM  H12F11701   5.401   1.535  12.231 -1.6437  1.4865  2.4496
   8723SM  H12G11702   5.363   1.449  12.075 -0.5598 -1.0355  1.6626
   8723SM  C13F11703   5.196   1.497  12.213  0.2238  0.3647  0.2379
   8723SM  H13F11704   5.118   1.478  12.136  1.5926 -1.5188 -0.7704
   8723SM  H13G11705   5.171   1.594  12.260  0.2080 -0.5861  2.2969
   8723SM  C14F11706   5.193   1.385  12.317  0.3880  0.3765  0.3253
   8723SM  H14F11707   5.211   1.287  12.267  3.0725  0.2482  1.4054
   8723SM  H14G11708   5.090   1.381  12.358  1.0265 -1.6287  1.8901
   8723SM  C15F11709   5.293   1.410  12.432 -0.1533 -0.0330 -0.2298
   8723SM  H15F11710   5.286   1.513  12.474  1.8804 -0.3600  1.0269
   8723SM  H15G11711   5.396   1.407  12.392  0.5102 -0.9000  1.4413
   8723SM  C16F11712   5.259   1.317  12.550  0.3223 -0.0682 -0.3842
   8723SM  H16F11713   5.230   1.215  12.517 -0.5265  0.7359 -2.2613
   8723SM  H16G11714   5.178   1.362  12.611 -0.9198 -0.8564 -1.4280
   8723SM  C17F11715   5.379   1.306  12.640 -0.2037 -0.4312  0.3016
   8723SM  H17F11716   5.413   1.402  12.683 -0.7496  0.6378 -1.5548
   8723SM  H17G11717   5.464   1.282  12.571 -0.9379  1.2320 -1.2691
   8723SM  C18F11718   5.374   1.192  12.745 -0.2024 -0.1690 -0.2206
   8723SM  H18F11719   5.348   1.099  12.692 -1.3731 -0.4041  0.7123
   8723SM  H18G11720   5.285   1.213  12.809  0.7953  4.7507 -0.0610
   8723SM  C19F11721   5.500   1.168  12.822 -0.7345  0.7362 -0.0679
   8723SM  H19F11722   5.576   1.124  12.754 -1.2703 -3.0408  1.4936
   8723SM  H19G11723   5.464   1.093  12.896 -1.1745  0.6609 -0.3507
   8723SM  C20F11724   5.562   1.288  12.892  0.6486  0.7836 -0.3923
   8723SM  H20F11725   5.604   1.360  12.817  1.1517  1.2546  0.3327
   8723SM  H20G11726   5.656   1.260  12.942  1.2280  0.5104 -1.5883
   8723SM  C21F11727   5.472   1.369  12.994  0.3241 -0.3111 -0.0597
   8723SM  H21F11728   5.386   1.409  12.937 -0.0329  0.2449  0.8533
   8723SM  H21G11729   5.529   1.454  13.038 -2.8444  1.4254  1.0308
   8723SM  C22F11730   5.424   1.287  13.115 -0.6753  0.6568  0.1516
   8723SM  H22F11731   5.517   1.247  13.161 -1.3955 -0.0639  1.0271
   8723SM  H22G11732   5.371   1.195  13.084  0.2441 -0.2845  1.2649
   8723SM  C23F11733   5.357   1.366  13.223 -0.2679  0.1954 -0.5501
   8723SM  H23F11734   5.389   1.471  13.210  3.2319 -0.5619  0.8542
   8723SM  H23G11735   5.378   1.325  13.324 -3.9134 -2.2882 -0.5689
   8723SM  H23H11736   5.246   1.356  13.214 -0.4729  0.8047  1.0135
   8823SM     N11737   1.147   1.943  10.290 -0.4332  0.3727  0.1068
   8823SM   C1511738   1.029   2.037  10.267 -0.2972 -0.5526  0.9203
   8823SM  H15A11739   1.025   2.083  10.365  0.2707  2.1703 -0.2365
   8823SM  H15B11740   0.942   1.981  10.238  0.2483 -0.5845 -0.7374
   8823SM  H15C11741   1.053   2.118  10.200  0.5009 -1.4597  0.0739
   8823SM   C1411742   1.108   1.838  10.388  0.1311 -0.3995 -0.1452
   8823SM  H14A11743   1.067   1.889  10.474 -1.8437 -0.2773 -1.0815
   8823SM  H14B11744   1.188   1.776  10.425  0.3609 -0.1425 -0.2146
   8823SM  H14C11745   1.019   1.785  10.354 -0.9249 -0.6291  2.7313
   8823SM   C1311746   1.188   1.874  10.157 -0.5813  0.2367  0.6194
   8823SM  H13A11747   1.261   1.795  10.171  0.0518  0.6209 -0.3740
   8823SM  H13B11748   1.234   1.948  10.093 -0.4157 -1.0757 -0.8503
   8823SM  H13C11749   1.098   1.858  10.101 -0.3615  1.6642 -0.1932
   8823SM   C1211750   1.261   2.021  10.353 -0.0360 -0.9043  0.1994
   8823SM  H12A11751   1.289   2.105  10.292  0.8888  0.4978  2.4415
   8823SM  H12B11752   1.353   1.965  10.351  0.2632 -0.5049  1.5663
   8823SM   C1111753   1.238   2.092  10.492  0.1917 -0.3551 -0.4184
   8823SM  H11A11754   1.334   2.133  10.530 -0.0146 -3.1193  3.7354
   8823SM  H11B11755   1.214   2.010  10.564 -2.9383  0.0949 -0.7723
   8823SM     P11756   1.152   2.344  10.459 -0.0984 -0.5287 -0.1869
   8823SM   O1311757   1.247   2.363  10.340  0.2896  1.3322 -0.5252
   8823SM   O1411758   1.025   2.415  10.435  0.9108 -0.3829  0.3830
   8823SM   O1111759   1.223   2.398  10.593 -0.3544  0.9494  0.8361
   8823SM   O1211760   1.129   2.187  10.476  0.0295  0.0542  0.0100
   8823SM   C1S11761   1.205   2.331  10.722  0.1493  0.1926  0.0386
   8823SM   H1S11762   1.203   2.221  10.706  1.6182 -0.2407  2.3870
   8823SM   H1T11763   1.112   2.358  10.778 -1.9357  0.2408 -3.1608
   8823SM    NF11764   1.299   2.285  10.945  0.0890 -0.1899  0.8593
   8823SM   HNF11765   1.287   2.341  11.026  0.6593  0.1726  0.6995
   8823SM   C2S11766   1.327   2.356  10.820 -0.3738 -0.1501 -0.7963
   8823SM   H2S11767   1.416   2.301  10.781 -0.6558 -0.4167 -1.0667
   8823SM   C3S11768   1.374   2.508  10.815  0.1603 -0.2799 -0.6957
   8823SM   H3S11769   1.285   2.573  10.829  1.3059  1.3435 -0.6179
   8823SM    O311770   1.428   2.553  10.694 -0.4970 -0.0295  0.3787
   8823SM   HO311771   1.401   2.486  10.631 -1.7179  1.6640 -1.0081
   8823SM   C4S11772   1.471   2.534  10.926 -0.2918 -0.1772  0.3385
   8823SM   H4S11773   1.558   2.466  10.922  0.7905  0.9287  2.8404
   8823SM   C5S11774   1.458   2.610  11.032  0.3135 -0.4275  0.3802
   8823SM   H5S11775   1.360   2.654  11.055  0.7050 -0.6299  2.7914
   8823SM   C6S11776   1.559   2.638  11.138 -0.0997 -0.3675  0.5518
   8823SM   H6S11777   1.651   2.578  11.124  0.2206  0.4331 -0.9876
   8823SM   H6T11778   1.518   2.621  11.240  3.2930 -2.4548  1.7325
   8823SM   C7S11779   1.606   2.785  11.130 -0.2396 -0.0049  0.3482
   8823SM   H7S11780   1.641   2.798  11.025 -0.2723 -0.9902  0.2070
   8823SM   H7T11781   1.695   2.792  11.196  1.4131 -0.6671 -1.6955
   8823SM   C8S11782   1.510   2.899  11.177  0.0132  0.1712  0.0061
   8823SM   H8S11783   1.417   2.880  11.120  0.4683 -1.9374 -0.1298
   8823SM   H8T11784   1.558   2.992  11.140 -0.5270  0.7743  0.7888
   8823SM   C9S11785   1.480   2.905  11.325  0.8524 -0.4659  0.4643
   8823SM   H9S11786   1.418   2.817  11.353  0.6008 -0.2906  0.4578
   8823SM   H9T11787   1.432   3.002  11.350 -0.6799 -0.9384 -0.5114
   8823SM  C10S11788   1.605   2.901  11.419  0.4948  0.5387 -0.2698
   8823SM  H10S11789   1.668   2.988  11.393  0.3413  0.6446 -0.2924
   8823SM  H10T11790   1.655   2.802  11.408 -1.1951 -0.2869 -0.9255
   8823SM  C11S11791   1.569   2.923  11.572 -0.1974 -0.2605  0.2894
   8823SM  H11S11792   1.506   3.014  11.585  1.5008  0.7522  1.9232
   8823SM  H11T11793   1.660   2.943  11.632  0.9743 -4.1997  0.1043
   8823SM  C12S11794   1.485   2.816  11.637  0.1193  0.5447  0.3525
   8823SM  H12S11795   1.552   2.729  11.651  0.1775  0.2811 -1.3786
   8823SM  H12T11796   1.394   2.787  11.581 -1.3395  1.6066  2.0456
   8823SM  C13S11797   1.440   2.857  11.781  0.2341  0.1645 -0.0586
   8823SM  H13S11798   1.524   2.897  11.841  0.2872  2.3263 -1.4336
   8823SM  H13T11799   1.412   2.763  11.831  2.9029 -0.3317  0.6536
   8823SM  C14S11800   1.326   2.952  11.782  0.5654  0.3842 -0.0177
   8823SM  H14S11801   1.250   2.923  11.706 -0.7145  0.3055  1.2477
   8823SM  H14T11802   1.358   3.056  11.765  0.2530  0.5269  0.2369
   8823SM  C15S11803   1.238   2.962  11.908 -0.4378 -0.5327  0.2807
   8823SM  H15S11804   1.305   3.016  11.979 -0.5296 -0.8147  0.5874
   8823SM  H15T11805   1.222   2.863  11.956  1.5525 -1.0555 -0.0909
   8823SM  C16S11806   1.110   3.038  11.909 -0.1359 -0.7571  0.8510
   8823SM  H16S11807   1.043   2.996  11.832 -0.1894 -2.9908  2.0533
   8823SM  H16T11808   1.110   3.148  11.891 -0.5032 -0.9607 -0.5388
   8823SM  C17S11809   1.038   3.009  12.048 -0.0001 -0.0173  0.9611
   8823SM  H17S11810   1.094   3.067  12.124 -1.1890  0.5342  1.4441
   8823SM  H17T11811   1.043   2.899  12.065  1.1118 -0.4449 -1.5901
   8823SM  C18S11812   0.889   3.054  12.058 -0.4750  0.1477 -0.7933
   8823SM  H18S11813   0.871   3.153  12.011  3.1129  1.3614  0.1272
   8823SM  H18T11814   0.866   3.072  12.165 -1.3085 -0.3858 -0.8757
   8823SM  H18U11815   0.812   2.982  12.023 -2.8169  2.3916 -0.5454
   8823SM   C1F11816   1.252   2.159  10.956  0.3752  0.2789 -0.5374
   8823SM    OF11817   1.259   2.075  10.869  0.7308  0.2092  0.1853
   8823SM   C2F11818   1.189   2.128  11.087  0.1009 -0.7425 -1.1419
   8823SM   H2F11819   1.141   2.220  11.125 -0.1708 -1.3606  0.0773
   8823SM   H2G11820   1.272   2.108  11.159 -1.1955  0.5220  0.7734
   8823SM   C3F11821   1.079   2.019  11.088 -0.5391  0.6342 -0.0575
   8823SM   H3F11822   1.127   1.927  11.049  3.0191  2.1846  0.1681
   8823SM   H3G11823   0.993   2.040  11.021  0.2754  3.3134 -0.3903
   8823SM   C4F11824   1.014   1.996  11.232  0.8004  0.5508 -0.3634
   8823SM   H4F11825   0.930   1.926  11.214  1.5474 -0.5628  0.4065
   8823SM   H4G11826   0.962   2.087  11.269 -1.4052 -0.6500 -0.3075
   8823SM   C5F11827   1.110   1.934  11.331  0.1367  0.0378  0.3717
   8823SM   H5F11828   1.205   1.993  11.333 -1.0468  2.0858  2.4851
   8823SM   H5G11829   1.137   1.836  11.287 -1.9980 -0.3508 -0.1775
   8823SM   C6F11830   1.053   1.921  11.470  0.1814  0.6382 -0.4467
   8823SM   H6F11831   0.970   1.847  11.477  0.8890 -0.1481 -0.2443
   8823SM   H6G11832   1.006   2.019  11.492 -3.0941 -0.6187 -1.1274
   8823SM   C7F11833   1.157   1.898  11.580 -0.4134  0.0373  0.0805
   8823SM   H7F11834   1.264   1.924  11.560 -0.7887  2.9957  1.3669
   8823SM   H7G11835   1.130   1.795  11.613  1.4923 -1.5887 -2.9503
   8823SM   C8F11836   1.141   2.000  11.702  0.2161 -0.8900 -0.0599
   8823SM   H8F11837   1.147   2.099  11.653 -1.4288 -0.9108 -0.3778
   8823SM   H8G11838   1.217   1.980  11.780 -2.8301 -2.0698  2.8978
   8823SM   C9F11839   1.008   1.982  11.773  0.1912  0.7224 -0.3442
   8823SM   H9F11840   0.997   1.875  11.799 -2.7299  0.9042 -0.4578
   8823SM   H9G11841   0.933   1.992  11.692 -0.9321 -3.9289 -0.1762
   8823SM  C10F11842   0.977   2.084  11.884 -0.6190 -0.1980 -0.2603
   8823SM  H10F11843   0.873   2.057  11.911 -0.0609 -1.1205  1.0808
   8823SM  H10G11844   0.974   2.189  11.849  2.2278  0.2543  0.6177
   8823SM  C11F11845   1.074   2.060  11.999  0.0021 -0.3675 -0.7832
   8823SM  H11F11846   1.174   2.094  11.964 -0.0177 -1.4319 -1.9197
   8823SM  H11G11847   1.086   1.950  12.003  0.9474 -0.2794 -0.9931
   8823SM  C12F11848   1.047   2.119  12.137 -0.1625 -0.1806 -0.6515
   8823SM  H12F11849   0.941   2.097  12.162 -0.0897  1.2593  1.1598
   8823SM  H12G11850   1.038   2.230  12.146 -2.7156 -0.4261  0.8343
   8823SM  C13F11851   1.136   2.056  12.238  0.2293  0.2832 -0.2995
   8823SM  H13F11852   1.241   2.092  12.250 -0.8351  3.5310  0.4432
   8823SM  H13G11853   1.141   1.948  12.213 -1.9880  0.0529  0.0898
   8823SM  C14F11854   1.064   2.085  12.368  0.5885  0.0730 -0.3341
   8823SM  H14F11855   0.960   2.046  12.365  0.5857 -0.3755  2.8960
   8823SM  H14G11856   1.071   2.192  12.398  0.2710 -0.6242  2.4209
   8823SM  C15F11857   1.131   2.019  12.483 -0.1880  0.0041 -0.1869
   8823SM  H15F11858   1.233   2.062  12.478  0.2743 -0.8456  1.3249
   8823SM  H15G11859   1.145   1.912  12.455 -0.0345  0.4514 -1.9222
   8823SM  C16F11860   1.062   2.041  12.618  0.7622 -0.1834  0.5642
   8823SM  H16F11861   0.963   1.990  12.610  0.5907  0.1007  0.8580
   8823SM  H16G11862   1.020   2.144  12.619 -1.1889 -0.9262  0.5349
   8823SM  C17F11863   1.146   2.003  12.740  0.1011 -0.3323  1.0586
   8823SM  H17F11864   1.246   2.050  12.729  0.0648 -0.7665 -2.0576
   8823SM  H17G11865   1.163   1.893  12.746  1.5908 -0.2864 -1.1848
   8823SM  C18F11866   1.108   2.055  12.882  0.2874  0.2194  0.4693
   8823SM  H18F11867   1.095   2.166  12.887  1.3012  0.5208 -2.0952
   8823SM  H18G11868   1.194   2.036  12.950  0.9541  1.4515 -0.0006
   8823SM  C19F11869   0.982   1.991  12.942 -0.5309  0.3355 -0.0468
   8823SM  H19F11870   0.984   1.881  12.928  0.5886  0.2314  0.8071
   8823SM  H19G11871   0.896   2.026  12.881 -1.1615  0.9894  1.1833
   8823SM  C20F11872   0.959   2.013  13.088 -0.1896  0.4222 -0.1892
   8823SM  H20F11873   1.040   1.957  13.139 -0.1458  1.2946  0.7224
   8823SM  H20G11874   0.871   1.951  13.113  2.3587 -2.9980  1.0119
   8823SM  C21F11875   0.969   2.154  13.153  0.0280  0.6095  0.2619
   8823SM  H21F11876   0.889   2.219  13.111 -1.5943 -0.9548  0.7436
   8823SM  H21G11877   1.067   2.189  13.117 -0.4953  0.3352 -1.5568
   8823SM  C22F11878   0.975   2.152  13.305  0.1991 -0.0916 -0.8181
   8823SM  H22F11879   0.886   2.100  13.348  0.5283  0.1677  0.2192
   8823SM  H22G11880   0.974   2.259  13.338 -2.7784 -0.1420 -0.4540
   8823SM  C23F11881   1.095   2.086  13.361  0.1721  0.0547  0.0596
   8823SM  H23F11882   1.083   1.977  13.338 -0.3733  0.4787 -1.8571
   8823SM  H23G11883   1.095   2.087  13.472  1.3447 -1.3645  0.1120
   8823SM  H23H11884   1.192   2.133  13.333  0.5419 -0.3097  0.6862
   8923SM     N11885   5.688   2.111  10.303 -0.4038  0.4866  0.2441
   8923SM   C1511886   5.739   2.015  10.194  0.0010 -0.0441  0.0979
   8923SM  H15A11887   5.841   2.037  10.166 -0.6870  0.3751 -2.2627
   8923SM  H15B11888   5.673   2.029  10.110  0.5473 -1.5516 -0.6172
   8923SM  H15C11889   5.731   1.914  10.233 -1.6488  0.8499  2.3054
   8923SM   C1411890   5.703   2.250  10.246 -0.0779  1.1559  0.0677
   8923SM  H14A11891   5.801   2.255  10.201  0.6565 -1.6121  1.1431
   8923SM  H14B11892   5.697   2.325  10.323  2.6803  0.2795  1.2719
   8923SM  H14C11893   5.635   2.274  10.166 -0.2641  1.8480  0.4323
   8923SM   C1311894   5.547   2.083  10.334  0.3199 -0.1362 -0.3962
   8923SM  H13A11895   5.536   1.981  10.367 -1.3677  0.1465  0.0511
   8923SM  H13B11896   5.494   2.120  10.247 -0.8612  0.4870  0.5471
   8923SM  H13C11897   5.515   2.147  10.415 -0.6923 -0.4009 -0.5746
   8923SM   C1211898   5.775   2.088  10.422 -0.7337  0.2886  0.2403
   8923SM  H12A11899   5.876   2.120  10.401 -0.7506  0.0491 -0.2300
   8923SM  H12B11900   5.786   1.983  10.442  1.2187  0.6649  1.4709
   8923SM   C1111901   5.743   2.159  10.556  0.0990 -0.1407 -0.1462
   8923SM  H11A11902   5.832   2.153  10.621 -0.5814  1.1752  0.9474
   8923SM  H11B11903   5.663   2.104  10.611 -0.8225  2.5704  1.4381
   8923SM     P11904   5.599   2.385  10.607 -0.4692  0.2083  0.3349
   8923SM   O1311905   5.618   2.531  10.574  0.1756 -0.4509 -0.1951
   8923SM   O1411906   5.467   2.328  10.586 -0.1123 -0.0555  0.6577
   8923SM   O1111907   5.623   2.371  10.765 -0.2148  0.7548  0.3307
   8923SM   O1211908   5.706   2.298  10.539 -0.2267  0.1608 -0.1702
   8923SM   C1S11909   5.757   2.390  10.819 -0.0363  0.3724 -0.2027
   8923SM   H1S11910   5.783   2.498  10.817  1.3857  0.1429  1.9368
   8923SM   H1T11911   5.833   2.324  10.772  1.2408  0.3465  1.7731
   8923SM    NF11912   5.898   2.380  11.030  0.7278  0.0095  0.4230
   8923SM   HNF11913   5.960   2.304  11.047  2.1052  1.0459  0.2823
   8923SM   C2S11914   5.769   2.351  10.967  0.0739  0.2193 -0.9458
   8923SM   H2S11915   5.699   2.416  11.023  0.5782 -0.1148  0.1086
   8923SM   C3S11916   5.723   2.204  10.989  0.1664  0.4196  0.8292
   8923SM   H3S11917   5.785   2.127  10.939  0.7311  0.3044  1.6743
   8923SM    O311918   5.590   2.186  10.938 -0.2815  0.0946 -0.9836
   8923SM   HO311919   5.577   2.268  10.890  1.7321  0.6156 -0.7504
   8923SM   C4S11920   5.726   2.160  11.134 -0.0378 -0.0969 -0.2840
   8923SM   H4S11921   5.638   2.206  11.183 -0.5337  0.7182 -1.8771
   8923SM   C5S11922   5.805   2.074  11.199  0.3336  0.0594  0.9094
   8923SM   H5S11923   5.887   2.028  11.141 -1.2290  1.1554 -2.4143
   8923SM   C6S11924   5.777   2.046  11.345  0.7260 -0.6568 -0.5578
   8923SM   H6S11925   5.859   2.097  11.401  0.4209 -0.0831 -0.6325
   8923SM   H6T11926   5.788   1.939  11.372  3.0653 -0.2074  0.5045
   8923SM   C7S11927   5.633   2.086  11.396  0.2240 -0.7853 -0.5330
   8923SM   H7S11928   5.553   2.056  11.325 -0.2353  0.9971 -0.8229
   8923SM   H7T11929   5.628   2.196  11.414 -1.2978 -0.9686  0.2886
   8923SM   C8S11930   5.606   2.032  11.535  0.6516 -0.1904  0.0965
   8923SM   H8S11931   5.685   2.059  11.609  0.8596 -1.2821  0.2912
   8923SM   H8T11932   5.591   1.922  11.538  0.8730 -0.2561  3.6866
   8923SM   C9S11933   5.480   2.100  11.596  0.1523  0.2936 -0.0336
   8923SM   H9S11934   5.389   2.093  11.532  0.6410 -1.9841 -0.5957
   8923SM   H9T11935   5.500   2.208  11.606 -0.2986  0.3531  0.2543
   8923SM  C10S11936   5.440   2.041  11.726  0.1535 -0.6509  0.5821
   8923SM  H10S11937   5.508   2.061  11.811 -1.2413 -0.4525  1.6756
   8923SM  H10T11938   5.420   1.933  11.711 -0.3772 -0.7133  1.6658
   8923SM  C11S11939   5.301   2.084  11.774 -0.8704 -0.6931  0.0533
   8923SM  H11S11940   5.236   2.044  11.694  0.5266  0.6242 -1.8302
   8923SM  H11T11941   5.301   2.195  11.765 -0.2067 -0.6250  0.7640
   8923SM  C12S11942   5.281   2.046  11.921 -0.2102  0.4646  0.5597
   8923SM  H12S11943   5.356   2.089  11.991 -0.8209 -0.4569  1.8108
   8923SM  H12T11944   5.298   1.937  11.921  1.4262  0.6875 -0.1169
   8923SM  C13S11945   5.138   2.072  11.973 -0.2245 -0.7346  0.9069
   8923SM  H13S11946   5.067   1.999  11.929 -1.8721  0.2451  1.8174
   8923SM  H13T11947   5.103   2.173  11.944  0.6824 -0.8161 -0.5519
   8923SM  C14S11948   5.144   2.053  12.125 -0.2911 -0.2395  0.1164
   8923SM  H14S11949   5.205   2.128  12.179  1.1357 -0.8471 -0.6007
   8923SM  H14T11950   5.205   1.966  12.156  0.1577  0.3777  1.0160
   8923SM  C15S11951   5.002   2.062  12.182  0.3101  0.4738  0.5519
   8923SM  H15S11952   4.934   1.988  12.136  0.8789 -0.2352  0.8388
   8923SM  H15T11953   4.953   2.159  12.156 -0.4600  0.1222  0.6623
   8923SM  C16S11954   4.991   2.039  12.331 -0.5310 -1.1522  0.6410
   8923SM  H16S11955   5.061   2.106  12.384 -1.4485  0.8364 -0.5479
   8923SM  H16T11956   5.007   1.930  12.350  1.4296 -0.8206  1.1197
   8923SM  C17S11957   4.858   2.080  12.394  0.5488 -0.1572 -0.4683
   8923SM  H17S11958   4.856   2.049  12.500  1.3086 -1.6111 -0.8590
   8923SM  H17T11959   4.772   2.026  12.348 -1.3694  1.1361  1.3849
   8923SM  C18S11960   4.842   2.234  12.396  0.4875 -0.0806  0.0898
   8923SM  H18S11961   4.836   2.284  12.298  1.8068  2.8809  1.4008
   8923SM  H18T11962   4.933   2.268  12.449  0.1594  0.6831  0.1805
   8923SM  H18U11963   4.753   2.258  12.459 -1.1390 -1.7012 -1.4566
   8923SM   C1F11964   5.940   2.501  11.046  0.2627 -0.7500  0.1345
   8923SM    OF11965   5.864   2.597  11.028  0.4578  0.1128  0.2749
   8923SM   C2F11966   6.077   2.500  11.107  0.1919  0.0312  0.2480
   8923SM   H2F11967   6.161   2.477  11.038 -0.6822  2.7183 -1.8991
   8923SM   H2G11968   6.084   2.418  11.182  2.3423 -1.3021 -1.2799
   8923SM   C3F11969   6.116   2.633  11.177 -0.3240 -0.6447  0.4070
   8923SM   H3F11970   6.044   2.667  11.254  0.3867  1.3041  0.2562
   8923SM   H3G11971   6.121   2.718  11.106 -0.8096 -0.6450  0.3692
   8923SM   C4F11972   6.255   2.622  11.248 -0.4389  0.4520  0.9007
   8923SM   H4F11973   6.338   2.634  11.175 -0.1217  1.7889  1.4533
   8923SM   H4G11974   6.268   2.520  11.290 -1.4194 -0.0983 -0.0736
   8923SM   C5F11975   6.279   2.714  11.369 -0.6131 -0.2117 -0.2616
   8923SM   H5F11976   6.377   2.682  11.410 -0.7221 -1.9205 -1.2215
   8923SM   H5G11977   6.194   2.701  11.439 -0.9116  0.5624 -0.4765
   8923SM   C6F11978   6.274   2.866  11.341  0.7168 -0.3534  0.0420
   8923SM   H6F11979   6.283   2.925  11.435  2.0753 -1.3884  0.5953
   8923SM   H6G11980   6.178   2.888  11.291  0.8099  1.7871  0.6837
   8923SM   C7F11981   6.389   2.918  11.253  0.5738  0.4538  0.6201
   8923SM   H7F11982   6.355   2.907  11.148  1.0789  1.8764  0.2837
   8923SM   H7G11983   6.478   2.855  11.273 -0.3558 -1.6181 -1.3696
   8923SM   C8F11984   6.425   3.065  11.268 -1.1318  0.1696 -0.5892
   8923SM   H8F11985   6.519   3.090  11.215 -1.8632  0.3927 -1.8218
   8923SM   H8G11986   6.430   3.088  11.377 -0.8202 -1.2798 -0.2647
   8923SM   C9F11987   6.316   3.159  11.230 -0.2902 -0.2270  0.1874
   8923SM   H9F11988   6.225   3.138  11.291  0.4535  0.1553  1.4808
   8923SM   H9G11989   6.292   3.133  11.125 -4.3549  1.2996  0.5575
   8923SM  C10F11990   6.344   3.309  11.243 -0.2843 -0.0596  0.1093
   8923SM  H10F11991   6.273   3.354  11.171  1.0751 -1.0892 -1.9765
   8923SM  H10G11992   6.444   3.334  11.200  0.5656 -1.1316  1.3702
   8923SM  C11F11993   6.328   3.365  11.381 -0.5456 -0.2199  0.2519
   8923SM  H11F11994   6.408   3.322  11.446 -1.4256 -0.2274  1.3553
   8923SM  H11G11995   6.238   3.348  11.444 -0.0025  1.8160  1.6890
   8923SM  C12F11996   6.363   3.513  11.387 -0.1300 -0.5086 -0.0849
   8923SM  H12F11997   6.285   3.570  11.333  0.7767 -0.5421 -1.4847
   8923SM  H12G11998   6.455   3.537  11.330 -0.1879  2.0666  0.7758
   8923SM  C13F11999   6.389   3.568  11.525 -0.2574 -0.1138 -0.6848
   8923SM  H13F12000   6.314   3.532  11.598  1.5911  0.4699  1.6172
   8923SM  H13G12001   6.382   3.679  11.513  1.3255  0.0737 -0.0729
   8923SM  C14F12002   6.528   3.524  11.569 -0.1130  0.3929 -0.8663
   8923SM  H14F12003   6.602   3.554  11.492  0.0511  1.9539 -0.1521
   8923SM  H14G12004   6.532   3.414  11.578  1.2124  0.5950  2.5854
   8923SM  C15F12005   6.578   3.600  11.695  0.1943  0.0721 -0.8130
   8923SM  H15F12006   6.672   3.561  11.740 -2.0677 -0.8822  3.5990
   8923SM  H15G12007   6.506   3.578  11.776 -1.0321  0.8190 -1.6762
   8923SM  C16F12008   6.585   3.756  11.685 -0.0385  0.2724  0.0210
   8923SM  H16F12009   6.490   3.807  11.659  0.6609  1.2313 -0.7017
   8923SM  H16G12010   6.656   3.795  11.609  0.1750  0.1035  0.1341
   8923SM  C17F12011   6.628   3.817  11.818 -0.1896 -0.3648 -1.0650
   8923SM  H17F12012   6.725   3.776  11.852 -0.7775 -1.6595 -0.9125
   8923SM  H17G12013   6.557   3.798  11.902 -0.7331  2.4848 -0.7725
   8923SM  C18F12014   6.629   3.976  11.819  0.1051  0.0616 -0.6250
   8923SM  H18F12015   6.532   4.001  11.771 -1.3241  0.3167  2.2368
   8923SM  H18G12016   6.714   4.017  11.760  0.3966 -0.9825 -0.9489
   8923SM  C19F12017   6.632   4.051  11.957 -0.3025 -0.6494 -0.1267
   8923SM  H19F12018   6.527   4.036  11.990 -0.0095 -2.3954  0.1027
   8923SM  H19G12019   6.649   4.159  11.936 -2.9569 -0.6301 -2.9095
   8923SM  C20F12020   6.735   4.007  12.070  0.1733  0.0483  0.3073
   8923SM  H20F12021   6.838   4.044  12.051  1.7934 -2.9438  2.4340
   8923SM  H20G12022   6.739   3.896  12.075  1.9341  0.1317  1.9469
   8923SM  C21F12023   6.698   4.049  12.204  0.2023 -0.2389 -0.4306
   8923SM  H21F12024   6.589   4.033  12.222 -0.3908  3.1533 -0.2612
   8923SM  H21G12025   6.701   4.160  12.204 -0.7557 -0.1497  1.7600
   8923SM  C22F12026   6.790   4.002  12.318  0.4003  0.6306  0.2897
   8923SM  H22F12027   6.898   4.018  12.299  0.4376  0.2450  0.1847
   8923SM  H22G12028   6.757   3.896  12.313 -1.1154  1.1191 -4.2472
   8923SM  C23F12029   6.749   4.068  12.449  0.1833  0.2998 -0.3842
   8923SM  H23F12030   6.638   4.072  12.457  0.2060 -1.4835  1.8964
   8923SM  H23G12031   6.800   4.165  12.465  0.1664  0.5459 -1.7033
   8923SM  H23H12032   6.787   4.004  12.531  0.8649 -0.6364 -1.4152
   9023SM     N12033   7.899   2.292  10.347 -0.1344  0.7683 -0.0592
   9023SM   C1512034   7.979   2.190  10.280  0.7435 -0.0362 -0.2616
   9023SM  H15A12035   8.009   2.217  10.180 -0.3566  0.2784 -0.5256
   9023SM  H15B12036   7.920   2.100  10.278  1.7025 -0.6771 -0.2895
   9023SM  H15C12037   8.066   2.173  10.342  0.3288  1.1545  0.6995
   9023SM   C1412038   7.895   2.262  10.491 -0.9692  0.2083  0.0913
   9023SM  H14A12039   7.985   2.208  10.518 -1.0730 -0.8199 -1.5009
   9023SM  H14B12040   7.809   2.201  10.512  0.1634 -2.1733 -1.7008
   9023SM  H14C12041   7.877   2.359  10.537 -0.3546  1.1144 -1.4813
   9023SM   C1312042   7.947   2.432  10.328 -0.2800 -0.2394  0.1395
   9023SM  H13A12043   7.976   2.446  10.225 -0.2549  0.0656  0.1860
   9023SM  H13B12044   8.039   2.457  10.379 -0.1858 -2.1533  0.9920
   9023SM  H13C12045   7.878   2.511  10.355  0.1020  0.5003 -0.9827
   9023SM   C1212046   7.754   2.291  10.289 -0.4518  0.3279 -0.4101
   9023SM  H12A12047   7.767   2.317  10.185  0.7538 -2.1414 -0.9453
   9023SM  H12B12048   7.701   2.369  10.343  1.1047  1.1083  0.0585
   9023SM   C1112049   7.679   2.160  10.296 -0.2218 -0.6641 -0.2523
   9023SM  H11A12050   7.745   2.083  10.251  2.5159  0.3599  1.8024
   9023SM  H11B12051   7.591   2.173  10.228  0.3241 -2.8231 -1.4620
   9023SM     P12052   7.500   2.077  10.459 -0.4129 -0.0425 -0.2049
   9023SM   O1312053   7.406   2.190  10.439  0.0725  0.1452 -0.3309
   9023SM   O1412054   7.477   1.964  10.358  0.1623 -0.2289 -0.7553
   9023SM   O1112055   7.501   2.023  10.606 -0.1605 -0.0418 -0.0016
   9023SM   O1212056   7.649   2.134  10.431 -0.7269 -0.0120 -0.1177
   9023SM   C1S12057   7.622   1.967  10.658 -0.1263  0.1691 -0.7155
   9023SM   H1S12058   7.709   2.036  10.655 -0.8524  1.1216  0.0122
   9023SM   H1T12059   7.647   1.869  10.611  0.4294 -0.9010  1.6483
   9023SM    NF12060   7.713   1.875  10.871 -0.7248 -0.0426  0.4344
   9023SM   HNF12061   7.725   1.776  10.871 -0.8792 -0.1386  2.9865
   9023SM   C2S12062   7.593   1.917  10.804 -0.2996 -0.4172  0.4339
   9023SM   H2S12063   7.551   2.008  10.852 -0.7005  0.0069 -0.6859
   9023SM   C3S12064   7.483   1.817  10.823  1.1601  0.6643  0.4540
   9023SM   H3S12065   7.518   1.719  10.785  1.3916  0.5113  1.0419
   9023SM    O312066   7.366   1.846  10.752 -0.3970 -0.3861 -0.0559
   9023SM   HO312067   7.384   1.930  10.708 -0.2106 -1.2932 -1.7803
   9023SM   C4S12068   7.451   1.774  10.967  0.7277 -0.3071 -0.2081
   9023SM   H4S12069   7.503   1.687  11.010  0.3302 -0.8058 -0.7199
   9023SM   C5S12070   7.345   1.820  11.036 -0.3758  0.6543 -0.1578
   9023SM   H5S12071   7.277   1.898  11.001 -0.3666  1.2220  1.0251
   9023SM   C6S12072   7.312   1.761  11.170  0.6895  0.2912  0.1850
   9023SM   H6S12073   7.393   1.726  11.237 -0.4978 -0.5473  1.2181
   9023SM   H6T12074   7.242   1.678  11.144 -1.6656  2.0915  0.4010
   9023SM   C7S12075   7.234   1.857  11.261 -0.2007 -0.4369 -0.4517
   9023SM   H7S12076   7.151   1.893  11.196 -0.6852 -2.0049 -0.7299
   9023SM   H7T12077   7.298   1.945  11.288  0.1701 -0.6664 -0.5819
   9023SM   C8S12078   7.173   1.782  11.378 -0.9540 -0.2674  0.3823
   9023SM   H8S12079   7.155   1.674  11.358  1.6402 -1.3747  3.2610
   9023SM   H8T12080   7.079   1.832  11.412 -1.2250 -2.2051  2.7220
   9023SM   C9S12081   7.261   1.773  11.506  0.0790  0.2400 -0.4651
   9023SM   H9S12082   7.276   1.875  11.547  2.3283 -1.3106  3.0808
   9023SM   H9T12083   7.356   1.724  11.476 -0.2358 -0.0740 -0.9591
   9023SM  C10S12084   7.191   1.698  11.617  0.0042 -0.3937  0.3527
   9023SM  H10S12085   7.162   1.594  11.592  0.6181 -0.3745 -0.4944
   9023SM  H10T12086   7.098   1.757  11.627  1.3707  1.8800  0.5647
   9023SM  C11S12087   7.277   1.697  11.742  0.1328 -0.0246 -0.1515
   9023SM  H11S12088   7.331   1.792  11.755 -1.1313  0.6338  0.5404
   9023SM  H11T12089   7.360   1.624  11.731  1.8727  1.7757  0.4905
   9023SM  C12S12090   7.189   1.649  11.866 -0.7639 -0.4610  0.5070
   9023SM  H12S12091   7.148   1.552  11.832 -1.1463  0.2166 -1.0494
   9023SM  H12T12092   7.103   1.719  11.880 -0.8188 -0.5564  0.6549
   9023SM  C13S12093   7.262   1.652  11.998  0.1505  0.2164 -0.4559
   9023SM  H13S12094   7.281   1.756  12.032 -0.2865 -0.4372  1.9956
   9023SM  H13T12095   7.356   1.592  11.994 -0.0891 -0.2502  0.7167
   9023SM  C14S12096   7.192   1.580  12.107  0.0934 -0.8705  0.0737
   9023SM  H14S12097   7.257   1.565  12.195 -0.6423  0.0741  0.7980
   9023SM  H14T12098   7.139   1.487  12.077 -1.7078  0.2180 -0.2695
   9023SM  C15S12099   7.078   1.667  12.153 -0.0799 -0.0399 -0.4813
   9023SM  H15S12100   6.997   1.673  12.077 -0.3320  0.9496 -0.1404
   9023SM  H15T12101   7.110   1.769  12.181 -0.7092 -0.0961  0.4725
   9023SM  C16S12102   7.002   1.614  12.278 -0.2808  0.3874  0.6526
   9023SM  H16S12103   6.990   1.505  12.259 -1.8761  0.4725  1.0814
   9023SM  H16T12104   6.897   1.649  12.279 -0.2161  0.8372 -1.6679
   9023SM  C17S12105   7.080   1.639  12.415  0.5200  0.3335  0.5588
   9023SM  H17S12106   7.095   1.749  12.421 -2.2758  0.7469  1.8644
   9023SM  H17T12107   7.179   1.591  12.400 -0.8087 -1.4755 -4.2802
   9023SM  C18S12108   7.010   1.589  12.543 -0.9902  0.7979  0.1799
   9023SM  H18S12109   7.011   1.478  12.546 -1.4364  0.8197  1.6273
   9023SM  H18T12110   6.904   1.620  12.547 -1.4921 -0.6768 -0.8153
   9023SM  H18U12111   7.055   1.629  12.637 -0.9710 -1.0290  0.9786
   9023SM   C1F12112   7.819   1.948  10.907 -0.6324  0.4689 -0.0158
   9023SM    OF12113   7.815   2.067  10.909  0.1067 -0.2642  0.4892
   9023SM   C2F12114   7.940   1.869  10.948  0.1925 -0.1684  0.3583
   9023SM   H2F12115   8.017   1.896  10.872 -0.7532 -3.2386 -1.9214
   9023SM   H2G12116   7.912   1.763  10.926  1.0639 -0.4838  0.7257
   9023SM   C3F12117   7.970   1.872  11.098  0.2757 -0.7594  0.6916
   9023SM   H3F12118   7.881   1.834  11.152  0.1721 -0.9708  0.3707
   9023SM   H3G12119   7.983   1.978  11.130 -1.7851 -0.2715  0.0877
   9023SM   C4F12120   8.093   1.778  11.135 -0.2477 -0.5128 -0.2443
   9023SM   H4F12121   8.174   1.816  11.069 -0.1461 -1.4838 -0.6899
   9023SM   H4G12122   8.071   1.673  11.106 -0.7025 -0.0559 -1.6646
   9023SM   C5F12123   8.159   1.797  11.272 -0.1714  0.0890 -0.2991
   9023SM   H5F12124   8.155   1.905  11.294 -0.9785 -0.3399  1.8779
   9023SM   H5G12125   8.267   1.770  11.265 -0.5321 -2.1341  1.3493
   9023SM   C6F12126   8.086   1.722  11.382 -0.0226  0.0795 -0.4921
   9023SM   H6F12127   7.977   1.719  11.363 -0.3029 -2.6029  1.0744
   9023SM   H6G12128   8.098   1.777  11.478  4.2019  0.4424 -1.0586
   9023SM   C7F12129   8.131   1.577  11.400  0.1372 -0.2649 -0.1051
   9023SM   H7F12130   8.241   1.592  11.405 -0.2052  2.6582  0.1047
   9023SM   H7G12131   8.099   1.512  11.316 -1.4386 -0.6300  0.7466
   9023SM   C8F12132   8.102   1.520  11.542  0.0896 -0.4455  0.4238
   9023SM   H8F12133   8.136   1.582  11.627  2.5815 -2.4601  0.9887
   9023SM   H8G12134   8.156   1.423  11.546 -0.6751 -0.9612 -0.9049
   9023SM   C9F12135   7.956   1.483  11.574 -0.2926  0.2287 -0.0776
   9023SM   H9F12136   7.914   1.408  11.504 -2.0432  2.6960 -1.8303
   9023SM   H9G12137   7.888   1.565  11.543 -0.7034 -0.8292 -2.1787
   9023SM  C10F12138   7.927   1.444  11.721 -0.4275  0.0925  1.0884
   9023SM  H10F12139   7.939   1.538  11.778  1.1907 -0.1339  1.1702
   9023SM  H10G12140   8.000   1.370  11.761  0.0648  1.3249  2.5687
   9023SM  C11F12141   7.780   1.401  11.744  0.6076  0.0394 -0.2240
   9023SM  H11F12142   7.765   1.294  11.716  1.0222  0.1415 -0.8624
   9023SM  H11G12143   7.708   1.465  11.689  0.5563  0.4584  0.3216
   9023SM  C12F12144   7.747   1.407  11.895  0.5366  0.4138 -0.2064
   9023SM  H12F12145   7.751   1.510  11.937  0.2271  1.2945 -2.2271
   9023SM  H12G12146   7.833   1.362  11.949 -0.6166 -2.8261 -0.8597
   9023SM  C13F12147   7.622   1.330  11.938 -0.4727  0.1206 -0.5191
   9023SM  H13F12148   7.639   1.229  11.895 -1.0254 -0.4869  0.6642
   9023SM  H13G12149   7.536   1.383  11.891 -0.1581 -0.2065 -1.4833
   9023SM  C14F12150   7.590   1.307  12.088 -0.6657 -0.4205  0.4483
   9023SM  H14F12151   7.679   1.279  12.148 -0.3047 -2.3914 -0.8987
   9023SM  H14G12152   7.515   1.225  12.093 -3.4578  2.0588  2.9744
   9023SM  C15F12153   7.522   1.414  12.167 -0.2172  0.6183 -0.0534
   9023SM  H15F12154   7.416   1.422  12.135  0.1107  1.9401 -0.8828
   9023SM  H15G12155   7.577   1.509  12.153  3.5782 -1.2870  0.5542
   9023SM  C16F12156   7.523   1.372  12.319 -0.0665 -0.5212 -0.6661
   9023SM  H16F12157   7.622   1.366  12.369 -0.7029 -2.7439  0.4348
   9023SM  H16G12158   7.491   1.267  12.335  1.7226 -1.1801 -1.0832
   9023SM  C17F12159   7.435   1.462  12.406  0.0822 -0.0143  0.0727
   9023SM  H17F12160   7.331   1.427  12.387  0.5643 -1.1905 -0.4597
   9023SM  H17G12161   7.444   1.563  12.361 -0.2171  0.0665  0.1861
   9023SM  C18F12162   7.478   1.454  12.554  0.2486 -0.4415 -0.8692
   9023SM  H18F12163   7.577   1.504  12.560 -0.2651  0.4832  1.1663
   9023SM  H18G12164   7.475   1.349  12.590  0.6508 -0.5847 -1.2535
   9023SM  C19F12165   7.383   1.537  12.647  0.7235 -0.3245 -0.6189
   9023SM  H19F12166   7.411   1.521  12.754  2.8093  0.1900 -1.0495
   9023SM  H19G12167   7.274   1.518  12.633  0.7768 -1.0135 -0.1299
   9023SM  C20F12168   7.409   1.683  12.610 -0.5738  0.5434  0.1372
   9023SM  H20F12169   7.381   1.706  12.505  2.3184 -2.5594 -1.5001
   9023SM  H20G12170   7.516   1.707  12.629 -0.4981  0.8615 -0.6679
   9023SM  C21F12171   7.341   1.779  12.714  0.5314  0.0169 -0.3084
   9023SM  H21F12172   7.231   1.780  12.721  0.5253  0.7281 -0.5183
   9023SM  H21G12173   7.361   1.885  12.690  0.8762  0.1361  0.4754
   9023SM  C22F12174   7.376   1.752  12.860 -0.3893  0.8253 -0.3655
   9023SM  H22F12175   7.486   1.737  12.864 -0.6550 -2.2994 -1.8639
   9023SM  H22G12176   7.331   1.663  12.908  0.7194  0.7249  0.5304
   9023SM  C23F12177   7.333   1.870  12.945  0.3191 -0.2022  0.2422
   9023SM  H23F12178   7.225   1.880  12.972  0.4846 -0.3092  0.9771
   9023SM  H23G12179   7.367   1.962  12.894  0.8391 -0.7855 -0.4732
   9023SM  H23H12180   7.386   1.866  13.043  0.3937  1.6865  0.3053
   9123SM     N12181   5.868   4.333  10.367 -0.5981 -1.0161  0.1403
   9123SM   C1512182   5.895   4.476  10.368  0.2507 -0.0282  0.5377
   9123SM  H15A12183   5.999   4.499  10.383 -0.0220  2.7090 -1.0158
   9123SM  H15B12184   5.833   4.527  10.440  0.4208  0.9575  0.0130
   9123SM  H15C12185   5.865   4.522  10.275 -0.8010  0.0767  0.9200
   9123SM   C1412186   5.941   4.274  10.241 -0.0328  0.1713 -0.2302
   9123SM  H14A12187   6.044   4.306  10.241 -0.1335  0.5024  0.0515
   9123SM  H14B12188   5.890   4.319  10.157 -2.5432 -0.3142  0.9411
   9123SM  H14C12189   5.932   4.167  10.250 -2.4772  0.2325 -1.0549
   9123SM   C1312190   5.927   4.277  10.491  0.0423  0.5585 -0.0585
   9123SM  H13A12191   5.933   4.169  10.484  2.3164  0.6336  0.1065
   9123SM  H13B12192   5.875   4.295  10.584  1.1131  1.9302  0.3041
   9123SM  H13C12193   6.030   4.301  10.510 -0.0385 -0.3681  1.7392
   9123SM   C1212194   5.721   4.305  10.350  0.1154  0.3755  0.5866
   9123SM  H12A12195   5.712   4.198  10.340 -2.3573  0.6715 -1.5242
   9123SM  H12B12196   5.699   4.334  10.248  1.6789  0.2731  0.1934
   9123SM   C1112197   5.614   4.353  10.452 -0.2120 -0.3234  0.9074
   9123SM  H11A12198   5.623   4.292  10.544 -0.4283 -1.4566  0.1897
   9123SM  H11B12199   5.517   4.324  10.407  0.0404  0.3303 -0.0835
   9123SM     P12200   5.542   4.580  10.573  0.4337 -0.1973  0.5684
   9123SM   O1312201   5.570   4.720  10.546 -0.3464 -0.6080 -0.0197
   9123SM   O1412202   5.402   4.536  10.561  0.1761  0.8856  0.8038
   9123SM   O1112203   5.601   4.525  10.710  0.3138 -0.0983  0.1263
   9123SM   O1212204   5.629   4.493  10.473  0.4715  0.0679  0.2462
   9123SM   C1S12205   5.733   4.555  10.750  0.1431 -0.7026  0.0098
   9123SM   H1S12206   5.752   4.665  10.745  2.7505 -1.1065 -1.0962
   9123SM   H1T12207   5.802   4.502  10.681 -0.9971 -0.8307 -1.0658
   9123SM    NF12208   5.876   4.560  10.959  0.2286  0.3886 -0.2101
   9123SM   HNF12209   5.961   4.510  10.944 -0.0356  0.3152 -1.5624
   9123SM   C2S12210   5.755   4.501  10.896 -0.1851  1.0857  0.0019
   9123SM   H2S12211   5.661   4.528  10.950  0.3387  1.4472  0.7500
   9123SM   C3S12212   5.755   4.348  10.894  0.0313  0.2888 -0.1694
   9123SM   H3S12213   5.852   4.328  10.845 -1.0931  1.9653 -3.3908
   9123SM    O312214   5.668   4.275  10.803  0.1248 -0.3475  0.1022
   9123SM   HO312215   5.612   4.341  10.761 -0.2455 -1.1408 -0.6953
   9123SM   C4S12216   5.755   4.288  11.029 -0.0111 -0.4090 -0.2599
   9123SM   H4S12217   5.857   4.264  11.062 -0.5063 -2.4064 -0.0476
   9123SM   C5S12218   5.649   4.266  11.107 -0.2320 -0.0276 -0.0047
   9123SM   H5S12219   5.549   4.270  11.063  0.7586  2.3805 -2.3441
   9123SM   C6S12220   5.652   4.214  11.246 -0.5535 -0.4796 -0.8092
   9123SM   H6S12221   5.594   4.120  11.255 -2.5897  0.4378 -3.1081
   9123SM   H6T12222   5.602   4.293  11.306  0.2924 -0.2056 -0.4399
   9123SM   C7S12223   5.788   4.210  11.318 -0.2205  0.2553 -0.3214
   9123SM   H7S12224   5.843   4.306  11.323  2.3435 -1.1751  1.1556
   9123SM   H7T12225   5.848   4.133  11.264  0.7270  0.1788  0.7938
   9123SM   C8S12226   5.779   4.155  11.461 -0.7148 -0.7364 -0.7507
   9123SM   H8S12227   5.875   4.102  11.477  0.3265  1.0606 -0.7043
   9123SM   H8T12228   5.697   4.081  11.452 -0.0275 -1.7079  0.5440
   9123SM   C9S12229   5.768   4.259  11.576 -0.2305 -0.9381 -0.3001
   9123SM   H9S12230   5.658   4.277  11.574 -0.0126  0.7945  0.8650
   9123SM   H9T12231   5.824   4.355  11.564  0.5256 -1.1726  1.1527
   9123SM  C10S12232   5.816   4.206  11.717 -0.0038  0.1212  0.3321
   9123SM  H10S12233   5.917   4.162  11.698  0.2845  0.9129 -0.0373
   9123SM  H10T12234   5.758   4.114  11.737  2.4593 -1.4519  0.6270
   9123SM  C11S12235   5.815   4.308  11.833  0.1663  0.5145  0.6376
   9123SM  H11S12236   5.903   4.373  11.811  0.5298  0.5128  1.9995
   9123SM  H11T12237   5.834   4.247  11.924 -1.3558 -1.7054 -0.4572
   9123SM  C12S12238   5.680   4.387  11.857  0.1917 -0.3856  0.3420
   9123SM  H12S12239   5.608   4.311  11.895  0.1270 -0.2759  0.4390
   9123SM  H12T12240   5.653   4.432  11.759  1.8199 -0.3995 -0.1452
   9123SM  C13S12241   5.690   4.506  11.950  0.5809 -0.0328 -0.7097
   9123SM  H13S12242   5.589   4.551  11.952  0.8796  0.6567  1.5501
   9123SM  H13T12243   5.763   4.576  11.904 -1.3618  1.7435 -1.2510
   9123SM  C14S12244   5.731   4.459  12.088  0.4011  0.0788  0.3121
   9123SM  H14S12245   5.812   4.384  12.085  1.0126  0.7302  0.1865
   9123SM  H14T12246   5.644   4.421  12.146 -0.1534 -0.5191 -0.8808
   9123SM  C15S12247   5.804   4.569  12.175 -0.3468 -0.5008  0.7865
   9123SM  H15S12248   5.726   4.642  12.208 -0.6692  0.1512 -1.2577
   9123SM  H15T12249   5.872   4.628  12.110  1.0307  1.0010  3.4286
   9123SM  C16S12250   5.877   4.519  12.303  0.2539  0.0824 -0.3190
   9123SM  H16S12251   5.937   4.600  12.348  0.8146 -0.6216  0.2154
   9123SM  H16T12252   5.944   4.442  12.259  1.0676  0.5082  0.1626
   9123SM  C17S12253   5.786   4.451  12.402  0.4063 -0.1275  0.4497
   9123SM  H17S12254   5.729   4.379  12.340  2.1628 -1.4505  0.2817
   9123SM  H17T12255   5.716   4.525  12.446 -1.1346 -0.5172 -1.2240
   9123SM  C18S12256   5.860   4.382  12.512 -0.0956 -0.6972 -0.2341
   9123SM  H18S12257   5.788   4.347  12.589 -1.0295 -0.0182 -0.7673
   9123SM  H18T12258   5.935   4.451  12.554 -0.2802 -0.2538 -0.6304
   9123SM  H18U12259   5.906   4.290  12.469 -1.5352 -1.8145  0.4921
   9123SM   C1F12260   5.877   4.688  10.989  0.1637  1.0791 -0.1298
   9123SM    OF12261   5.774   4.747  10.989 -0.2090  0.3879 -0.3120
   9123SM   C2F12262   6.021   4.735  11.015 -0.0225  0.2490 -0.7414
   9123SM   H2F12263   6.053   4.792  10.925  1.9902  0.2670 -0.0606
   9123SM   H2G12264   6.083   4.644  11.027  0.5087  0.5939 -0.8039
   9123SM   C3F12265   6.021   4.831  11.139 -0.0357  0.1143  0.2636
   9123SM   H3F12266   5.964   4.925  11.123 -0.1445 -0.0669 -0.4211
   9123SM   H3G12267   6.128   4.860  11.153 -0.3034  0.3399  2.0482
   9123SM   C4F12268   5.980   4.758  11.266 -0.3659  0.0811 -0.3413
   9123SM   H4F12269   6.042   4.666  11.261 -1.2328 -0.4804 -1.0835
   9123SM   H4G12270   5.871   4.738  11.270 -0.2384 -0.4254  2.9074
   9123SM   C5F12271   6.011   4.833  11.391  0.3671  0.7463 -0.4216
   9123SM   H5F12272   5.940   4.915  11.411  0.3170  0.3957  0.9316
   9123SM   H5G12273   6.117   4.864  11.380 -0.0508  2.3196 -0.2625
   9123SM   C6F12274   6.019   4.728  11.510 -0.2976  0.1308  0.1176
   9123SM   H6F12275   6.083   4.645  11.471 -1.6068 -0.2262 -1.3517
   9123SM   H6G12276   5.917   4.687  11.524  0.1114 -1.1240 -0.3772
   9123SM   C7F12277   6.069   4.786  11.646 -0.3778 -0.1451  0.9093
   9123SM   H7F12278   6.015   4.876  11.681 -0.1800  0.6314 -0.7354
   9123SM   H7G12279   6.171   4.829  11.640 -1.6468  3.0298 -0.0521
   9123SM   C8F12280   6.093   4.683  11.764 -0.3482 -0.0485  0.8803
   9123SM   H8F12281   6.173   4.612  11.732 -0.0185  1.2485 -1.4203
   9123SM   H8G12282   5.992   4.643  11.784 -1.0279  0.3389 -1.4728
   9123SM   C9F12283   6.149   4.760  11.885 -0.2591  0.3892 -0.4143
   9123SM   H9F12284   6.060   4.820  11.913 -0.2659 -1.0027  2.9716
   9123SM   H9G12285   6.241   4.820  11.869  1.5634 -1.9017  0.8548
   9123SM  C10F12286   6.169   4.670  12.009 -0.3459  0.0159 -0.3924
   9123SM  H10F12287   6.258   4.607  11.987 -0.7720 -0.7968  0.2049
   9123SM  H10G12288   6.080   4.605  12.016 -1.8271  1.8424 -1.3152
   9123SM  C11F12289   6.183   4.742  12.141  0.0474  0.0719  0.6996
   9123SM  H11F12290   6.084   4.777  12.177  0.4435 -1.2572  3.3145
   9123SM  H11G12291   6.257   4.825  12.134  0.4034 -0.1091  1.9724
   9123SM  C12F12292   6.242   4.646  12.244  0.0180 -0.4453 -0.6884
   9123SM  H12F12293   6.350   4.621  12.236  0.3597  0.7232  0.0264
   9123SM  H12G12294   6.186   4.551  12.241  1.8679 -1.6105 -0.0044
   9123SM  C13F12295   6.215   4.707  12.382  0.2559 -0.3639 -0.2946
   9123SM  H13F12296   6.112   4.748  12.377  0.6820  0.6601 -1.1977
   9123SM  H13G12297   6.276   4.800  12.388 -1.5326  0.9374 -1.3072
   9123SM  C14F12298   6.245   4.611  12.499  0.6543 -0.8479 -0.3009
   9123SM  H14F12299   6.353   4.588  12.506  1.0879  0.8853 -0.7924
   9123SM  H14G12300   6.179   4.523  12.484 -0.1794 -0.3109  0.1533
   9123SM  C15F12301   6.193   4.664  12.643  0.7918  0.0081  0.2024
   9123SM  H15F12302   6.084   4.687  12.647  1.3638  3.1064  2.4952
   9123SM  H15G12303   6.239   4.764  12.659 -3.1232  1.5648  3.7181
   9123SM  C16F12304   6.228   4.579  12.758  0.2140 -0.3078 -0.5388
   9123SM  H16F12305   6.337   4.564  12.744  0.2010  0.3639 -1.4467
   9123SM  H16G12306   6.175   4.483  12.738  1.3668 -0.5970 -2.3798
   9123SM  C17F12307   6.197   4.650  12.892 -0.1434  0.3682  0.2749
   9123SM  H17F12308   6.237   4.753  12.901 -0.8955  0.5922  1.1513
   9123SM  H17G12309   6.231   4.586  12.976 -0.9040  1.1428  1.1990
   9123SM  C18F12310   6.046   4.675  12.933 -0.3473 -0.5308 -0.3903
   9123SM  H18F12311   6.000   4.746  12.861 -1.1689 -0.9233 -0.2558
   9123SM  H18G12312   6.063   4.736  13.025  3.6049  1.4264 -2.1372
   9123SM  C19F12313   5.977   4.545  12.956  0.1758  0.7353 -0.6564
   9123SM  H19F12314   6.042   4.490  13.028 -0.3587  2.5152  1.2548
   9123SM  H19G12315   5.972   4.492  12.859  1.1858 -1.0689  0.2246
   9123SM  C20F12316   5.829   4.565  12.993  0.0529 -0.3209 -0.0000
   9123SM  H20F12317   5.772   4.644  12.940 -0.2915 -2.3176 -2.8204
   9123SM  H20G12318   5.829   4.600  13.099  0.8706 -2.1754  0.6728
   9123SM  C21F12319   5.735   4.444  12.967 -0.1899  0.1975  0.1321
   9123SM  H21F12320   5.784   4.352  13.005  0.2913  0.6971  0.7378
   9123SM  H21G12321   5.741   4.405  12.863  2.3561 -0.4709  0.4623
   9123SM  C22F12322   5.594   4.456  13.031  0.2290  0.6307  0.0248
   9123SM  H22F12323   5.523   4.509  12.964 -1.3809 -1.2304  0.1727
   9123SM  H22G12324   5.605   4.500  13.132 -1.2098  0.7760  0.1386
   9123SM  C23F12325   5.523   4.319  13.051  0.2626  0.2287 -0.3213
   9123SM  H23F12326   5.531   4.264  12.955  2.9026  0.7309 -0.4573
   9123SM  H23G12327   5.416   4.332  13.080  0.6667 -0.8526  1.8289
   9123SM  H23H12328   5.574   4.265  13.134 -0.5677 -1.6270 -0.9550
   9223SM     N12329   7.072   1.979  10.014 -0.6624  0.5041  0.3166
   9223SM   C1512330   6.956   2.061   9.962  0.1235 -0.3926  0.1727
   9223SM  H15A12331   6.988   2.097   9.865  0.5461 -0.5698  0.2462
   9223SM  H15B12332   6.935   2.148  10.024  0.3449 -0.0786 -0.1858
   9223SM  H15C12333   6.870   1.999   9.942 -0.9941  0.8236  0.9837
   9223SM   C1412334   7.090   1.857   9.938 -0.2440  0.3659  0.9336
   9223SM  H14A12335   7.008   1.787   9.952 -0.0635 -0.1355 -0.3687
   9223SM  H14B12336   7.180   1.811   9.975  1.1091  1.9333 -0.2799
   9223SM  H14C12337   7.109   1.865   9.832  2.7056 -1.9810  1.1586
   9223SM   C1312338   7.196   2.059   9.998  0.1450  0.5611  0.0982
   9223SM  H13A12339   7.281   1.994  10.015  0.1257  1.2138  3.3672
   9223SM  H13B12340   7.206   2.132  10.077  0.9883 -0.6148  1.1170
   9223SM  H13C12341   7.215   2.093   9.897  1.3000 -1.2878 -0.3525
   9223SM   C1212342   7.051   1.949  10.159 -0.1788  0.4908 -0.4186
   9223SM  H12A12343   7.032   2.040  10.213  0.5954  0.9721 -0.9431
   9223SM  H12B12344   7.146   1.916  10.199 -0.0607 -0.2467 -1.2647
   9223SM   C1112345   6.937   1.844  10.199 -0.3469 -0.3630 -0.4301
   9223SM  H11A12346   6.960   1.814  10.304  1.0340 -2.0847 -1.1831
   9223SM  H11B12347   6.944   1.755  10.134 -0.8921 -1.1093  0.4976
   9223SM     P12348   6.673   1.855  10.259  0.1671 -0.2873  0.4270
   9223SM   O1312349   6.571   1.965  10.252  0.1986  0.4563 -0.0339
   9223SM   O1412350   6.636   1.724  10.197  0.2724  0.7218  0.4260
   9223SM   O1112351   6.724   1.828  10.407  0.4164 -0.0695 -0.4774
   9223SM   O1212352   6.804   1.907  10.193 -0.1560  0.2961 -0.5680
   9223SM   C1S12353   6.788   1.925  10.496 -0.3986  0.3732 -0.1540
   9223SM   H1S12354   6.843   2.000  10.436 -0.9126  1.3222  0.5330
   9223SM   H1T12355   6.871   1.883  10.558  1.4969  2.1225 -1.3738
   9223SM    NF12356   6.761   2.093  10.683  0.0318 -0.1088 -0.5008
   9223SM   HNF12357   6.783   2.071  10.778 -2.5738 -0.1461  0.1646
   9223SM   C2S12358   6.693   1.991  10.607  0.7575 -0.0787  0.2415
   9223SM   H2S12359   6.610   2.044  10.556 -1.8280  0.9359  4.9590
   9223SM   C3S12360   6.619   1.874  10.689 -0.3001 -0.2952  0.4534
   9223SM   H3S12361   6.693   1.821  10.753  2.3308 -0.4840 -2.4877
   9223SM    O312362   6.563   1.774  10.609 -0.8496 -0.2192  0.1584
   9223SM   HO312363   6.596   1.790  10.521  1.1876  0.5386  0.9904
   9223SM   C4S12364   6.507   1.924  10.779  0.1592  0.3069  0.0437
   9223SM   H4S12365   6.419   1.954  10.719  0.8981  0.0309 -1.2217
   9223SM   C5S12366   6.499   1.921  10.916 -0.4576 -0.0534 -0.2465
   9223SM   H5S12367   6.571   1.870  10.982 -0.4390  0.5909  0.2325
   9223SM   C6S12368   6.374   1.954  11.002 -1.3064 -0.3120 -0.0866
   9223SM   H6S12369   6.281   1.918  10.952 -1.7986 -0.0989  0.6540
   9223SM   H6T12370   6.370   2.065  11.017 -0.7132 -0.4517  1.1996
   9223SM   C7S12371   6.382   1.901  11.144 -0.8989  0.4603 -0.4781
   9223SM   H7S12372   6.463   1.959  11.195 -1.7171  1.6295 -0.4616
   9223SM   H7T12373   6.418   1.797  11.132 -2.4487 -0.3333  1.2545
   9223SM   C8S12374   6.252   1.920  11.231 -0.2626  0.4656  0.1528
   9223SM   H8S12375   6.185   1.870  11.158  1.3027 -1.1633 -0.2202
   9223SM   H8T12376   6.229   2.029  11.232  0.3803  0.6516 -1.6567
   9223SM   C9S12377   6.245   1.847  11.372  0.1496  0.0215  0.5685
   9223SM   H9S12378   6.272   1.740  11.356 -2.0505 -0.9289  2.5136
   9223SM   H9T12379   6.138   1.845  11.403 -0.3883  0.2717 -1.1606
   9223SM  C10S12380   6.337   1.909  11.479  0.3524  0.6530 -0.0379
   9223SM  H10S12381   6.296   2.010  11.498 -0.7526  0.1526  0.3515
   9223SM  H10T12382   6.446   1.912  11.458  0.0909  3.2317 -1.3305
   9223SM  C11S12383   6.318   1.843  11.613 -0.3502 -0.2410 -0.4442
   9223SM  H11S12384   6.328   1.733  11.599 -0.4471 -0.3551  0.3208
   9223SM  H11T12385   6.215   1.853  11.652 -0.0357 -0.0846  0.3664
   9223SM  C12S12386   6.422   1.884  11.717 -0.1463  0.2526  0.2783
   9223SM  H12S12387   6.429   1.995  11.706  0.8448  0.3328  1.5373
   9223SM  H12T12388   6.515   1.841  11.676 -0.2777 -1.7506  1.9367
   9223SM  C13S12389   6.387   1.832  11.851  0.4870  0.2143 -0.2888
   9223SM  H13S12390   6.411   1.723  11.852 -0.2086  0.0420 -1.0346
   9223SM  H13T12391   6.282   1.849  11.884  1.0027  1.8802  0.5611
   9223SM  C14S12392   6.485   1.885  11.955  0.3553  0.0441 -0.0686
   9223SM  H14S12393   6.476   1.995  11.968  2.3775  0.1371  0.9330
   9223SM  H14T12394   6.588   1.857  11.924  0.0990 -0.6343 -0.3269
   9223SM  C15S12395   6.473   1.829  12.099  0.2728 -0.4363  0.5078
   9223SM  H15S12396   6.489   1.719  12.096  0.9579 -0.3349  0.3349
   9223SM  H15T12397   6.371   1.847  12.141 -0.8378  0.1235 -2.1628
   9223SM  C16S12398   6.570   1.893  12.193 -0.0915 -0.5050  0.0934
   9223SM  H16S12399   6.547   2.002  12.190 -2.3097 -0.9137  0.4260
   9223SM  H16T12400   6.673   1.876  12.155 -0.5887 -0.4029 -1.3485
   9223SM  C17S12401   6.562   1.841  12.336  0.2957  0.2217 -0.1984
   9223SM  H17S12402   6.557   1.731  12.331 -1.0696  0.2829 -0.5450
   9223SM  H17T12403   6.468   1.873  12.385  1.2990  1.6585  0.8919
   9223SM  C18S12404   6.682   1.865  12.424 -0.2871 -0.3609  0.3695
   9223SM  H18S12405   6.650   1.878  12.529 -1.6217 -2.7770  0.3554
   9223SM  H18T12406   6.738   1.958  12.402 -0.7527  0.7786  3.6163
   9223SM  H18U12407   6.755   1.784  12.401 -1.8666 -1.5881 -0.6120
   9223SM   C1F12408   6.809   2.214  10.643  0.7147  0.1139 -0.4369
   9223SM    OF12409   6.792   2.248  10.532 -0.3635  0.0407  0.3840
   9223SM   C2F12410   6.888   2.289  10.753 -0.7871  0.2015  0.4633
   9223SM   H2F12411   6.989   2.247  10.773  0.7843  2.5966 -1.7185
   9223SM   H2G12412   6.837   2.286  10.852  0.3231 -0.7089  1.0319
   9223SM   C3F12413   6.902   2.438  10.718 -0.1948  0.6778 -0.6322
   9223SM   H3F12414   6.801   2.482  10.739  0.0775  1.3318 -0.6545
   9223SM   H3G12415   6.932   2.441  10.612 -0.1704 -1.5532 -0.7205
   9223SM   C4F12416   7.007   2.517  10.803  0.8362  0.4601  0.3936
   9223SM   H4F12417   7.003   2.620  10.760 -0.0771  0.3236  0.1433
   9223SM   H4G12418   7.110   2.480  10.783  0.7939  0.2478  0.5696
   9223SM   C5F12419   6.984   2.513  10.949 -0.1489  0.4619  0.1446
   9223SM   H5F12420   6.879   2.483  10.972 -0.6048  1.6220 -0.3501
   9223SM   H5G12421   7.007   2.611  10.994  0.3209  0.6458 -0.4747
   9223SM   C6F12422   7.074   2.406  11.019 -0.3607 -0.8057  0.1346
   9223SM   H6F12423   7.181   2.425  10.998 -0.5772  1.6277  0.9506
   9223SM   H6G12424   7.056   2.308  10.970  0.3474  0.2551 -2.4327
   9223SM   C7F12425   7.043   2.406  11.171  0.1039  0.2589  0.1851
   9223SM   H7F12426   6.950   2.353  11.199  1.0129 -1.7476 -0.4277
   9223SM   H7G12427   7.032   2.513  11.201 -2.4323 -0.0821  0.6298
   9223SM   C8F12428   7.155   2.329  11.247  0.1494  0.1090  0.1942
   9223SM   H8F12429   7.255   2.374  11.231  0.5568 -0.3586  1.2733
   9223SM   H8G12430   7.139   2.231  11.199 -2.8493  1.1617 -1.2223
   9223SM   C9F12431   7.131   2.332  11.397  0.1740 -0.0060 -0.3609
   9223SM   H9F12432   7.025   2.327  11.429  0.8125  0.9179  2.1228
   9223SM   H9G12433   7.167   2.431  11.430  0.9742  0.7109 -3.0976
   9223SM  C10F12434   7.206   2.217  11.461 -0.0100  0.0078  0.3249
   9223SM  H10F12435   7.294   2.194  11.397 -1.4668 -0.5506 -1.5750
   9223SM  H10G12436   7.150   2.121  11.471  0.7702 -0.6964 -1.6243
   9223SM  C11F12437   7.247   2.258  11.600 -0.1502  0.2348 -0.1724
   9223SM  H11F12438   7.155   2.297  11.649  0.9763  2.0270  0.6219
   9223SM  H11G12439   7.322   2.339  11.598 -0.0071  0.1209 -2.5682
   9223SM  C12F12440   7.305   2.139  11.680 -0.1897 -0.1067 -0.4748
   9223SM  H12F12441   7.397   2.102  11.631 -0.9444  0.4145 -2.3935
   9223SM  H12G12442   7.228   2.058  11.677  0.9622 -1.3519  1.6137
   9223SM  C13F12443   7.316   2.180  11.828  0.2269  0.1375  0.6621
   9223SM  H13F12444   7.209   2.192  11.856 -0.7908  2.3912 -3.3918
   9223SM  H13G12445   7.362   2.280  11.837 -0.2992  0.4510 -0.0208
   9223SM  C14F12446   7.387   2.077  11.922 -0.2157 -0.2761 -0.2089
   9223SM  H14F12447   7.495   2.080  11.897 -0.0035  1.8045  0.7627
   9223SM  H14G12448   7.360   1.970  11.912 -1.0766 -0.0653 -0.2492
   9223SM  C15F12449   7.392   2.111  12.075  0.1815  0.1233  0.4428
   9223SM  H15F12450   7.306   2.172  12.110  0.1739  1.4003 -1.6608
   9223SM  H15G12451   7.486   2.167  12.098 -0.0354  1.5384 -1.8557
   9223SM  C16F12452   7.401   1.975  12.159 -0.1604  0.1654 -0.1869
   9223SM  H16F12453   7.486   1.927  12.105  0.4858  0.2635  0.7147
   9223SM  H16G12454   7.308   1.920  12.134 -0.0205 -1.0046  1.6374
   9223SM  C17F12455   7.412   2.005  12.312 -0.6976 -0.4661 -0.3874
   9223SM  H17F12456   7.491   2.081  12.326 -1.0770 -0.0670 -0.4098
   9223SM  H17G12457   7.441   1.910  12.362 -2.7024 -0.5483  0.6995
   9223SM  C18F12458   7.279   2.060  12.373  0.0802 -0.4339  0.5338
   9223SM  H18F12459   7.216   1.973  12.401 -0.8879  0.5555  1.5298
   9223SM  H18G12460   7.215   2.107  12.296 -1.0568 -0.6910  1.3037
   9223SM  C19F12461   7.291   2.152  12.492  0.2060 -0.1795 -0.3964
   9223SM  H19F12462   7.336   2.248  12.458 -0.7421 -0.3898 -2.3741
   9223SM  H19G12463   7.376   2.116  12.555  0.9085  1.1986 -0.5048
   9223SM  C20F12464   7.171   2.157  12.583  0.3894 -0.1722 -0.1329
   9223SM  H20F12465   7.186   2.238  12.657  0.4529  0.3533 -0.7197
   9223SM  H20G12466   7.178   2.063  12.642  0.5069  0.2001  0.4559
   9223SM  C21F12467   7.032   2.184  12.525  0.8236 -0.0815 -0.3190
   9223SM  H21F12468   7.006   2.099  12.458  0.1924  0.0196 -0.2096
   9223SM  H21G12469   7.032   2.280  12.469 -0.3934 -0.5325 -1.1305
   9223SM  C22F12470   6.927   2.206  12.631  0.3767 -0.7060  0.1226
   9223SM  H22F12471   6.953   2.292  12.696 -1.5097 -0.5026  0.6829
   9223SM  H22G12472   6.923   2.114  12.693  2.7139 -0.1772  1.1521
   9223SM  C23F12473   6.789   2.242  12.561 -0.4348 -0.6178 -0.2254
   9223SM  H23F12474   6.721   2.289  12.635 -0.5610 -1.0377 -0.0720
   9223SM  H23G12475   6.734   2.153  12.523 -0.1144 -0.8468 -0.1663
   9223SM  H23H12476   6.803   2.316  12.480  1.0384  0.6662  1.1078
   9323SM     N12477   6.922   4.144  10.688  0.1618 -0.1074  0.0684
   9323SM   C1512478   6.794   4.094  10.735 -0.3367  0.2134 -0.4575
   9323SM  H15A12479   6.757   4.145  10.823 -0.8400 -1.4098  0.3049
   9323SM  H15B12480   6.793   3.991  10.769 -2.5205  0.1915 -0.4479
   9323SM  H15C12481   6.716   4.097  10.660 -0.8367  1.8781  0.0717
   9323SM   C1412482   7.025   4.159  10.803  0.0933  0.3741 -0.2158
   9323SM  H14A12483   6.979   4.230  10.870  1.8350  1.8650 -0.5111
   9323SM  H14B12484   7.117   4.204  10.769 -0.4694  0.4548 -1.6953
   9323SM  H14C12485   7.040   4.067  10.858 -1.6020 -0.2468 -0.7429
   9323SM   C1312486   6.977   4.042  10.585 -0.0940 -0.4344 -0.1690
   9323SM  H13A12487   7.039   4.095  10.514  1.0071  0.3582  1.3068
   9323SM  H13B12488   6.898   3.983  10.542 -0.1254 -2.1011  1.9677
   9323SM  H13C12489   7.042   3.969  10.632  1.1827  1.1143  0.6104
   9323SM   C1212490   6.902   4.279  10.622  0.7086  0.2752 -0.2985
   9323SM  H12A12491   6.849   4.355  10.678  1.0593  0.4220 -0.1606
   9323SM  H12B12492   6.841   4.265  10.534  0.2086 -1.2169  0.2525
   9323SM   C1112493   7.036   4.357  10.593  0.7489  0.6285 -0.4705
   9323SM  H11A12494   7.008   4.439  10.524  1.1996  1.1047 -0.0923
   9323SM  H11B12495   7.113   4.292  10.546 -0.8355 -2.4524  0.8791
   9323SM     P12496   7.221   4.496  10.728 -0.2615 -0.0935 -0.4918
   9323SM   O1312497   7.335   4.395  10.741  0.0064 -0.3218  0.2846
   9323SM   O1412498   7.233   4.611  10.633  0.3784  0.0912 -0.0795
   9323SM   O1112499   7.215   4.547  10.882 -0.7373 -0.1850  0.0413
   9323SM   O1212500   7.084   4.426  10.709 -0.3781  0.1407 -0.1572
   9323SM   C1S12501   7.103   4.629  10.918 -1.0071  0.5691 -0.6207
   9323SM   H1S12502   7.013   4.564  10.932 -0.2673 -0.2760  0.4154
   9323SM   H1T12503   7.083   4.712  10.847  1.0638  0.0962 -1.8452
   9323SM    NF12504   6.993   4.743  11.107 -0.5700  0.3743  0.3856
   9323SM   HNF12505   6.981   4.841  11.122  0.0431  0.6969 -1.0147
   9323SM   C2S12506   7.124   4.696  11.067  0.2516  0.2969  0.3993
   9323SM   H2S12507   7.151   4.606  11.126  1.6823 -0.2084 -0.9530
   9323SM   C3S12508   7.237   4.794  11.064 -0.4853  0.4246 -0.3401
   9323SM   H3S12509   7.205   4.872  10.992  0.1826  0.5469 -0.5078
   9323SM    O312510   7.357   4.746  11.000 -0.2844 -0.3887  0.0843
   9323SM   HO312511   7.333   4.667  10.950 -1.0975 -1.3908  1.9720
   9323SM   C4S12512   7.263   4.860  11.196  0.8043 -0.1282 -1.1816
   9323SM   H4S12513   7.192   4.942  11.217  1.6009 -0.2815  3.0368
   9323SM   C5S12514   7.351   4.830  11.291 -0.5397 -0.1099 -0.3768
   9323SM   H5S12515   7.420   4.751  11.258 -2.3920 -1.7607 -0.4943
   9323SM   C6S12516   7.374   4.901  11.423  0.2505 -0.0726 -0.0023
   9323SM   H6S12517   7.373   4.828  11.507  1.2103 -2.0001 -1.5660
   9323SM   H6T12518   7.300   4.981  11.439  0.2589 -0.3579  1.6424
   9323SM   C7S12519   7.508   4.974  11.418  0.1206  0.0231 -0.2410
   9323SM   H7S12520   7.498   5.041  11.330 -3.6068  0.0773  0.0805
   9323SM   H7T12521   7.590   4.901  11.403 -0.1065 -0.1497 -0.6304
   9323SM   C8S12522   7.540   5.055  11.546  0.6635 -1.0310 -0.1375
   9323SM   H8S12523   7.448   5.105  11.581 -0.3110 -3.6999  1.3455
   9323SM   H8T12524   7.609   5.138  11.518 -1.9156  1.4106  0.3779
   9323SM   C9S12525   7.594   4.971  11.659 -0.0510  0.2099 -0.1417
   9323SM   H9S12526   7.674   4.912  11.610 -2.5639 -0.5544 -3.7555
   9323SM   H9T12527   7.513   4.900  11.686 -0.0084 -0.5933 -1.9940
   9323SM  C10S12528   7.638   5.045  11.781 -0.3730  0.4853 -0.4795
   9323SM  H10S12529   7.554   5.087  11.840 -2.6915 -3.4795 -0.6294
   9323SM  H10T12530   7.711   5.123  11.751 -0.1383  0.3059 -0.3881
   9323SM  C11S12531   7.693   4.957  11.892 -0.9196 -0.5001  0.4135
   9323SM  H11S12532   7.746   4.869  11.848  1.9706  1.7873 -1.0033
   9323SM  H11T12533   7.605   4.930  11.954 -1.9989 -0.9327 -1.2457
   9323SM  C12S12534   7.801   5.028  11.981  0.0873  0.3536 -0.1673
   9323SM  H12S12535   7.883   5.066  11.917 -1.1467  2.2893 -0.6850
   9323SM  H12T12536   7.840   4.958  12.058 -2.5688 -2.2358 -1.0128
   9323SM  C13S12537   7.736   5.133  12.069  0.0534 -0.8110  0.1824
   9323SM  H13S12538   7.648   5.081  12.114 -0.4546  0.9749  1.3744
   9323SM  H13T12539   7.703   5.206  11.992  2.3891  0.3709  0.2247
   9323SM  C14S12540   7.831   5.211  12.162 -0.2028 -0.5716 -0.7017
   9323SM  H14S12541   7.786   5.310  12.181  1.9421  0.1121  1.2619
   9323SM  H14T12542   7.927   5.216  12.107 -1.3208 -0.1821 -2.7295
   9323SM  C15S12543   7.853   5.143  12.292  0.1559  0.0228  0.0477
   9323SM  H15S12544   7.753   5.124  12.337  0.3140  0.9830  0.8489
   9323SM  H15T12545   7.896   5.043  12.271 -1.8094 -1.1200  1.2147
   9323SM  C16S12546   7.948   5.219  12.385 -0.2177 -0.7700 -0.4927
   9323SM  H16S12547   7.920   5.325  12.405 -0.1379 -0.4607 -1.9238
   9323SM  H16T12548   8.046   5.222  12.333 -0.3841 -0.8082 -0.8100
   9323SM  C17S12549   7.979   5.153  12.521  0.2139 -0.0090 -0.7752
   9323SM  H17S12550   8.037   5.061  12.501  0.2207 -0.0649 -0.4907
   9323SM  H17T12551   7.888   5.121  12.576 -0.8961  2.4575 -1.0153
   9323SM  C18S12552   8.084   5.235  12.600  0.1586  0.2663  0.2107
   9323SM  H18S12553   8.045   5.331  12.638 -1.2465  0.1810 -0.9194
   9323SM  H18T12554   8.173   5.257  12.537 -1.8009 -1.0837 -3.3286
   9323SM  H18U12555   8.121   5.181  12.691  0.1147 -1.0346 -0.5150
   9323SM   C1F12556   6.894   4.659  11.145  0.2830  0.3979 -0.8707
   9323SM    OF12557   6.908   4.534  11.145 -0.0289 -0.2793  0.3443
   9323SM   C2F12558   6.770   4.722  11.203 -0.3046  0.2117  0.2539
   9323SM   H2F12559   6.674   4.686  11.160 -1.0423  1.1495  1.0923
   9323SM   H2G12560   6.763   4.830  11.177 -2.6651  0.1359  0.3915
   9323SM   C3F12561   6.755   4.703  11.361 -0.4784 -0.8515  0.9702
   9323SM   H3F12562   6.753   4.593  11.374 -1.8311 -1.1610 -1.2466
   9323SM   H3G12563   6.659   4.746  11.397  0.0597  0.2603  1.1272
   9323SM   C4F12564   6.883   4.749  11.435  0.0470  0.1308 -0.5673
   9323SM   H4F12565   6.892   4.859  11.419  1.0806  0.2842  0.9075
   9323SM   H4G12566   6.966   4.693  11.387  0.2359 -0.2970  0.2514
   9323SM   C5F12567   6.883   4.719  11.586 -0.3074  0.3601 -0.0266
   9323SM   H5F12568   6.880   4.613  11.618  0.1461  0.0541 -0.9660
   9323SM   H5G12569   6.795   4.776  11.624 -0.5722 -0.4428  0.5916
   9323SM   C6F12570   7.004   4.790  11.650  0.3418  0.1600 -0.3360
   9323SM   H6F12571   6.993   4.900  11.652  0.5780  0.2141 -1.3288
   9323SM   H6G12572   7.090   4.761  11.585 -1.3463 -2.7245 -1.4836
   9323SM   C7F12573   7.019   4.735  11.795 -0.0186 -0.3307  0.0862
   9323SM   H7F12574   7.043   4.627  11.787  0.7578 -0.1022 -0.7287
   9323SM   H7G12575   6.931   4.768  11.855  0.8708  0.7407  0.8451
   9323SM   C8F12576   7.143   4.805  11.865 -0.2212  0.8977 -0.1108
   9323SM   H8F12577   7.130   4.915  11.881  0.7544  0.6376  3.1366
   9323SM   H8G12578   7.234   4.797  11.802 -0.3807  2.4547 -0.5829
   9323SM   C9F12579   7.174   4.729  11.996  0.1576  0.0919  0.6682
   9323SM   H9F12580   7.264   4.767  12.048 -1.0288 -0.1406  3.0306
   9323SM   H9G12581   7.191   4.622  11.971 -1.9804 -0.8102  2.7047
   9323SM  C10F12582   7.054   4.722  12.090  0.2904 -0.4320  0.2528
   9323SM  H10F12583   6.965   4.668  12.052 -0.4845  0.7770  0.3074
   9323SM  H10G12584   7.021   4.827  12.105 -2.6272 -0.9222 -1.8871
   9323SM  C11F12585   7.100   4.655  12.226 -0.0262  0.2414  1.0513
   9323SM  H11F12586   7.016   4.663  12.298 -0.1185  0.5826  0.9060
   9323SM  H11G12587   7.181   4.717  12.272 -0.4127 -0.0350  2.1496
   9323SM  C12F12588   7.144   4.512  12.223  0.3841  0.1669  0.8673
   9323SM  H12F12589   7.237   4.491  12.165  0.3032  1.5459  0.1948
   9323SM  H12G12590   7.058   4.460  12.176  0.7757  0.1453  0.1554
   9323SM  C13F12591   7.148   4.445  12.361 -0.1791  0.1553  0.6340
   9323SM  H13F12592   7.044   4.455  12.397 -0.5710  0.1733 -0.4477
   9323SM  H13G12593   7.224   4.502  12.420 -0.6397  0.6163  0.7920
   9323SM  C14F12594   7.167   4.297  12.342  0.0573 -0.2923 -0.0502
   9323SM  H14F12595   7.270   4.276  12.306  0.4244  2.3492 -0.6900
   9323SM  H14G12596   7.093   4.259  12.269 -2.4060  4.0876 -0.1566
   9323SM  C15F12597   7.132   4.225  12.473  0.0022 -0.1179 -0.2385
   9323SM  H15F12598   7.021   4.215  12.481  0.1024 -0.1244  1.3390
   9323SM  H15G12599   7.171   4.286  12.557  1.0214 -1.1182  0.0356
   9323SM  C16F12600   7.201   4.088  12.487 -0.1064  0.1088  0.3667
   9323SM  H16F12601   7.305   4.116  12.513  0.5310 -1.3153 -0.5537
   9323SM  H16G12602   7.205   4.025  12.395 -0.3786  0.5719  0.0335
   9323SM  C17F12603   7.148   4.006  12.604 -0.9817 -0.8019  0.2357
   9323SM  H17F12604   7.060   3.944  12.576 -1.0848 -0.5577  0.0082
   9323SM  H17G12605   7.128   4.084  12.680 -1.2812  1.0621 -1.6546
   9323SM  C18F12606   7.269   3.923  12.642 -0.1849  0.1611 -0.1756
   9323SM  H18F12607   7.352   3.990  12.671 -0.1374 -0.0529  0.1802
   9323SM  H18G12608   7.303   3.876  12.547 -0.7445  0.7312 -0.6773
   9323SM  C19F12609   7.235   3.812  12.748 -0.5143  0.0933 -0.7276
   9323SM  H19F12610   7.164   3.755  12.685 -0.5307  0.4238 -1.0150
   9323SM  H19G12611   7.197   3.849  12.846  4.0705 -2.1801  2.2855
   9323SM  C20F12612   7.361   3.743  12.790  0.2118  0.0725 -0.0143
   9323SM  H20F12613   7.422   3.812  12.852 -1.2312  0.5259  0.9463
   9323SM  H20G12614   7.423   3.713  12.703  0.3332 -1.4789  0.5645
   9323SM  C21F12615   7.350   3.600  12.850 -0.0596 -0.4840  0.2994
   9323SM  H21F12616   7.306   3.532  12.774  0.1899 -2.2274  1.6264
   9323SM  H21G12617   7.278   3.590  12.934  0.3758 -1.5061  0.5746
   9323SM  C22F12618   7.488   3.545  12.886 -0.3873  0.9127  0.2104
   9323SM  H22F12619   7.528   3.590  12.980  0.3069 -1.3179  1.0625
   9323SM  H22G12620   7.568   3.569  12.813  0.3225 -0.9380  0.3194
   9323SM  C23F12621   7.504   3.389  12.901  0.5639  0.3312 -0.2077
   9323SM  H23F12622   7.606   3.349  12.920 -0.1332 -0.8570  1.2519
   9323SM  H23G12623   7.474   3.344  12.804  0.9689  0.3599 -0.3465
   9323SM  H23H12624   7.434   3.366  12.984  0.6232  1.2462  0.1016
   9423SM     N12625   6.309   6.504  10.220  0.3664 -0.3612 -0.1338
   9423SM   C1512626   6.283   6.653  10.189 -0.8233  0.3949  0.1140
   9423SM  H15A12627   6.360   6.715  10.234  0.0781  0.0052 -0.8456
   9423SM  H15B12628   6.187   6.679  10.231 -0.3624  0.8774  0.8838
   9423SM  H15C12629   6.293   6.675  10.083  0.5449 -0.7941 -0.0445
   9423SM   C1412630   6.210   6.417  10.146 -0.2245  0.4503  0.0626
   9423SM  H14A12631   6.228   6.311  10.162 -0.6471  0.4955  0.8837
   9423SM  H14B12632   6.216   6.432  10.040 -0.5893  1.0516  0.1215
   9423SM  H14C12633   6.110   6.447  10.173 -0.3772  1.5086 -1.5820
   9423SM   C1312634   6.444   6.461  10.171 -0.8730 -0.0275 -0.0371
   9423SM  H13A12635   6.456   6.360  10.207 -1.6599 -0.5557 -1.2196
   9423SM  H13B12636   6.519   6.516  10.226 -0.9503 -0.0019  0.0427
   9423SM  H13C12637   6.462   6.467  10.065  1.4317 -0.3932  0.2671
   9423SM   C1212638   6.301   6.489  10.372  0.1506  0.0727 -0.0919
   9423SM  H12A12639   6.392   6.526  10.416 -0.6721  1.1083  0.8009
   9423SM  H12B12640   6.296   6.386  10.405 -1.3299  0.7963  2.1734
   9423SM   C1112641   6.184   6.560  10.440  0.4372 -0.3075  0.1954
   9423SM  H11A12642   6.198   6.670  10.429 -3.2774  0.2323 -0.8564
   9423SM  H11B12643   6.198   6.543  10.549  0.8877  0.0779  0.2030
   9423SM     P12644   5.943   6.613  10.337 -0.0865 -0.0656 -0.1510
   9423SM   O1312645   6.006   6.731  10.275 -0.3616  0.0150 -0.0920
   9423SM   O1412646   5.849   6.535  10.254  0.6007 -0.6478  0.5211
   9423SM   O1112647   5.874   6.651  10.478  0.1990 -0.4804  1.0064
   9423SM   O1212648   6.060   6.513  10.390 -0.2069  0.2450 -0.2294
   9423SM   C1S12649   5.819   6.542  10.557 -0.1550  0.5957  0.2579
   9423SM   H1S12650   5.906   6.489  10.602  0.1260  1.3465  0.6211
   9423SM   H1T12651   5.757   6.472  10.497 -1.2286  0.7766  1.1403
   9423SM    NF12652   5.704   6.481  10.748  0.8937  0.3049  0.1005
   9423SM   HNF12653   5.621   6.426  10.739  2.1658 -1.6570 -0.3727
   9423SM   C2S12654   5.724   6.598  10.661  0.0892 -0.0214 -0.3562
   9423SM   H2S12655   5.771   6.681  10.718  1.8465 -0.7893 -0.6337
   9423SM   C3S12656   5.590   6.654  10.603  0.0312  0.1331 -0.4665
   9423SM   H3S12657   5.541   6.568  10.553  1.0193 -0.0606 -1.1317
   9423SM    O312658   5.603   6.740  10.488 -0.3110 -0.1663 -0.0635
   9423SM   HO312659   5.696   6.732  10.467  0.2241 -0.8331  2.2355
   9423SM   C4S12660   5.513   6.719  10.719  0.2126 -0.2425  0.6826
   9423SM   H4S12661   5.541   6.820  10.753 -0.6973  0.1269  0.3749
   9423SM   C5S12662   5.400   6.656  10.763 -0.2801 -0.5866 -0.5110
   9423SM   H5S12663   5.376   6.558  10.719  2.1110 -1.4827  0.0481
   9423SM   C6S12664   5.301   6.699  10.869 -0.1484  0.0339 -0.1268
   9423SM   H6S12665   5.324   6.653  10.968 -1.8169  1.4659  1.0108
   9423SM   H6T12666   5.195   6.671  10.850 -0.2027 -0.7880  1.2089
   9423SM   C7S12667   5.297   6.847  10.887  0.5785 -0.7392 -0.2299
   9423SM   H7S12668   5.274   6.885  10.785 -2.4713  1.1253  1.0384
   9423SM   H7T12669   5.398   6.888  10.908  0.7691 -1.6248  0.6391
   9423SM   C8S12670   5.199   6.897  10.994  0.4267  0.1566 -0.6597
   9423SM   H8S12671   5.213   7.006  11.009  0.5252  0.0959 -0.2964
   9423SM   H8T12672   5.223   6.845  11.089 -1.9787  1.7582  0.9416
   9423SM   C9S12673   5.049   6.864  10.967 -0.4787  0.7176 -0.1200
   9423SM   H9S12674   5.051   6.754  10.955 -2.1004  0.7358 -0.8981
   9423SM   H9T12675   5.024   6.902  10.865 -2.2569 -0.6894 -0.2642
   9423SM  C10S12676   4.957   6.902  11.090  0.5140 -0.7927  0.2038
   9423SM  H10S12677   4.980   7.007  11.120  3.6532 -0.6083 -2.3702
   9423SM  H10T12678   4.982   6.835  11.176 -2.3510 -0.7006  1.2197
   9423SM  C11S12679   4.810   6.864  11.058  0.6146 -0.2487  0.1595
   9423SM  H11S12680   4.816   6.764  11.010 -0.1485  0.3824 -1.3267
   9423SM  H11T12681   4.763   6.913  10.969 -2.9649 -1.9791  0.9026
   9423SM  C12S12682   4.713   6.848  11.178  0.3108 -0.6557 -0.1740
   9423SM  H12S12683   4.764   6.778  11.246 -0.6114 -0.7104  0.4732
   9423SM  H12T12684   4.619   6.796  11.151  1.1157 -2.4709  0.4218
   9423SM  C13S12685   4.685   6.990  11.231 -0.4936  0.4727  0.0241
   9423SM  H13S12686   4.638   7.055  11.154 -1.5681 -0.4325 -0.1067
   9423SM  H13T12687   4.786   7.030  11.256 -0.5588 -0.4775  2.0622
   9423SM  C14S12688   4.599   6.988  11.357  0.0111  0.5445  0.0237
   9423SM  H14S12689   4.627   6.896  11.413 -3.1217 -1.0119 -0.7874
   9423SM  H14T12690   4.495   6.979  11.319 -0.2559  2.6950  0.1240
   9423SM  C15S12691   4.628   7.107  11.448  0.0418 -0.2924  0.2210
   9423SM  H15S12692   4.577   7.196  11.406  0.9346  0.8414  1.4229
   9423SM  H15T12693   4.737   7.126  11.456  0.1902 -1.0860  0.1029
   9423SM  C16S12694   4.570   7.089  11.587  0.6476 -0.2859 -0.0494
   9423SM  H16S12695   4.589   7.178  11.650 -0.9779 -1.0706  1.6441
   9423SM  H16T12696   4.644   7.021  11.635  0.4337 -0.2380  0.3547
   9423SM  C17S12697   4.425   7.044  11.590  0.5653 -0.2286 -0.3698
   9423SM  H17S12698   4.425   6.946  11.539  0.8055  0.6671 -2.1867
   9423SM  H17T12699   4.360   7.103  11.521  1.1306  1.9029  0.8236
   9423SM  C18S12700   4.364   7.037  11.732 -0.0811  0.2904  0.0969
   9423SM  H18S12701   4.254   7.024  11.724  0.3016 -3.8506 -1.2511
   9423SM  H18T12702   4.409   7.111  11.801 -0.1443  0.9306 -0.5341
   9423SM  H18U12703   4.396   6.936  11.767 -2.0994 -0.1832  0.7194
   9423SM   C1F12704   5.786   6.447  10.850 -0.0738  1.0272  0.2972
   9423SM    OF12705   5.881   6.512  10.873 -0.0435  0.4966 -0.1521
   9423SM   C2F12706   5.755   6.319  10.913  0.1136  0.2243 -0.6561
   9423SM   H2F12707   5.751   6.236  10.839 -1.6924 -1.4811  1.2302
   9423SM   H2G12708   5.651   6.321  10.950  1.0635 -0.9117  2.3368
   9423SM   C3F12709   5.846   6.299  11.038 -0.4577  0.3096 -0.2579
   9423SM   H3F12710   5.834   6.383  11.109 -1.0382  0.3108 -0.3464
   9423SM   H3G12711   5.953   6.295  11.010  0.1830 -3.0009  2.0638
   9423SM   C4F12712   5.814   6.161  11.101  0.6564  0.1161  0.8152
   9423SM   H4F12713   5.853   6.075  11.043  0.2474  0.2449  0.3344
   9423SM   H4G12714   5.706   6.139  11.120  0.9059 -3.0247 -0.8180
   9423SM   C5F12715   5.885   6.152  11.238 -0.4850 -0.2189 -0.3267
   9423SM   H5F12716   5.986   6.197  11.229 -0.6194  0.7640  2.2213
   9423SM   H5G12717   5.905   6.047  11.269  1.3934  0.2476  0.1683
   9423SM   C6F12718   5.812   6.229  11.347 -0.5803  0.2406  0.0761
   9423SM   H6F12719   5.703   6.210  11.362 -0.2983 -1.3735  0.2815
   9423SM   H6G12720   5.810   6.338  11.326  1.0563  0.8262  2.5721
   9423SM   C7F12721   5.871   6.206  11.482  0.0351  0.0412 -0.9994
   9423SM   H7F12722   5.982   6.212  11.477  0.1520  0.5441  1.0640
   9423SM   H7G12723   5.843   6.108  11.526  2.7270  0.1961  1.3592
   9423SM   C8F12724   5.828   6.313  11.586 -0.4939 -0.0042  1.3024
   9423SM   H8F12725   5.806   6.398  11.518 -0.3417 -0.5589  0.5505
   9423SM   H8G12726   5.914   6.351  11.645  1.0269 -1.8851  0.4116
   9423SM   C9F12727   5.709   6.280  11.676  0.6047  0.7433 -0.1982
   9423SM   H9F12728   5.699   6.356  11.755 -1.5335  0.7236 -0.3979
   9423SM   H9G12729   5.720   6.183  11.728 -0.7084  0.4745 -0.3929
   9423SM  C10F12730   5.575   6.269  11.604  0.1958 -0.4684  0.1734
   9423SM  H10F12731   5.589   6.179  11.541  0.9353 -0.3581  0.1687
   9423SM  H10G12732   5.557   6.359  11.541 -2.0500 -0.8645  0.1645
   9423SM  C11F12733   5.456   6.255  11.695 -0.7569 -0.8159 -0.6453
   9423SM  H11F12734   5.451   6.348  11.755  0.8736 -0.3568 -1.1562
   9423SM  H11G12735   5.471   6.159  11.749  1.5043 -0.7417 -1.0303
   9423SM  C12F12736   5.322   6.257  11.627  0.8458  0.5151 -0.0788
   9423SM  H12F12737   5.322   6.166  11.564  0.4945 -1.6042  2.7481
   9423SM  H12G12738   5.302   6.335  11.551 -2.0370 -0.5094 -0.5245
   9423SM  C13F12739   5.211   6.226  11.733  0.5531  0.4221 -0.1738
   9423SM  H13F12740   5.243   6.155  11.812  2.3700  1.6111  0.1946
   9423SM  H13G12741   5.124   6.173  11.687 -0.1699  0.4059  1.1577
   9423SM  C14F12742   5.153   6.351  11.805 -0.9236  0.3856 -0.1941
   9423SM  H14F12743   5.083   6.395  11.731  0.2036 -0.8134 -2.0453
   9423SM  H14G12744   5.235   6.419  11.837 -0.1754 -0.1245 -0.9687
   9423SM  C15F12745   5.071   6.313  11.931  0.5668 -0.1926  0.1223
   9423SM  H15F12746   5.136   6.257  12.002 -0.0856  0.8725  1.6113
   9423SM  H15G12747   4.993   6.236  11.916 -1.5105  1.4377  1.8994
   9423SM  C16F12748   5.017   6.427  12.005  1.1408  0.0469 -0.7213
   9423SM  H16F12749   4.963   6.501  11.942  2.4996  1.5541 -0.1869
   9423SM  H16G12750   5.087   6.495  12.058 -0.6217  0.9744  0.5073
   9423SM  C17F12751   4.916   6.387  12.120 -0.3207  0.3239 -0.0397
   9423SM  H17F12752   4.819   6.366  12.071  0.0628  1.2455 -1.2499
   9423SM  H17G12753   4.913   6.476  12.187  1.6581  0.2255  0.2656
   9423SM  C18F12754   4.966   6.283  12.219 -0.9035 -1.2545 -0.2341
   9423SM  H18F12755   5.057   6.321  12.270 -1.9711 -0.0515  0.8446
   9423SM  H18G12756   4.995   6.191  12.164  0.8506 -1.1255  0.4249
   9423SM  C19F12757   4.850   6.250  12.313 -0.3013  0.4713 -0.1279
   9423SM  H19F12758   4.762   6.240  12.247 -0.1755 -1.6559 -0.0564
   9423SM  H19G12759   4.829   6.344  12.367 -1.1970  0.7208 -0.9054
   9423SM  C20F12760   4.891   6.141  12.417  0.4317  0.0073  0.5602
   9423SM  H20F12761   4.995   6.158  12.453  1.3215 -2.1718 -0.7483
   9423SM  H20G12762   4.899   6.040  12.370  1.8210  0.5240 -0.3771
   9423SM  C21F12763   4.780   6.132  12.526 -0.4552 -0.0414  0.1550
   9423SM  H21F12764   4.765   6.229  12.579 -2.5943 -0.7962  1.0584
   9423SM  H21G12765   4.822   6.073  12.611 -0.6540  0.3513  0.5282
   9423SM  C22F12766   4.644   6.074  12.482  0.2829 -0.1889 -0.4240
   9423SM  H22F12767   4.606   5.997  12.552  2.3994 -1.4972 -0.6150
   9423SM  H22G12768   4.656   6.040  12.377 -0.0421 -0.2289 -0.4461
   9423SM  C23F12769   4.547   6.191  12.480  0.1982 -0.4664  0.2792
   9423SM  H23F12770   4.452   6.164  12.430 -0.6504  1.6559  0.6574
   9423SM  H23G12771   4.592   6.277  12.426  1.6681 -0.8770  0.7918
   9423SM  H23H12772   4.526   6.218  12.585  1.6872 -0.3390  0.5725
   9523SM     N12773   1.830   2.614  10.643 -0.2622  0.1141  0.6596
   9523SM   C1512774   1.727   2.697  10.713 -0.0235 -0.5046  0.4581
   9523SM  H15A12775   1.637   2.646  10.744  0.2128 -0.6595  0.8936
   9523SM  H15B12776   1.697   2.785  10.657  0.3158  0.1354  1.2619
   9523SM  H15C12777   1.775   2.727  10.805 -1.0245  0.6705  0.6204
   9523SM   C1412778   1.945   2.696  10.612  0.4920 -0.6909 -0.1292
   9523SM  H14A12779   1.907   2.789  10.572  0.5471 -0.0753  1.1874
   9523SM  H14B12780   2.022   2.651  10.551 -1.9632 -2.6842 -1.9823
   9523SM  H14C12781   1.992   2.708  10.709 -1.3428 -2.7804  1.0897
   9523SM   C1312782   1.869   2.514  10.745 -0.7379 -0.0402 -0.3189
   9523SM  H13A12783   1.786   2.468  10.797  0.1111 -2.8835 -1.2928
   9523SM  H13B12784   1.932   2.560  10.820  1.4398 -0.6264 -1.6877
   9523SM  H13C12785   1.932   2.436  10.705  2.7399  2.1996  0.3255
   9523SM   C1212786   1.769   2.553  10.521 -0.5595 -0.0447 -0.5604
   9523SM  H12A12787   1.711   2.632  10.477 -0.5285  1.1425  1.4091
   9523SM  H12B12788   1.692   2.484  10.554 -1.4486  0.9053 -0.5979
   9523SM   C1112789   1.858   2.477  10.417 -0.5901  0.1705 -0.1172
   9523SM  H11A12790   1.933   2.546  10.371  2.1272 -2.3556  0.2216
   9523SM  H11B12791   1.788   2.445  10.337 -0.3147  1.0964 -0.7602
   9523SM     P12792   2.037   2.291  10.408  0.4629 -0.1576  0.1026
   9523SM   O1312793   1.989   2.235  10.280  0.0496  0.2373  0.3985
   9523SM   O1412794   2.153   2.381  10.399 -0.1686  0.4292 -0.6313
   9523SM   O1112795   2.073   2.171  10.502 -0.1999  0.1332  0.6175
   9523SM   O1212796   1.922   2.369  10.481  0.1220 -0.1936  0.3612
   9523SM   C1S12797   2.188   2.181  10.591  0.1786  0.1269 -0.0278
   9523SM   H1S12798   2.206   2.287  10.618  0.4836  0.3092 -0.9004
   9523SM   H1T12799   2.277   2.142  10.536 -1.3848 -1.9567 -1.2600
   9523SM    NF12800   2.255   2.127  10.828 -0.1967 -0.7548  0.1318
   9523SM   HNF12801   2.322   2.055  10.846 -0.8051 -1.3653 -0.0154
   9523SM   C2S12802   2.165   2.090  10.721  0.0184  0.4322  0.8928
   9523SM   H2S12803   2.060   2.121  10.740 -0.5802 -0.8852 -0.1146
   9523SM   C3S12804   2.167   1.945  10.677 -0.3877 -0.1156 -0.4770
   9523SM   H3S12805   2.267   1.914  10.641 -0.8370 -1.1995 -0.8337
   9523SM    O312806   2.106   1.916  10.561  0.0917 -0.3821  0.4913
   9523SM   HO312807   2.077   2.003  10.532  1.3074 -0.3369 -0.6745
   9523SM   C4S12808   2.123   1.860  10.792 -0.1161 -0.2254  0.0078
   9523SM   H4S12809   2.204   1.809  10.847  1.1856 -0.5529 -2.1101
   9523SM   C5S12810   1.993   1.829  10.812 -0.0789  0.2958  0.1898
   9523SM   H5S12811   1.913   1.883  10.759  0.0089  0.2683  0.0292
   9523SM   C6S12812   1.958   1.736  10.926  0.1978 -0.0909  0.6626
   9523SM   H6S12813   2.043   1.702  10.988 -1.1739 -3.2502  0.9708
   9523SM   H6T12814   1.925   1.645  10.871  0.3758 -0.0170  0.4290
   9523SM   C7S12815   1.866   1.808  11.017  0.0784  0.1858 -0.7704
   9523SM   H7S12816   1.821   1.742  11.094 -0.7261  1.4643 -0.0862
   9523SM   H7T12817   1.782   1.856  10.962  1.3588  0.5816 -2.4693
   9523SM   C8S12818   1.937   1.906  11.114 -0.2165 -0.2756 -0.3322
   9523SM   H8S12819   1.975   1.990  11.053  0.6314 -0.5264 -0.1584
   9523SM   H8T12820   2.026   1.868  11.167  1.7427 -0.3128 -3.3971
   9523SM   C9S12821   1.835   1.961  11.220 -0.5354 -0.7715 -0.2447
   9523SM   H9S12822   1.832   1.880  11.296  2.0101 -1.3637 -0.6661
   9523SM   H9T12823   1.740   1.979  11.166 -0.2883 -1.6868 -1.0062
   9523SM  C10S12824   1.886   2.091  11.284 -0.4487 -0.2263  0.2970
   9523SM  H10S12825   1.801   2.146  11.327 -1.9394  1.1850 -3.9289
   9523SM  H10T12826   1.932   2.148  11.200 -1.2439 -1.0691 -0.7377
   9523SM  C11S12827   2.007   2.080  11.376  0.0301  0.2296 -0.2590
   9523SM  H11S12828   2.057   2.177  11.396 -1.9815  0.9403  1.9699
   9523SM  H11T12829   2.091   2.019  11.338  1.2275  0.8998  1.2224
   9523SM  C12S12830   1.965   2.036  11.523 -0.1464  0.5124  0.0185
   9523SM  H12S12831   2.052   1.993  11.577 -0.4099 -1.2064 -0.8553
   9523SM  H12T12832   1.892   1.953  11.520  0.3700 -0.1599  2.9830
   9523SM  C13S12833   1.913   2.149  11.616 -0.2536  0.2409 -0.5179
   9523SM  H13S12834   1.854   2.213  11.548  0.6477  0.7132 -0.8709
   9523SM  H13T12835   2.000   2.208  11.653  0.5886 -1.1902 -0.1246
   9523SM  C14S12836   1.846   2.101  11.749 -0.1419 -0.1718  0.0491
   9523SM  H14S12837   1.748   2.083  11.699 -1.1910  1.2156  1.4963
   9523SM  H14T12838   1.830   2.185  11.820 -0.4283 -0.8222  0.7549
   9523SM  C15S12839   1.906   1.977  11.819 -0.4644 -0.0381 -0.2647
   9523SM  H15S12840   2.008   2.010  11.850 -1.3538 -0.1400  3.0228
   9523SM  H15T12841   1.922   1.902  11.739  0.8154  0.4950 -0.5503
   9523SM  C16S12842   1.842   1.934  11.951  0.2625 -0.1545  0.5067
   9523SM  H16S12843   1.737   1.904  11.932  0.3864 -1.0505  1.1613
   9523SM  H16T12844   1.839   2.006  12.035  1.4353  1.4533 -0.7600
   9523SM  C17S12845   1.903   1.798  11.994  0.6519  0.0549 -0.0840
   9523SM  H17S12846   2.013   1.803  12.006  0.8571 -1.5696 -0.9754
   9523SM  H17T12847   1.889   1.720  11.916  0.9872 -1.0923  0.9672
   9523SM  C18S12848   1.833   1.742  12.115 -0.1744 -0.0862 -0.1746
   9523SM  H18S12849   1.886   1.648  12.142  0.1856  0.5378  1.3938
   9523SM  H18T12850   1.723   1.727  12.114 -0.5127  1.1635  3.4703
   9523SM  H18U12851   1.843   1.799  12.210 -0.9113  2.0187 -1.3022
   9523SM   C1F12852   2.255   2.249  10.888 -0.2213 -0.0227  0.1355
   9523SM    OF12853   2.157   2.321  10.885  0.4376  0.2885 -0.2874
   9523SM   C2F12854   2.377   2.290  10.971  0.2110  0.8516 -0.2133
   9523SM   H2F12855   2.353   2.378  11.034  2.0218  0.6762  0.7965
   9523SM   H2G12856   2.458   2.305  10.897  0.0486  1.8192 -0.2160
   9523SM   C3F12857   2.412   2.181  11.077 -0.6016  0.3894 -0.6600
   9523SM   H3F12858   2.441   2.085  11.030  1.4006  1.6113 -2.1344
   9523SM   H3G12859   2.322   2.174  11.141  0.0835 -0.9499  0.1940
   9523SM   C4F12860   2.523   2.226  11.175 -0.2352 -0.1147 -0.5534
   9523SM   H4F12861   2.549   2.141  11.241 -0.4321 -0.7983 -1.3408
   9523SM   H4G12862   2.481   2.311  11.234  0.1106 -0.4046  0.1196
   9523SM   C5F12863   2.655   2.271  11.114 -0.6385 -0.2691 -0.3516
   9523SM   H5F12864   2.636   2.352  11.040  0.6205  1.4471  1.1092
   9523SM   H5G12865   2.700   2.183  11.063  0.7025 -0.3503  0.9201
   9523SM   C6F12866   2.755   2.351  11.200 -0.1577 -0.2647  0.1872
   9523SM   H6F12867   2.821   2.281  11.256 -0.5098  0.4740  1.5704
   9523SM   H6G12868   2.701   2.414  11.274 -0.1863  0.6846 -0.6283
   9523SM   C7F12869   2.837   2.445  11.108 -0.6126 -0.1038 -0.2759
   9523SM   H7F12870   2.775   2.507  11.039 -0.9711  0.1554  0.2700
   9523SM   H7G12871   2.893   2.381  11.037 -0.5092  0.8519 -1.0875
   9523SM   C8F12872   2.937   2.532  11.186 -0.2708 -0.9225  0.2971
   9523SM   H8F12873   3.011   2.571  11.113 -0.5765 -0.2396  0.3537
   9523SM   H8G12874   2.983   2.481  11.274 -2.0486  0.0689  1.8789
   9523SM   C9F12875   2.863   2.648  11.262 -0.2946 -0.0712 -0.2116
   9523SM   H9F12876   2.807   2.609  11.350  1.9657  1.4705  2.0521
   9523SM   H9G12877   2.796   2.704  11.192 -1.5236 -0.8079  0.3443
   9523SM  C10F12878   2.967   2.754  11.313  0.0761  0.5347 -0.3624
   9523SM  H10F12879   3.011   2.807  11.226  3.2355  0.3798  1.0037
   9523SM  H10G12880   3.038   2.694  11.374 -0.1936 -0.3948 -0.9446
   9523SM  C11F12881   2.908   2.875  11.400 -0.1718 -0.2030  0.1583
   9523SM  H11F12882   2.830   2.921  11.336  0.7837 -2.8839 -3.2823
   9523SM  H11G12883   2.989   2.951  11.405 -1.4556  1.1870  0.5133
   9523SM  C12F12884   2.851   2.843  11.538 -0.0568  0.0250  0.4475
   9523SM  H12F12885   2.939   2.801  11.590 -1.6608 -1.9746  1.6679
   9523SM  H12G12886   2.772   2.765  11.532  0.7419 -0.8603  1.1848
   9523SM  C13F12887   2.796   2.968  11.600  0.0869 -0.1422 -0.0668
   9523SM  H13F12888   2.762   3.035  11.517  0.7203  2.3353  1.5742
   9523SM  H13G12889   2.888   3.017  11.639  0.8324 -0.4200 -1.3917
   9523SM  C14F12890   2.691   2.950  11.715  0.3504 -0.7178 -0.1909
   9523SM  H14F12891   2.696   2.858  11.777 -1.2241  1.7752  4.0979
   9523SM  H14G12892   2.600   2.941  11.652  0.1787  0.8213 -0.1960
   9523SM  C15F12893   2.685   3.074  11.800 -0.0201 -0.4923 -0.2041
   9523SM  H15F12894   2.662   3.159  11.732 -1.1948 -1.2068 -0.7436
   9523SM  H15G12895   2.781   3.090  11.852  0.0110  0.0642 -0.4233
   9523SM  C16F12896   2.584   3.057  11.913 -0.1490 -0.0286 -0.1680
   9523SM  H16F12897   2.601   2.960  11.965  0.2703  0.2770  0.2697
   9523SM  H16G12898   2.489   3.047  11.856  0.2747  3.3492 -1.6841
   9523SM  C17F12899   2.591   3.176  12.005 -0.2331 -0.5304  0.2860
   9523SM  H17F12900   2.584   3.274  11.951  0.8657 -0.9376 -0.6396
   9523SM  H17G12901   2.691   3.185  12.053  0.1054  1.5603 -0.6709
   9523SM  C18F12902   2.481   3.174  12.105  0.2633 -0.1420 -0.1754
   9523SM  H18F12903   2.481   3.083  12.170  0.4348  1.1146  1.6567
   9523SM  H18G12904   2.384   3.195  12.055  1.2874 -1.1272 -2.7050
   9523SM  C19F12905   2.486   3.283  12.217 -0.1870  0.5463  0.4243
   9523SM  H19F12906   2.476   3.376  12.156 -0.6402  0.1181 -0.1657
   9523SM  H19G12907   2.590   3.277  12.258 -0.3434 -3.4150  0.6222
   9523SM  C20F12908   2.390   3.256  12.336  0.6100  0.6624  0.5309
   9523SM  H20F12909   2.361   3.149  12.336 -1.0082  1.0824  0.1567
   9523SM  H20G12910   2.291   3.296  12.307  1.0850  0.3793 -1.6310
   9523SM  C21F12911   2.445   3.301  12.470 -0.1813 -0.2272  0.2944
   9523SM  H21F12912   2.549   3.268  12.492  1.8378  3.9996 -1.6647
   9523SM  H21G12913   2.377   3.248  12.539  0.0957  1.2995  1.8029
   9523SM  C22F12914   2.441   3.454  12.496  0.8424 -0.1999 -0.3300
   9523SM  H22F12915   2.336   3.480  12.473 -0.2694 -3.0193  1.0813
   9523SM  H22G12916   2.512   3.507  12.428  2.0843 -1.1042  0.2228
   9523SM  C23F12917   2.468   3.491  12.643  0.3447 -0.0102  0.3348
   9523SM  H23F12918   2.457   3.598  12.672  0.7231 -0.2004  1.2252
   9523SM  H23G12919   2.570   3.458  12.672 -0.8466 -2.2059  2.4853
   9523SM  H23H12920   2.407   3.428  12.711  1.7355 -2.3131 -0.4402
   9623SM     N12921   2.578   0.054  10.263  0.6255 -0.5623  0.6588
   9623SM   C1512922   2.537   0.115  10.391 -0.4524 -0.2158  0.0401
   9623SM  H15A12923   2.555   0.043  10.469  0.5971  2.0140  2.0100
   9623SM  H15B12924   2.432   0.136  10.398 -0.4016  0.0388  0.0464
   9623SM  H15C12925   2.579   0.214  10.408 -2.2515  1.5431 -4.2854
   9623SM   C1412926   2.491  -0.064  10.238 -0.2522  0.1195  0.4346
   9623SM  H14A12927   2.386  -0.044  10.249  0.1900  2.1733  1.3777
   9623SM  H14B12928   2.523  -0.152  10.292  1.6348 -0.7090 -1.8767
   9623SM  H14C12929   2.503  -0.086  10.133 -1.2972  1.4533  0.0202
   9623SM   C1312930   2.561   0.151  10.153  0.0756  0.2717  0.5202
   9623SM  H13A12931   2.641   0.223  10.165  0.5065 -0.0284 -0.4552
   9623SM  H13B12932   2.471   0.209  10.165 -0.4630 -0.4377 -0.0021
   9623SM  H13C12933   2.575   0.110  10.054  0.5626 -1.7409  1.3741
   9623SM   C1212934   2.727   0.014  10.263 -0.8975  0.0349  0.1862
   9623SM  H12A12935   2.785   0.105  10.257  0.8008 -0.8915  1.6926
   9623SM  H12B12936   2.744  -0.048  10.176 -1.3092 -0.1345  0.2248
   9623SM   C1112937   2.782  -0.065  10.382 -0.4350 -0.5146  0.4462
   9623SM  H11A12938   2.761   0.000  10.469 -0.7280  2.2172 -1.5263
   9623SM  H11B12939   2.893  -0.072  10.373 -0.2377  1.5424  0.7874
   9623SM     P12940   2.773  -0.329  10.351  0.3622 -0.1761 -0.1483
   9623SM   O1312941   2.705  -0.374  10.225 -0.2153 -0.0899  0.5628
   9623SM   O1412942   2.919  -0.319  10.353  0.3660 -0.1345  0.1974
   9623SM   O1112943   2.743  -0.419  10.478 -0.3214  0.2804  0.1368
   9623SM   O1212944   2.713  -0.191  10.393  0.3740  0.0885 -0.2368
   9623SM   C1S12945   2.680  -0.364  10.590  0.0525 -0.3102  0.1100
   9623SM   H1S12946   2.571  -0.368  10.567 -0.0835  0.4773  0.5770
   9623SM   H1T12947   2.706  -0.257  10.610 -3.5954  0.6971  0.2639
   9623SM    NF12948   2.639  -0.384  10.823 -0.0370 -0.6897  0.4799
   9623SM   HNF12949   2.677  -0.310  10.879  0.8202  1.0793 -2.2169
   9623SM   C2S12950   2.730  -0.430  10.718  0.3636 -0.3730  0.2663
   9623SM   H2S12951   2.715  -0.538  10.701  0.5295 -0.1890 -1.1678
   9623SM   C3S12952   2.881  -0.420  10.744  0.1214 -0.3055  0.7022
   9623SM   H3S12953   2.910  -0.313  10.738  0.2025 -0.3646 -0.0734
   9623SM    O312954   2.949  -0.496  10.640  0.3875  0.7189 -0.2286
   9623SM   HO312955   2.886  -0.475  10.571 -0.7289 -0.8381  0.2566
   9623SM   C4S12956   2.913  -0.481  10.870  0.3258 -0.1791  0.0497
   9623SM   H4S12957   2.901  -0.590  10.875 -1.5931  0.0589  2.4013
   9623SM   C5S12958   2.964  -0.411  10.975 -0.5787 -0.3897  0.3412
   9623SM   H5S12959   2.978  -0.302  10.974  2.3358 -0.6393  1.8890
   9623SM   C6S12960   2.995  -0.468  11.110 -0.0078  0.1326  0.2475
   9623SM   H6S12961   2.975  -0.390  11.186  0.4813  0.4531  0.0502
   9623SM   H6T12962   3.105  -0.484  11.111 -0.3663 -3.1519 -0.8697
   9623SM   C7S12963   2.931  -0.604  11.143  0.1201  1.0617  0.2475
   9623SM   H7S12964   2.988  -0.678  11.084  1.0764  0.8426  1.4057
   9623SM   H7T12965   2.825  -0.601  11.109  0.2902  0.4590 -0.3572
   9623SM   C8S12966   2.946  -0.630  11.291  0.0670  0.4633  0.1928
   9623SM   H8S12967   3.030  -0.570  11.331  0.1767  0.5012 -0.0912
   9623SM   H8T12968   2.978  -0.736  11.294  2.7771  1.2146 -0.0867
   9623SM   C9S12969   2.814  -0.626  11.372 -0.4949  0.3914 -0.6300
   9623SM   H9S12970   2.731  -0.654  11.303 -0.1958  1.3521 -1.4056
   9623SM   H9T12971   2.793  -0.520  11.395 -2.0203 -0.1231  0.4819
   9623SM  C10S12972   2.803  -0.722  11.492  0.4647 -0.4986 -0.0180
   9623SM  H10S12973   2.879  -0.802  11.481  0.9694  0.2708 -3.0489
   9623SM  H10T12974   2.704  -0.773  11.495 -0.3627  1.0556  0.0391
   9623SM  C11S12975   2.835  -0.650  11.623  0.0301  0.1216  0.2612
   9623SM  H11S12976   2.750  -0.581  11.645 -1.0011 -0.5165 -1.4768
   9623SM  H11T12977   2.917  -0.576  11.624  0.4830 -0.3107  3.0124
   9623SM  C12S12978   2.838  -0.740  11.749 -0.4270  0.4523  0.4556
   9623SM  H12S12979   2.918  -0.817  11.743 -0.5955  0.3842 -1.4510
   9623SM  H12T12980   2.751  -0.807  11.762 -1.2705  0.7877 -2.7177
   9623SM  C13S12981   2.857  -0.661  11.878  0.2137 -0.2612 -0.2903
   9623SM  H13S12982   2.806  -0.562  11.875 -1.3438 -1.0551 -0.6237
   9623SM  H13T12983   2.968  -0.669  11.876  0.1611 -1.0384 -2.3074
   9623SM  C14S12984   2.799  -0.736  12.002 -0.3294 -0.1938  0.1233
   9623SM  H14S12985   2.809  -0.846  11.996 -0.1717 -0.1553 -0.3998
   9623SM  H14T12986   2.688  -0.726  12.004 -0.3838 -0.7207 -0.1386
   9623SM  C15S12987   2.844  -0.674  12.136 -0.4979  0.3764  0.0619
   9623SM  H15S12988   2.861  -0.568  12.111  3.3430  0.0541  0.6409
   9623SM  H15T12989   2.943  -0.717  12.164 -0.4662  1.6141  2.0345
   9623SM  C16S12990   2.748  -0.712  12.257 -0.4372 -0.2712 -0.3038
   9623SM  H16S12991   2.644  -0.679  12.237 -0.7243 -0.3424  0.9594
   9623SM  H16T12992   2.783  -0.651  12.344  1.4656 -2.4868  0.6133
   9623SM  C17S12993   2.750  -0.859  12.304  0.1081  0.1702 -0.0920
   9623SM  H17S12994   2.848  -0.900  12.336  0.4764  2.0908  1.4170
   9623SM  H17T12995   2.716  -0.922  12.219  1.1691  0.0773 -0.4567
   9623SM  C18S12996   2.657  -0.867  12.424 -0.4846  0.1467 -0.5401
   9623SM  H18S12997   2.556  -0.858  12.378 -0.4099 -2.2224 -1.2705
   9623SM  H18T12998   2.673  -0.779  12.490 -1.4669 -0.3623  0.4060
   9623SM  H18U12999   2.676  -0.961  12.480  0.3908  0.5513 -0.1482
   9623SM   C1F13000   2.508  -0.405  10.822  0.3486 -0.8614  0.3664
   9623SM    OF13001   2.459  -0.479  10.738 -0.3513  0.4330  0.8733
   9623SM   C2F13002   2.424  -0.326  10.925 -0.0142  0.4530  0.5720
   9623SM   H2F13003   2.381  -0.237  10.875 -0.6025 -0.0499  0.1570
   9623SM   H2G13004   2.482  -0.307  11.017  0.8118 -1.5148  0.5214
   9623SM   C3F13005   2.304  -0.403  10.982 -0.8320 -0.1963 -0.4873
   9623SM   H3F13006   2.267  -0.368  11.080 -2.3542  1.4073 -1.5851
   9623SM   H3G13007   2.341  -0.504  11.010 -1.8182 -0.8425 -1.4563
   9623SM   C4F13008   2.170  -0.399  10.903 -0.4481 -0.7371 -0.1602
   9623SM   H4F13009   2.138  -0.505  10.895  0.8382 -1.0726 -1.2823
   9623SM   H4G13010   2.186  -0.356  10.802  2.1874  0.0127  0.4909
   9623SM   C5F13011   2.059  -0.321  10.980  1.0511  0.0844  0.1699
   9623SM   H5F13012   2.032  -0.363  11.080 -4.2969  3.0894  0.3450
   9623SM   H5G13013   1.967  -0.337  10.920  1.5843 -0.1059 -0.6109
   9623SM   C6F13014   2.088  -0.172  10.986 -0.1763 -0.0620  0.0362
   9623SM   H6F13015   2.074  -0.131  10.883 -3.8330  0.4395  0.6160
   9623SM   H6G13016   2.187  -0.153  11.034  0.0099 -1.8936  0.4716
   9623SM   C7F13017   1.987  -0.108  11.070  0.5139  0.1663 -0.7651
   9623SM   H7F13018   1.883  -0.146  11.069  0.3426  0.6218 -0.8268
   9623SM   H7G13019   1.991  -0.003  11.034  1.3552 -0.1147 -1.5315
   9623SM   C8F13020   2.021  -0.123  11.220  0.6353 -0.1694  0.1499
   9623SM   H8F13021   2.113  -0.065  11.242 -1.1507  2.6740  0.7635
   9623SM   H8G13022   2.028  -0.231  11.241 -1.4165 -0.3517  0.1548
   9623SM   C9F13023   1.912  -0.075  11.314  0.4443 -0.0589 -0.5155
   9623SM   H9F13024   1.825  -0.141  11.293 -0.0414  0.4589 -0.1900
   9623SM   H9G13025   1.872   0.025  11.285 -1.1754 -0.9980 -1.7235
   9623SM  C10F13026   1.964  -0.052  11.461  0.6001  0.2711  0.0781
   9623SM  H10F13027   1.874  -0.043  11.525  0.2598  1.7532 -0.5714
   9623SM  H10G13028   2.013   0.048  11.455 -2.2662  1.8820  1.4232
   9623SM  C11F13029   2.051  -0.157  11.521 -0.2677  0.1312  0.1022
   9623SM  H11F13030   2.127  -0.192  11.447  0.3578  0.1923  0.7073
   9623SM  H11G13031   1.996  -0.248  11.553  2.0836 -1.4544 -0.1086
   9623SM  C12F13032   2.129  -0.095  11.634  0.0313  0.2274  0.1788
   9623SM  H12F13033   2.146   0.015  11.636  0.6245  0.1771  3.5884
   9623SM  H12G13034   2.229  -0.144  11.635 -0.5082 -0.8941  0.5703
   9623SM  C13F13035   2.072  -0.127  11.770 -0.3466 -0.2421 -0.0840
   9623SM  H13F13036   2.139  -0.078  11.844  0.2450 -0.0626 -0.7300
   9623SM  H13G13037   2.080  -0.237  11.787  0.4171 -0.2799 -0.6631
   9623SM  C14F13038   1.929  -0.089  11.788  0.4025  0.0973 -0.6653
   9623SM  H14F13039   1.860  -0.144  11.721 -1.6498 -1.7173  2.6616
   9623SM  H14G13040   1.906   0.015  11.758 -1.5930 -0.2538 -0.4931
   9623SM  C15F13041   1.867  -0.099  11.934  0.0505  0.7828  0.1610
   9623SM  H15F13042   1.767  -0.052  11.930 -0.8225 -1.0401 -0.4085
   9623SM  H15G13043   1.937  -0.045  12.002  1.9280  0.5001 -1.4584
   9623SM  C16F13044   1.852  -0.241  11.996 -0.2410  0.6883  0.4006
   9623SM  H16F13045   1.949  -0.294  11.982  0.8470  2.4541  0.9439
   9623SM  H16G13046   1.775  -0.294  11.937  0.9731  0.6751 -1.2545
   9623SM  C17F13047   1.840  -0.264  12.148 -0.0166  0.1404 -0.3008
   9623SM  H17F13048   1.822  -0.371  12.174  3.0689 -0.1990  0.8667
   9623SM  H17G13049   1.758  -0.202  12.191 -1.4462  0.0997 -2.8007
   9623SM  C18F13050   1.966  -0.217  12.237 -0.6330 -0.1456 -0.0592
   9623SM  H18F13051   1.963  -0.106  12.238  0.4772  0.0557 -3.6370
   9623SM  H18G13052   2.061  -0.254  12.193 -1.6359 -1.2293 -1.3942
   9623SM  C19F13053   1.944  -0.261  12.380  0.0489  0.2391 -0.3220
   9623SM  H19F13054   1.952  -0.372  12.387  2.6786  0.4794  2.4567
   9623SM  H19G13055   1.841  -0.231  12.410 -0.2704  0.7838 -1.8905
   9623SM  C20F13056   2.057  -0.203  12.467 -0.1698 -0.2234 -0.2928
   9623SM  H20F13057   2.042  -0.094  12.483 -1.1056 -0.3325 -0.3315
   9623SM  H20G13058   2.158  -0.217  12.424 -0.2253 -1.2067 -0.1220
   9623SM  C21F13059   2.071  -0.266  12.607  0.3751  0.2346 -0.2061
   9623SM  H21F13060   2.112  -0.370  12.604 -0.7803 -0.3868  2.3315
   9623SM  H21G13061   1.970  -0.272  12.655  0.3579 -2.5827 -0.3883
   9623SM  C22F13062   2.157  -0.187  12.703  0.7034 -0.0342  0.4058
   9623SM  H22F13063   2.125  -0.082  12.691 -1.7464 -0.6713  0.9990
   9623SM  H22G13064   2.259  -0.185  12.658  0.7972 -0.5167  0.5858
   9623SM  C23F13065   2.159  -0.240  12.846 -0.2562  0.1333 -0.1159
   9623SM  H23F13066   2.230  -0.323  12.868  0.3743  0.4194 -1.0160
   9623SM  H23G13067   2.058  -0.276  12.873  0.7060 -0.9820  2.3122
   9623SM  H23H13068   2.171  -0.155  12.916 -0.1756  0.6906 -0.7999
   9723SM     N13069   4.704   7.853  10.412  0.3467 -0.5538 -0.7525
   9723SM   C1513070   4.652   7.991  10.422  0.2982 -0.8301  0.0210
   9723SM  H15A13071   4.587   7.993  10.508  0.8391 -1.8104  0.4690
   9723SM  H15B13072   4.601   8.023  10.332  1.1047  0.3843 -0.0294
   9723SM  H15C13073   4.728   8.064  10.448  0.8949 -1.1134 -0.8548
   9723SM   C1413074   4.718   7.796  10.551  0.1502  0.6459  0.0216
   9723SM  H14A13075   4.775   7.860  10.617  0.2401 -0.0241  0.6126
   9723SM  H14B13076   4.761   7.698  10.546 -0.2443  0.5187 -1.1065
   9723SM  H14C13077   4.625   7.774  10.602 -0.0467  2.2439  0.4255
   9723SM   C1313078   4.599   7.779  10.329 -0.5796 -0.3627 -0.1523
   9723SM  H13A13079   4.501   7.776  10.372 -1.2657  0.2369 -1.6044
   9723SM  H13B13080   4.633   7.677  10.318  0.1103 -0.0567 -0.9901
   9723SM  H13C13081   4.587   7.821  10.230 -2.0914 -0.3420  0.0237
   9723SM   C1213082   4.839   7.851  10.342  0.4398 -0.1984  0.4658
   9723SM  H12A13083   4.827   7.903  10.248 -0.3460 -2.4068 -0.7525
   9723SM  H12B13084   4.855   7.745  10.326 -0.6022 -0.4820  1.1722
   9723SM   C1113085   4.957   7.932  10.404 -0.1813  0.9347  0.1222
   9723SM  H11A13086   5.037   7.909  10.329 -2.4897 -1.3159 -1.8354
   9723SM  H11B13087   4.978   7.898  10.507 -1.5831 -0.5518 -0.0469
   9723SM     P13088   4.993   8.171  10.489  0.1489 -0.3878  0.1607
   9723SM   O1313089   5.126   8.193  10.426  0.4337  0.1688  0.1313
   9723SM   O1413090   4.905   8.288  10.504 -0.0190 -0.2461 -0.2231
   9723SM   O1113091   5.020   8.092  10.622 -0.3184 -0.2358 -0.3998
   9723SM   O1213092   4.924   8.070  10.396 -0.1963 -0.2196  0.3071
   9723SM   C1S13093   5.050   8.157  10.749 -0.1477  0.1217  0.3139
   9723SM   H1S13094   5.053   8.268  10.739 -2.2422  0.1300 -0.9284
   9723SM   H1T13095   5.142   8.108  10.785  0.4100 -1.0357 -2.4235
   9723SM    NF13096   4.958   8.203  10.963  0.1913 -0.1518  0.1754
   9723SM   HNF13097   5.016   8.164  11.034  0.6956  1.0450  0.4522
   9723SM   C2S13098   4.936   8.124  10.843  0.3342 -0.1123 -0.3815
   9723SM   H2S13099   4.835   8.151  10.805 -0.0702  3.0925  2.5166
   9723SM   C3S13100   4.933   7.971  10.862 -0.3746 -0.3357  0.5386
   9723SM   H3S13101   5.033   7.956  10.907  0.4984  1.3294 -0.7110
   9723SM    O313102   4.940   7.886  10.748 -0.0650  0.4568  0.0264
   9723SM   HO313103   4.944   7.950  10.677  0.1640 -0.4095 -0.7519
   9723SM   C4S13104   4.828   7.937  10.960  0.7246 -0.1266  0.0480
   9723SM   H4S13105   4.866   7.926  11.063  0.9289  1.5256  0.1745
   9723SM   C5S13106   4.692   7.928  10.939 -0.4801 -0.1410  0.1278
   9723SM   H5S13107   4.655   7.939  10.837 -1.8782  0.2820  0.6580
   9723SM   C6S13108   4.579   7.919  11.039 -0.0386  0.1413  0.8225
   9723SM   H6S13109   4.547   7.813  11.046 -0.8456  0.3761  0.8112
   9723SM   H6T13110   4.492   7.973  10.995  1.8454  2.0451 -0.8169
   9723SM   C7S13111   4.619   7.987  11.173  0.3258 -0.2946 -0.2082
   9723SM   H7S13112   4.623   8.096  11.150  2.2456 -0.2369  0.2754
   9723SM   H7T13113   4.720   7.953  11.205  0.2671  0.1383  0.4722
   9723SM   C8S13114   4.522   7.946  11.286  0.2381 -0.3278 -0.3752
   9723SM   H8S13115   4.556   7.845  11.316  0.0035 -0.0319  0.9642
   9723SM   H8T13116   4.419   7.940  11.244  0.1337  0.6716 -0.3060
   9723SM   C9S13117   4.519   8.025  11.412  0.1875  0.2127 -0.1613
   9723SM   H9S13118   4.511   8.133  11.390  1.5422  1.0897  3.0097
   9723SM   H9T13119   4.618   8.015  11.462 -0.0224 -2.0530 -0.0664
   9723SM  C10S13120   4.416   7.961  11.502  0.5117 -0.3271  0.3088
   9723SM  H10S13121   4.439   7.857  11.534 -1.8738 -0.5442  1.5632
   9723SM  H10T13122   4.314   7.966  11.457  1.0581 -0.2666 -0.9637
   9723SM  C11S13123   4.410   8.032  11.638  0.0028  0.4515 -0.6251
   9723SM  H11S13124   4.335   8.114  11.644 -1.0572 -0.5794  1.2204
   9723SM  H11T13125   4.507   8.061  11.684 -0.8421 -0.0179  1.6141
   9723SM  C12S13126   4.360   7.941  11.755 -0.4658 -0.0177 -0.4724
   9723SM  H12S13127   4.403   7.840  11.739 -2.4028 -0.8521 -0.6841
   9723SM  H12T13128   4.251   7.920  11.749 -0.2284 -1.2694 -0.5624
   9723SM  C13S13129   4.390   7.992  11.898 -0.3865 -0.0457 -0.2698
   9723SM  H13S13130   4.381   8.101  11.878 -0.2521 -0.5654 -4.0775
   9723SM  H13T13131   4.494   7.960  11.922 -0.0344  0.3626 -1.1803
   9723SM  C14S13132   4.304   7.933  12.014  0.4909  0.3717  0.6666
   9723SM  H14S13133   4.199   7.941  11.979 -0.3827  0.0485  3.0419
   9723SM  H14T13134   4.327   7.996  12.103  0.3456 -0.2891  1.1742
   9723SM  C15S13135   4.327   7.778  12.045  0.0468  0.1694  0.3827
   9723SM  H15S13136   4.369   7.729  11.955  1.5588  2.3190 -0.1609
   9723SM  H15T13137   4.229   7.732  12.071  1.3747 -1.7215  2.4428
   9723SM  C16S13138   4.407   7.749  12.179  0.2249 -0.8949 -0.3753
   9723SM  H16S13139   4.354   7.798  12.264  2.6156 -0.4780  0.9520
   9723SM  H16T13140   4.506   7.798  12.177 -0.2763  0.2325  0.9398
   9723SM  C17S13141   4.432   7.603  12.191 -0.2995  0.0649 -0.5607
   9723SM  H17S13142   4.502   7.561  12.115  0.1231  0.1506 -0.2258
   9723SM  H17T13143   4.339   7.542  12.195  0.3435 -0.8600  1.2012
   9723SM  C18S13144   4.501   7.573  12.323  0.1925 -0.2497 -0.4254
   9723SM  H18S13145   4.589   7.640  12.318 -0.5137  0.6518 -1.1764
   9723SM  H18T13146   4.527   7.465  12.328 -0.3524 -0.4904 -1.9582
   9723SM  H18U13147   4.431   7.595  12.406 -0.5351 -1.5867 -0.6569
   9723SM   C1F13148   4.914   8.325  10.973 -0.2762 -0.2202 -0.0816
   9723SM    OF13149   4.839   8.367  10.887  0.0183  0.3762  0.0347
   9723SM   C2F13150   4.972   8.409  11.093  0.0177  0.9272 -0.0336
   9723SM   H2F13151   5.035   8.490  11.049 -0.3638  1.4180  0.3155
   9723SM   H2G13152   5.036   8.338  11.150  0.4728  1.0933 -0.3277
   9723SM   C3F13153   4.865   8.468  11.192 -0.2171 -0.0822  1.0585
   9723SM   H3F13154   4.820   8.386  11.253  0.3373 -2.0962 -1.0807
   9723SM   H3G13155   4.787   8.509  11.124  1.2596  1.2079  0.0773
   9723SM   C4F13156   4.912   8.593  11.265  0.2353  0.0989 -0.1730
   9723SM   H4F13157   4.962   8.664  11.196  0.8902 -2.8831 -3.0239
   9723SM   H4G13158   4.988   8.553  11.336 -1.6950 -0.7806  1.4948
   9723SM   C5F13159   4.808   8.660  11.364  0.6969 -0.2101  0.4315
   9723SM   H5F13160   4.865   8.703  11.449 -0.0971 -0.1647  0.9439
   9723SM   H5G13161   4.744   8.580  11.404 -0.6486  0.4015 -0.4353
   9723SM   C6F13162   4.711   8.762  11.305 -0.6779 -0.1733  0.2039
   9723SM   H6F13163   4.700   8.734  11.199 -1.3369 -1.0122  0.4770
   9723SM   H6G13164   4.751   8.865  11.320 -0.7549 -0.2172  0.7400
   9723SM   C7F13165   4.565   8.761  11.361 -0.2632  0.4590 -0.5565
   9723SM   H7F13166   4.517   8.669  11.322 -0.2762  0.4567 -0.5349
   9723SM   H7G13167   4.507   8.846  11.319 -0.2558  0.9404  0.3736
   9723SM   C8F13168   4.549   8.773  11.513 -0.1458 -0.3855 -0.2890
   9723SM   H8F13169   4.575   8.681  11.571  0.3769  0.5894  1.0654
   9723SM   H8G13170   4.441   8.787  11.534  0.3444  1.5515  1.2214
   9723SM   C9F13171   4.616   8.892  11.575 -0.3031  0.5763 -0.1936
   9723SM   H9F13172   4.590   8.986  11.523  0.4489  2.2146  2.2265
   9723SM   H9G13173   4.726   8.885  11.561 -0.0789  3.0843 -0.1753
   9723SM  C10F13174   4.584   8.918  11.723 -0.4220 -0.2319 -0.3376
   9723SM  H10F13175   4.603   8.829  11.786 -1.6155  0.8021  1.6066
   9723SM  H10G13176   4.478   8.951  11.723  0.1731  1.9880  1.4924
   9723SM  C11F13177   4.669   9.033  11.793  0.3406 -0.6551  0.2717
   9723SM  H11F13178   4.669   9.117  11.719 -2.1479 -0.9470 -0.1410
   9723SM  H11G13179   4.777   9.009  11.796  0.3536 -0.6804 -0.2623
   9723SM  C12F13180   4.620   9.074  11.923 -0.3383 -0.5484 -0.3383
   9723SM  H12F13181   4.649   8.985  11.983 -0.6820 -0.5121 -0.1164
   9723SM  H12G13182   4.510   9.086  11.917 -0.0496  1.5978 -3.7223
   9723SM  C13F13183   4.685   9.201  11.984  0.6315 -0.7657  0.3310
   9723SM  H13F13184   4.796   9.196  11.977  0.6303  1.1069 -2.9415
   9723SM  H13G13185   4.670   9.210  12.094  2.3554 -2.1178  0.7322
   9723SM  C14F13186   4.651   9.328  11.901  0.8675 -0.1825  0.2711
   9723SM  H14F13187   4.544   9.353  11.908  0.9898 -0.0828  2.5826
   9723SM  H14G13188   4.678   9.303  11.796  1.1235  0.2890  0.2242
   9723SM  C15F13189   4.727   9.451  11.940  0.3278 -0.4939 -0.3246
   9723SM  H15F13190   4.822   9.429  11.993  0.4739  1.5263  0.3251
   9723SM  H15G13191   4.660   9.510  12.006  0.7655  0.8373 -1.0324
   9723SM  C16F13192   4.772   9.539  11.820  0.5200  0.2842  0.4444
   9723SM  H16F13193   4.688   9.568  11.754 -0.3641  2.3672  2.3393
   9723SM  H16G13194   4.825   9.473  11.748 -0.3668  0.7497 -0.6569
   9723SM  C17F13195   4.839   9.669  11.856 -0.1273 -0.3166  0.4897
   9723SM  H17F13196   4.921   9.650  11.928  0.0494 -0.6678  0.1990
   9723SM  H17G13197   4.767   9.729  11.916  1.0152  1.9577 -0.2710
   9723SM  C18F13198   4.881   9.755  11.731 -0.6578  0.7428 -0.1952
   9723SM  H18F13199   4.800   9.812  11.681 -0.5379 -1.1559 -2.7505
   9723SM  H18G13200   4.917   9.680  11.657 -0.3666  2.0471 -1.4219
   9723SM  C19F13201   5.005   9.841  11.761 -0.3259 -0.7505  0.1080
   9723SM  H19F13202   5.075   9.766  11.805 -1.0943 -0.3129  2.2181
   9723SM  H19G13203   4.982   9.920  11.836  0.0225  0.6952 -1.2723
   9723SM  C20F13204   5.071   9.898  11.637  0.0981 -1.0560 -0.5174
   9723SM  H20F13205   5.104   9.818  11.567  0.6149 -2.6692  1.4760
   9723SM  H20G13206   5.169   9.935  11.677  0.5706 -1.5118 -1.2421
   9723SM  C21F13207   4.989  10.011  11.558 -0.2144 -0.1221 -0.0553
   9723SM  H21F13208   4.898   9.967  11.513 -1.4036 -1.4784  3.3153
   9723SM  H21G13209   5.040  10.035  11.462 -1.2412 -0.9959 -0.8377
   9723SM  C22F13210   4.941  10.135  11.634 -0.2482 -0.1241 -0.5927
   9723SM  H22F13211   4.861  10.098  11.702  1.6343 -1.2028  1.1487
   9723SM  H22G13212   4.905  10.216  11.567  0.2943  0.9045  0.3363
   9723SM  C23F13213   5.044  10.203  11.726  1.1351  0.7196  0.2582
   9723SM  H23F13214   5.135  10.215  11.664  1.4608 -0.8947  0.3817
   9723SM  H23G13215   5.070  10.133  11.808  2.4443  1.1678  0.2519
   9723SM  H23H13216   5.022  10.304  11.766 -0.7297 -0.1254  1.5277
   9823SM     N13217   7.943   6.668  10.701  0.2971 -0.3687  0.7011
   9823SM   C1513218   8.096   6.654  10.743  0.1250 -0.2579  0.0204
   9823SM  H15A13219   8.159   6.672  10.657 -0.4165 -0.0191 -0.3367
   9823SM  H15B13220   8.111   6.554  10.779 -1.5723  0.5562  3.4490
   9823SM  H15C13221   8.113   6.729  10.819 -1.7233  1.7289 -1.3866
   9823SM   C1413222   7.920   6.807  10.645 -0.4319  0.3797  0.6013
   9823SM  H14A13223   7.826   6.804  10.590 -1.7667  0.8285  2.7404
   9823SM  H14B13224   7.993   6.825  10.568  0.2212 -0.7087  0.9578
   9823SM  H14C13225   7.915   6.882  10.722  0.0251  0.9619  0.0804
   9823SM   C1313226   7.915   6.558  10.607  0.4618  0.0510 -0.0573
   9823SM  H13A13227   7.963   6.578  10.512  0.5574  3.3713  0.5930
   9823SM  H13B13228   7.809   6.556  10.585  0.7107 -0.8876 -1.2900
   9823SM  H13C13229   7.954   6.462  10.639  0.6487 -0.4131 -1.5556
   9823SM   C1213230   7.852   6.633  10.819 -0.1872  1.0341  0.4974
   9823SM  H12A13231   7.886   6.699  10.897  1.2185  0.1411  0.6917
   9823SM  H12B13232   7.884   6.534  10.846 -1.3204  0.3836 -0.5024
   9823SM   C1113233   7.698   6.630  10.799 -0.0711 -0.2014 -0.3247
   9823SM  H11A13234   7.664   6.718  10.740 -0.8495  1.4021  2.3419
   9823SM  H11B13235   7.657   6.656  10.899  3.0304 -0.0407  1.0094
   9823SM     P13236   7.670   6.369  10.830 -0.2836  0.2582  0.1819
   9823SM   O1313237   7.556   6.278  10.799  0.0337  0.8301 -0.1492
   9823SM   O1413238   7.802   6.311  10.803  0.0305 -0.3972  0.1894
   9823SM   O1113239   7.666   6.414  10.980 -0.2480 -0.9715 -0.3458
   9823SM   O1213240   7.657   6.505  10.752  0.3148  0.3496  0.1171
   9823SM   C1S13241   7.544   6.461  11.037  0.2806  0.6212  0.7935
   9823SM   H1S13242   7.462   6.392  11.008 -0.7164  2.0149  0.2056
   9823SM   H1T13243   7.509   6.560  11.001  0.0370  0.0376 -0.6403
   9823SM    NF13244   7.414   6.493  11.242  0.4490 -0.9415  0.4231
   9823SM   HNF13245   7.381   6.586  11.259 -2.8154 -2.0391  0.6712
   9823SM   C2S13246   7.553   6.467  11.195  0.1749 -0.7567 -0.8338
   9823SM   H2S13247   7.583   6.366  11.230  0.2139 -0.9122 -1.3211
   9823SM   C3S13248   7.667   6.558  11.239  0.9073  1.1172  0.6901
   9823SM   H3S13249   7.662   6.662  11.200 -1.5280  2.2780  3.6688
   9823SM    O313250   7.796   6.507  11.204 -0.2493  0.4337 -0.0463
   9823SM   HO313251   7.772   6.446  11.134 -1.2815 -2.3193  2.5371
   9823SM   C4S13252   7.656   6.571  11.384  0.0652  0.2649  0.3484
   9823SM   H4S13253   7.656   6.476  11.440  0.9920 -0.7555 -1.3069
   9823SM   C5S13254   7.640   6.689  11.442  0.1366 -0.5519 -0.2335
   9823SM   H5S13255   7.625   6.786  11.394  1.3468 -1.4370 -2.5454
   9823SM   C6S13256   7.633   6.701  11.592  0.2489  0.0406  0.2262
   9823SM   H6S13257   7.537   6.757  11.599  0.3427  0.3974 -1.1536
   9823SM   H6T13258   7.716   6.764  11.629  0.7194 -1.3450  1.6618
   9823SM   C7S13259   7.617   6.577  11.678  0.7454  0.3783 -0.1233
   9823SM   H7S13260   7.705   6.511  11.667  0.5069  0.1939 -1.0417
   9823SM   H7T13261   7.531   6.525  11.629 -0.4918  1.3043  0.9968
   9823SM   C8S13262   7.581   6.600  11.826 -0.3459  0.7161  0.1634
   9823SM   H8S13263   7.565   6.504  11.880 -0.3409  0.7099  0.1542
   9823SM   H8T13264   7.492   6.666  11.836  0.8263  2.3252  0.4526
   9823SM   C9S13265   7.703   6.663  11.900 -0.2908 -0.3639 -0.2071
   9823SM   H9S13266   7.786   6.652  11.826 -0.7636  0.5663 -0.8971
   9823SM   H9T13267   7.730   6.603  11.989  0.4137  3.7034  2.5701
   9823SM  C10S13268   7.690   6.817  11.930 -0.2196  0.0964  0.3041
   9823SM  H10S13269   7.606   6.852  11.992 -0.3484  2.1244 -0.9251
   9823SM  H10T13270   7.662   6.851  11.828  2.0860 -0.5439 -0.6190
   9823SM  C11S13271   7.819   6.893  11.976 -0.4298 -0.1338  0.8061
   9823SM  H11S13272   7.795   6.999  11.957 -2.3599 -0.8773 -1.3389
   9823SM  H11T13273   7.905   6.860  11.914  0.1884 -0.5748  1.8649
   9823SM  C12S13274   7.857   6.852  12.120  0.5978 -0.0508  0.0611
   9823SM  H12S13275   7.876   6.742  12.118  0.1351 -0.1199 -1.7207
   9823SM  H12T13276   7.763   6.872  12.175  0.8726  1.8633 -0.1117
   9823SM  C13S13277   7.980   6.920  12.178 -0.3539 -0.6294 -0.5735
   9823SM  H13S13278   7.957   7.025  12.206 -0.4594 -1.0488  1.0534
   9823SM  H13T13279   8.060   6.926  12.101 -1.3620  0.5468 -1.5522
   9823SM  C14S13280   8.033   6.854  12.305  0.3704  0.6487 -0.0401
   9823SM  H14S13281   8.048   6.745  12.287 -2.3246 -0.0888  1.6379
   9823SM  H14T13282   7.948   6.860  12.376 -0.6922  0.1812 -1.2340
   9823SM  C15S13283   8.165   6.910  12.365  0.7187  0.3091 -0.0044
   9823SM  H15S13284   8.247   6.895  12.292  1.6519  2.9326  0.4023
   9823SM  H15T13285   8.207   6.855  12.451 -0.8785  0.2366  0.7693
   9823SM  C16S13286   8.166   7.065  12.396 -0.4075  0.5063 -0.2733
   9823SM  H16S13287   8.175   7.080  12.506  2.2560 -2.3572  0.0501
   9823SM  H16T13288   8.062   7.098  12.373 -1.1205  0.1080  2.0457
   9823SM  C17S13289   8.264   7.138  12.315  0.0326 -0.2671  0.2496
   9823SM  H17S13290   8.232   7.127  12.210 -0.0456 -1.8649  0.4204
   9823SM  H17T13291   8.362   7.088  12.331  0.7884  1.1629  0.3395
   9823SM  C18S13292   8.284   7.278  12.354  0.0662 -0.1290 -0.0432
   9823SM  H18S13293   8.381   7.319  12.318 -0.9635  2.5396 -0.0258
   9823SM  H18T13294   8.287   7.294  12.464 -1.3837  0.3985 -0.0448
   9823SM  H18U13295   8.206   7.344  12.309  0.3863 -0.2324 -0.7589
   9823SM   C1F13296   7.333   6.390  11.235 -0.0716  0.9404  0.0089
   9823SM    OF13297   7.380   6.277  11.217 -0.5814 -0.6838  0.5231
   9823SM   C2F13298   7.185   6.422  11.243 -0.5244  0.4436  0.3171
   9823SM   H2F13299   7.146   6.420  11.139 -1.4799 -0.6223  0.6751
   9823SM   H2G13300   7.177   6.530  11.267  0.6960  1.0431 -1.6975
   9823SM   C3F13301   7.108   6.330  11.346 -0.3591 -0.7174  0.7721
   9823SM   H3F13302   7.088   6.228  11.308 -1.5136 -0.7143  1.3073
   9823SM   H3G13303   7.008   6.374  11.367  0.9079  1.6496  2.2555
   9823SM   C4F13304   7.169   6.326  11.488  0.2275  0.5031  0.7460
   9823SM   H4F13305   7.273   6.287  11.493  0.5053  1.2506  0.9079
   9823SM   H4G13306   7.112   6.248  11.544 -0.4748  0.1811 -0.3827
   9823SM   C5F13307   7.139   6.447  11.567  0.0036 -0.7577  0.0949
   9823SM   H5F13308   7.033   6.475  11.578  0.3722  0.8385 -0.2275
   9823SM   H5G13309   7.179   6.539  11.520 -0.3990  0.8905  2.7656
   9823SM   C6F13310   7.213   6.448  11.706  0.2067 -0.1083 -0.2160
   9823SM   H6F13311   7.210   6.552  11.745  1.5540 -0.1447  0.0261
   9823SM   H6G13312   7.318   6.412  11.702  0.4088  0.4335  0.0166
   9823SM   C7F13313   7.144   6.357  11.813  0.5654 -0.0383  0.8207
   9823SM   H7F13314   7.205   6.359  11.906  1.2647  1.2450  0.3592
   9823SM   H7G13315   7.154   6.250  11.786  1.2798  0.4624 -1.0012
   9823SM   C8F13316   6.996   6.370  11.838  0.6231 -0.7089 -0.0863
   9823SM   H8F13317   6.943   6.331  11.748  2.2620  0.1973 -1.4928
   9823SM   H8G13318   6.972   6.477  11.852  1.3331 -0.4341 -0.9410
   9823SM   C9F13319   6.940   6.308  11.968 -0.6386 -0.1949 -0.6730
   9823SM   H9F13320   7.006   6.333  12.054 -1.7166 -1.3588  0.5329
   9823SM   H9G13321   6.945   6.198  11.978 -0.5541 -0.0298  1.7133
   9823SM  C10F13322   6.795   6.339  11.997  0.2670 -0.3232 -0.0323
   9823SM  H10F13323   6.787   6.449  11.985  2.2789 -0.2303 -0.8995
   9823SM  H10G13324   6.780   6.304  12.102 -2.0398  0.9386  0.1301
   9823SM  C11F13325   6.701   6.285  11.893 -0.7492 -1.0988  0.3169
   9823SM  H11F13326   6.689   6.174  11.902  1.7129 -1.3577  0.9815
   9823SM  H11G13327   6.743   6.316  11.795  2.8478 -1.0455  1.7129
   9823SM  C12F13328   6.560   6.337  11.926  0.0575 -0.1381 -0.2907
   9823SM  H12F13329   6.557   6.446  11.906  2.3667  0.0355  0.0319
   9823SM  H12G13330   6.549   6.322  12.036 -0.4479  0.6106 -0.2353
   9823SM  C13F13331   6.455   6.257  11.845  0.9634  0.3467  0.5755
   9823SM  H13F13332   6.352   6.292  11.866 -0.1642 -1.9042 -0.8176
   9823SM  H13G13333   6.463   6.152  11.879  0.9292  0.3977  0.7391
   9823SM  C14F13334   6.481   6.263  11.698 -0.3946 -0.3117  0.7427
   9823SM  H14F13335   6.581   6.222  11.670 -0.9646 -1.2093 -0.0527
   9823SM  H14G13336   6.488   6.371  11.671  0.9448 -1.1124 -2.5596
   9823SM  C15F13337   6.372   6.195  11.612 -0.2563  0.1344  0.3264
   9823SM  H15F13338   6.391   6.214  11.504  0.0683 -1.8332 -0.0139
   9823SM  H15G13339   6.272   6.237  11.631 -0.8534 -0.7924 -0.6409
   9823SM  C16F13340   6.362   6.046  11.634 -0.1409  0.0241 -1.0386
   9823SM  H16F13341   6.315   6.029  11.734  0.5717 -0.1700 -0.7320
   9823SM  H16G13342   6.465   6.006  11.634  0.1855  0.8518 -1.5575
   9823SM  C17F13343   6.289   5.978  11.516 -0.3075 -0.4119 -0.9378
   9823SM  H17F13344   6.307   6.034  11.421  0.6436  1.0430  0.0608
   9823SM  H17G13345   6.182   5.998  11.537 -0.6503 -1.4665 -1.6245
   9823SM  C18F13346   6.325   5.830  11.508 -0.7565  0.5473 -0.1066
   9823SM  H18F13347   6.303   5.792  11.609  0.3720  1.4458  0.5026
   9823SM  H18G13348   6.434   5.828  11.485 -1.0959  0.7691 -1.8900
   9823SM  C19F13349   6.240   5.756  11.404  0.1982 -0.5380  0.5060
   9823SM  H19F13350   6.249   5.819  11.313  2.8259 -1.8530 -0.2352
   9823SM  H19G13351   6.140   5.738  11.448  0.1987 -2.1755 -0.0952
   9823SM  C20F13352   6.306   5.620  11.373 -0.0041  0.3697  0.3322
   9823SM  H20F13353   6.398   5.646  11.316  0.1340 -1.0988 -0.1584
   9823SM  H20G13354   6.240   5.563  11.304  1.1718 -2.2827  1.2669
   9823SM  C21F13355   6.342   5.546  11.508  0.6561  0.2835  0.1693
   9823SM  H21F13356   6.251   5.558  11.570 -0.7899  3.0565 -2.2633
   9823SM  H21G13357   6.417   5.599  11.570  0.9985 -0.5497  0.4808
   9823SM  C22F13358   6.385   5.406  11.483 -0.5051 -0.1632  0.5192
   9823SM  H22F13359   6.469   5.418  11.411 -1.3616 -3.4577 -1.2082
   9823SM  H22G13360   6.300   5.354  11.434  2.0456 -1.6065 -2.6732
   9823SM  C23F13361   6.429   5.342  11.610 -0.0128 -0.1778 -0.1137
   9823SM  H23F13362   6.503   5.409  11.658  0.1388  0.9163 -1.7808
   9823SM  H23G13363   6.480   5.246  11.583  1.3879  0.0755  1.4522
   9823SM  H23H13364   6.352   5.316  11.685 -0.5840  0.7092 -0.3877
   9923SM     N13365   0.639   0.101  10.664 -0.0243 -0.1356  0.2361
   9923SM   C1513366   0.717   0.105  10.790 -0.8058  0.6660  0.4772
   9923SM  H15A13367   0.818   0.069  10.784 -1.0362  0.1910 -0.9258
   9923SM  H15B13368   0.666   0.064  10.876  0.0652  0.7731  1.0560
   9923SM  H15C13369   0.737   0.206  10.821 -1.9730  0.6586  1.3384
   9923SM   C1413370   0.707   0.194  10.570  0.0920 -0.0192  0.4715
   9923SM  H14A13371   0.710   0.291  10.618 -2.1735 -0.6010  1.9549
   9923SM  H14B13372   0.657   0.191  10.475 -1.6506 -1.6256  1.3581
   9923SM  H14C13373   0.811   0.170  10.551 -0.0710 -1.4759  1.2489
   9923SM   C1313374   0.647  -0.033  10.604  0.2330  0.7345  0.0362
   9923SM  H13A13375   0.583  -0.103  10.655  2.8063 -0.5999  1.6396
   9923SM  H13B13376   0.750  -0.068  10.599  0.5944  1.7771 -0.0920
   9923SM  H13C13377   0.608  -0.023  10.504 -2.2013 -1.7908  0.6345
   9923SM   C1213378   0.491   0.142  10.685  0.3946  0.2606 -0.1916
   9923SM  H12A13379   0.489   0.239  10.732 -1.2624  0.5966 -0.9054
   9923SM  H12B13380   0.444   0.071  10.753  0.7940  0.6767  0.5357
   9923SM   C1113381   0.398   0.142  10.565 -0.1531 -0.2069 -0.1414
   9923SM  H11A13382   0.433   0.217  10.491  1.2171 -0.8863 -0.1979
   9923SM  H11B13383   0.301   0.173  10.609  0.0102 -0.6147  0.5172
   9923SM     P13384   0.263  -0.079  10.526 -0.0155  0.0454 -0.4136
   9923SM   O1313385   0.149  -0.011  10.459  0.0972 -0.0711  0.5794
   9923SM   O1413386   0.306  -0.219  10.487  0.4960  0.4563  0.7387
   9923SM   O1113387   0.242  -0.080  10.689  0.0996 -0.3092  0.5543
   9923SM   O1213388   0.389   0.012  10.504  0.1981 -0.3042  0.1473
   9923SM   C1S13389   0.316  -0.167  10.774  0.0472 -0.9875  0.1247
   9923SM   H1S13390   0.421  -0.134  10.764 -1.1615  3.1772 -1.2827
   9923SM   H1T13391   0.300  -0.270  10.738 -0.0417 -1.2456  0.8867
   9923SM    NF13392   0.356  -0.239  11.012 -0.2304  0.2307 -0.2419
   9923SM   HNF13393   0.320  -0.328  11.042  0.5135 -0.4658 -1.3402
   9923SM   C2S13394   0.272  -0.160  10.925  0.7793 -0.0581 -0.0531
   9923SM   H2S13395   0.291  -0.057  10.961  3.3507 -0.1125 -1.0612
   9923SM   C3S13396   0.116  -0.187  10.938 -0.0294  0.0273 -0.1044
   9923SM   H3S13397   0.104  -0.292  10.904 -0.6328 -0.3047  1.0803
   9923SM    O313398   0.039  -0.113  10.849 -0.0491 -0.5500 -0.2052
   9923SM   HO313399   0.099  -0.089  10.778 -1.8618 -0.0570 -1.6267
   9923SM   C4S13400   0.057  -0.172  11.081 -0.2655  0.2176 -0.7523
   9923SM   H4S13401   0.053  -0.068  11.117  1.0304 -0.4163  1.3703
   9923SM   C5S13402  -0.003  -0.277  11.148  0.6539  0.2361 -0.7343
   9923SM   H5S13403  -0.008  -0.377  11.102 -0.1641  1.0564 -2.5532
   9923SM   C6S13404  -0.076  -0.257  11.275 -0.1008  0.5167  0.2370
   9923SM   H6S13405  -0.072  -0.353  11.331  2.5143  0.1694 -0.4320
   9923SM   H6T13406  -0.184  -0.245  11.254  0.0590  1.1931 -0.2374
   9923SM   C7S13407  -0.036  -0.143  11.371  0.3730 -0.3533  0.9576
   9923SM   H7S13408  -0.053  -0.045  11.322  0.9378  0.5824  2.5653
   9923SM   H7T13409   0.075  -0.140  11.381  0.3425 -0.5212  1.3816
   9923SM   C8S13410  -0.122  -0.155  11.496 -0.1621 -0.3717  0.8329
   9923SM   H8S13411  -0.073  -0.222  11.570 -2.1678 -1.4425  1.2927
   9923SM   H8T13412  -0.221  -0.197  11.467  0.1841 -0.2746 -0.5574
   9923SM   C9S13413  -0.141  -0.023  11.572 -0.2407 -0.1950  0.1992
   9923SM   H9S13414  -0.229   0.028  11.527 -1.0330 -1.5184  0.2090
   9923SM   H9T13415  -0.052   0.043  11.564  0.7664 -1.6283 -0.8712
   9923SM  C10S13416  -0.181  -0.039  11.718 -0.4492 -1.2557  0.1187
   9923SM  H10S13417  -0.109  -0.102  11.775  1.5990 -1.3197 -2.3703
   9923SM  H10T13418  -0.270  -0.105  11.705  0.6584 -2.5649 -1.2935
   9923SM  C11S13419  -0.214   0.092  11.790  0.0625 -0.3185 -0.0968
   9923SM  H11S13420  -0.274   0.058  11.877  1.5731 -1.3211  0.6011
   9923SM  H11T13421  -0.281   0.158  11.731  0.4045  1.0049  0.9406
   9923SM  C12S13422  -0.099   0.179  11.830  0.0550 -0.1328 -0.1163
   9923SM  H12S13423  -0.054   0.239  11.749 -1.1044  2.7152  1.1999
   9923SM  H12T13424  -0.016   0.114  11.863  0.4448  0.6603  0.5140
   9923SM  C13S13425  -0.122   0.267  11.948  0.0025 -0.5640 -0.3750
   9923SM  H13S13426  -0.160   0.200  12.028 -1.8044  0.1270 -0.6168
   9923SM  H13T13427  -0.206   0.335  11.922  0.3943  0.3776  0.7247
   9923SM  C14S13428  -0.005   0.358  11.991 -0.3641 -0.0747  0.5548
   9923SM  H14S13429   0.034   0.419  11.907 -0.0707  1.4450  1.7671
   9923SM  H14T13430   0.079   0.289  12.015  0.0728  0.7693  1.4716
   9923SM  C15S13431  -0.044   0.461  12.092  0.2000 -0.0808  0.2544
   9923SM  H15S13432  -0.123   0.421  12.159 -0.0101 -0.1146 -0.0126
   9923SM  H15T13433  -0.097   0.546  12.043  2.0495  0.6376 -0.6104
   9923SM  C16S13434   0.075   0.511  12.177  0.2211 -0.7142  0.6247
   9923SM  H16S13435   0.162   0.539  12.113 -1.4830  3.1089 -0.3280
   9923SM  H16T13436   0.094   0.424  12.243  0.4736 -0.1119  1.3506
   9923SM  C17S13437   0.044   0.639  12.252  0.3380 -0.0577  0.3683
   9923SM  H17S13438  -0.057   0.633  12.298  0.3006  2.4790  0.7607
   9923SM  H17T13439   0.044   0.725  12.181 -0.3200 -0.8125 -0.5833
   9923SM  C18S13440   0.138   0.661  12.363  0.8762  0.2759 -0.5194
   9923SM  H18S13441   0.106   0.602  12.452  1.8239  0.2246 -0.2006
   9923SM  H18T13442   0.126   0.764  12.402  0.9667 -0.0733  0.4592
   9923SM  H18U13443   0.242   0.633  12.334  0.3534  0.2188 -2.4619
   9923SM   C1F13444   0.486  -0.206  11.045 -0.1895 -0.1260 -0.0442
   9923SM    OF13445   0.536  -0.097  11.024  0.1903 -0.2533 -0.0201
   9923SM   C2F13446   0.564  -0.315  11.106  0.4129  0.1308  0.1732
   9923SM   H2F13447   0.600  -0.393  11.036 -1.9684 -1.3302  0.4358
   9923SM   H2G13448   0.493  -0.371  11.172 -0.8712 -0.0809 -1.3172
   9923SM   C3F13449   0.684  -0.264  11.192 -0.3902 -0.4487  0.1194
   9923SM   H3F13450   0.755  -0.227  11.114 -1.3761  2.4460  0.4503
   9923SM   H3G13451   0.723  -0.357  11.239  0.2736 -0.1548  0.1712
   9923SM   C4F13452   0.648  -0.160  11.299  0.2706 -0.0125 -0.0137
   9923SM   H4F13453   0.582  -0.211  11.373 -0.8089  0.6133 -0.5146
   9923SM   H4G13454   0.595  -0.074  11.252  1.2339  0.6648  0.1118
   9923SM   C5F13455   0.765  -0.097  11.380  0.4317  0.0156 -0.4709
   9923SM   H5F13456   0.737  -0.013  11.448 -1.2061 -1.0806  0.2852
   9923SM   H5G13457   0.834  -0.058  11.302  0.9611 -0.9562 -0.4995
   9923SM   C6F13458   0.848  -0.191  11.462  0.4270  0.8475  0.4231
   9923SM   H6F13459   0.891  -0.270  11.396 -1.3298 -0.0835  0.3318
   9923SM   H6G13460   0.781  -0.248  11.529  0.6501  1.1780  0.9356
   9923SM   C7F13461   0.953  -0.119  11.545  0.4098 -0.0524 -0.8984
   9923SM   H7F13462   0.901  -0.030  11.587  0.4589 -1.1238  1.6116
   9923SM   H7G13463   1.043  -0.085  11.490  0.5700  0.2748 -0.4361
   9923SM   C8F13464   1.005  -0.200  11.670 -0.3155  0.0883  0.0678
   9923SM   H8F13465   1.093  -0.246  11.620 -0.0863  1.6390 -1.0091
   9923SM   H8G13466   0.922  -0.266  11.704 -2.0581  2.2906  0.3458
   9923SM   C9F13467   1.074  -0.126  11.784  0.4989 -0.4559  0.1156
   9923SM   H9F13468   1.012  -0.043  11.822 -0.4439 -0.3995 -1.4517
   9923SM   H9G13469   1.165  -0.074  11.748 -0.8490  1.7470 -0.2960
   9923SM  C10F13470   1.114  -0.218  11.897 -0.2384 -0.0484 -0.6716
   9923SM  H10F13471   1.191  -0.288  11.858 -0.3327 -0.3690 -0.2879
   9923SM  H10G13472   1.028  -0.272  11.942 -0.4916 -0.7001 -1.9032
   9923SM  C11F13473   1.180  -0.140  12.010 -0.5633 -0.4041 -0.5878
   9923SM  H11F13474   1.112  -0.053  12.025 -1.4816 -1.4299  1.6457
   9923SM  H11G13475   1.276  -0.100  11.972 -0.2632 -1.0383 -0.5115
   9923SM  C12F13476   1.218  -0.212  12.138  0.2107  0.0769 -0.0769
   9923SM  H12F13477   1.288  -0.297  12.121 -0.5605 -0.6463  0.2476
   9923SM  H12G13478   1.131  -0.247  12.197  1.1243 -2.3245 -0.0331
   9923SM  C13F13479   1.300  -0.124  12.224 -0.3504 -0.2793 -0.6146
   9923SM  H13F13480   1.246  -0.029  12.244  1.8656  0.7342  0.9846
   9923SM  H13G13481   1.393  -0.088  12.175  1.3152 -0.1273  2.4620
   9923SM  C14F13482   1.336  -0.188  12.368  0.5605  0.5354  0.6411
   9923SM  H14F13483   1.394  -0.277  12.336 -1.4826 -0.8920  0.7437
   9923SM  H14G13484   1.248  -0.206  12.433  0.0517  1.8973  0.3700
   9923SM  C15F13485   1.425  -0.091  12.450 -0.4065  0.6753  0.4208
   9923SM  H15F13486   1.363  -0.001  12.468 -0.4749  0.7480 -0.1501
   9923SM  H15G13487   1.510  -0.059  12.386  1.2543 -0.8392  1.7459
   9923SM  C16F13488   1.484  -0.146  12.581  1.0031 -0.4538  0.6150
   9923SM  H16F13489   1.523  -0.250  12.572  0.2387 -0.6927 -0.1842
   9923SM  H16G13490   1.407  -0.156  12.661  0.1230 -0.8417 -0.2458
   9923SM  C17F13491   1.598  -0.059  12.638  0.5452  0.1459  0.4225
   9923SM  H17F13492   1.551   0.042  12.644 -3.0602 -1.3418  0.0546
   9923SM  H17G13493   1.670  -0.048  12.554 -0.8662  2.1823 -0.6158
   9923SM  C18F13494   1.661  -0.102  12.768 -0.1568 -0.2497  0.1378
   9923SM  H18F13495   1.689  -0.209  12.759  2.1062  0.2590  0.4467
   9923SM  H18G13496   1.585  -0.099  12.849  1.5173 -0.3107  1.7772
   9923SM  C19F13497   1.781  -0.014  12.805  0.3620 -0.0278  0.3682
   9923SM  H19F13498   1.750   0.090  12.782 -2.1478 -0.5619  1.0983
   9923SM  H19G13499   1.866  -0.042  12.739 -0.6058 -2.6777  0.1420
   9923SM  C20F13500   1.827  -0.032  12.948  0.1325  0.4533 -0.4780
   9923SM  H20F13501   1.856  -0.139  12.954  0.5172  0.6108  0.7810
   9923SM  H20G13502   1.745  -0.027  13.023 -0.8070 -2.1298 -1.2401
   9923SM  C21F13503   1.948   0.048  12.996  0.1978 -0.0908 -0.2562
   9923SM  H21F13504   1.923   0.153  13.022  1.7786  0.2036  0.1407
   9923SM  H21G13505   2.018   0.051  12.910 -0.5369  0.7197 -0.8481
   9923SM  C22F13506   2.016  -0.019  13.120 -0.5506  0.3238 -0.2706
   9923SM  H22F13507   2.058  -0.120  13.098 -0.5110  0.4296 -0.6857
   9923SM  H22G13508   1.946  -0.023  13.205 -0.2752  1.2710  0.0110
   9923SM  C23F13509   2.142   0.056  13.161  0.2859  0.2413  0.3262
   9923SM  H23F13510   2.109   0.160  13.181  1.2729  0.7105 -0.3845
   9923SM  H23G13511   2.218   0.065  13.080 -0.4464  0.6653 -0.3346
   9923SM  H23H13512   2.182   0.009  13.253  0.2802  1.0306  0.7302
  10023SM     N13513   7.868   8.017  10.208  0.9004 -0.1278  0.2269
  10023SM   C1513514   7.734   8.072  10.148  0.4316  0.0778  0.8808
  10023SM  H15A13515   7.690   8.009  10.072 -3.4972  3.4946  0.0165
  10023SM  H15B13516   7.749   8.168  10.100  1.2148  0.5231  1.9824
  10023SM  H15C13517   7.666   8.087  10.230 -1.2744 -1.4741 -0.1783
  10023SM   C1413518   7.826   7.890  10.282 -0.2336  0.2696 -0.0549
  10023SM  H14A13519   7.800   7.808  10.216 -2.7820  0.2183  0.8887
  10023SM  H14B13520   7.743   7.906  10.350 -0.4227 -2.2571  0.4178
  10023SM  H14C13521   7.908   7.863  10.346 -0.2948 -0.0661 -0.1140
  10023SM   C1313522   7.958   7.984  10.090 -0.4211  0.0016 -0.7080
  10023SM  H13A13523   7.989   8.072  10.035 -1.8629  1.5520  0.8468
  10023SM  H13B13524   7.921   7.902  10.030  0.7672 -1.1082  0.0138
  10023SM  H13C13525   8.037   7.933  10.144  0.1550  2.2904  0.7271
  10023SM   C1213526   7.930   8.119  10.292 -0.6457 -0.5228 -0.0927
  10023SM  H12A13527   7.936   8.215  10.242 -3.3932  0.2103  0.8215
  10023SM  H12B13528   8.032   8.093  10.312 -0.1777  1.5379  0.4423
  10023SM   C1113529   7.856   8.145  10.426 -0.6072 -0.4421 -0.5284
  10023SM  H11A13530   7.930   8.204  10.484 -2.0210  0.6611  0.2483
  10023SM  H11B13531   7.837   8.052  10.483 -1.6805  1.3727  2.3220
  10023SM     P13532   7.602   8.175  10.459 -0.9328 -0.2719  0.2031
  10023SM   O1313533   7.505   8.285  10.456 -0.0894 -0.2170  0.2688
  10023SM   O1413534   7.565   8.052  10.386 -0.8348  0.0755 -0.1429
  10023SM   O1113535   7.635   8.143  10.607  0.2667  0.0993 -0.2789
  10023SM   O1213536   7.739   8.222  10.400  0.0271 -0.2699  0.4191
  10023SM   C1S13537   7.572   8.227  10.710 -0.0997 -0.6775 -0.0617
  10023SM   H1S13538   7.462   8.222  10.694  0.1098 -1.0611 -1.5027
  10023SM   H1T13539   7.589   8.334  10.688 -0.0434 -1.3129 -3.6055
  10023SM    NF13540   7.543   8.292  10.942 -0.3185  0.2497 -0.5531
  10023SM   HNF13541   7.603   8.361  10.983  0.7809 -0.7625 -0.3869
  10023SM   C2S13542   7.620   8.202  10.855  0.2030  0.2530  0.1852
  10023SM   H2S13543   7.594   8.095  10.872 -1.8880  0.1244 -2.8782
  10023SM   C3S13544   7.769   8.220  10.871  0.2669 -0.3760 -1.2989
  10023SM   H3S13545   7.793   8.327  10.851  0.3494 -0.6221 -2.5708
  10023SM    O313546   7.848   8.157  10.771 -0.3323 -0.6205  0.4682
  10023SM   HO313547   7.789   8.127  10.701  0.2613  1.8092 -1.1956
  10023SM   C4S13548   7.815   8.180  11.013  0.5969 -0.2557  0.2945
  10023SM   H4S13549   7.799   8.073  11.031  0.9279 -0.4798 -0.7006
  10023SM   C5S13550   7.855   8.268  11.106 -0.7087  0.3018  0.7014
  10023SM   H5S13551   7.861   8.374  11.080  0.0902  0.3246  0.9563
  10023SM   C6S13552   7.895   8.237  11.251  0.1699 -0.8066 -0.0496
  10023SM   H6S13553   7.964   8.150  11.246 -1.1857 -1.9713  0.8833
  10023SM   H6T13554   7.815   8.189  11.311 -2.3173  1.1081 -1.6162
  10023SM   C7S13555   7.970   8.343  11.333  0.2274 -0.4627 -0.2372
  10023SM   H7S13556   8.070   8.376  11.298 -0.3871  2.7934  0.7268
  10023SM   H7T13557   7.989   8.315  11.439  3.0377  3.6299  0.5392
  10023SM   C8S13558   7.893   8.479  11.342  0.3455  0.0852  0.0296
  10023SM   H8S13559   7.789   8.453  11.372  0.6320  1.3897  2.4873
  10023SM   H8T13560   7.886   8.535  11.246  1.4359 -0.0913 -0.1588
  10023SM   C9S13561   7.953   8.565  11.456 -0.3634 -0.6432  0.3250
  10023SM   H9S13562   8.054   8.602  11.429  0.4268 -1.8709  1.4686
  10023SM   H9T13563   7.970   8.482  11.529 -1.2695  0.2230  1.5548
  10023SM  C10S13564   7.866   8.673  11.524  0.8215 -0.1369 -0.1269
  10023SM  H10S13565   7.760   8.640  11.522  1.0785 -1.1796  1.7678
  10023SM  H10T13566   7.869   8.769  11.467 -1.9716  1.1648  1.7082
  10023SM  C11S13567   7.902   8.709  11.669 -0.1552  0.3800 -0.0975
  10023SM  H11S13568   7.999   8.760  11.656 -1.0421  2.1397 -0.1582
  10023SM  H11T13569   7.919   8.614  11.723 -0.5383 -1.1502 -2.5595
  10023SM  C12S13570   7.794   8.805  11.723  0.3492 -0.0291  0.0442
  10023SM  H12S13571   7.702   8.750  11.753  0.7553 -0.3619  0.6906
  10023SM  H12T13572   7.752   8.875  11.647  0.4610  1.2368  1.1071
  10023SM  C13S13573   7.844   8.888  11.838 -0.5618 -0.4045  0.6981
  10023SM  H13S13574   7.756   8.947  11.872 -0.6445 -0.3205  0.3455
  10023SM  H13T13575   7.930   8.953  11.812 -0.4363 -0.7876  0.1232
  10023SM  C14S13576   7.895   8.807  11.960  0.1864 -0.2155 -0.2135
  10023SM  H14S13577   7.959   8.719  11.936  0.0180 -0.5144  0.4191
  10023SM  H14T13578   7.806   8.749  11.992  0.6494 -0.2183  1.1136
  10023SM  C15S13579   7.952   8.881  12.085 -0.1941 -0.2506 -0.1636
  10023SM  H15S13580   7.897   8.974  12.110 -0.3692 -0.5926  0.7760
  10023SM  H15T13581   8.048   8.917  12.042  0.6794 -0.6323  1.3841
  10023SM  C16S13582   7.987   8.803  12.216 -0.2699 -0.2958 -0.3863
  10023SM  H16S13583   8.078   8.741  12.199 -0.0950 -0.1117 -0.1354
  10023SM  H16T13584   7.903   8.740  12.253 -0.1043  1.0418  2.5414
  10023SM  C17S13585   8.011   8.906  12.332 -0.3747  0.1539 -0.0328
  10023SM  H17S13586   8.013   8.845  12.425  3.2927 -0.8173 -0.5897
  10023SM  H17T13587   7.921   8.970  12.342 -1.5836 -1.4338 -0.2418
  10023SM  C18S13588   8.144   8.976  12.322 -0.1710 -0.6264  0.2442
  10023SM  H18S13589   8.221   8.901  12.350 -0.9620 -2.2803 -1.7548
  10023SM  H18T13590   8.152   9.052  12.402 -0.8803 -1.5884  1.2571
  10023SM  H18U13591   8.161   9.017  12.220 -1.7914  1.7235  0.8521
  10023SM   C1F13592   7.415   8.280  10.963  0.1763  0.3931 -0.2841
  10023SM    OF13593   7.354   8.188  10.917  0.3189  0.5884  0.0365
  10023SM   C2F13594   7.350   8.396  11.041  0.4666 -0.1006 -0.3803
  10023SM   H2F13595   7.273   8.445  10.978 -1.2934 -0.8303  1.1157
  10023SM   H2G13596   7.424   8.474  11.068 -0.8670  1.3596 -0.8305
  10023SM   C3F13597   7.271   8.340  11.162  0.8174  0.3369 -0.1891
  10023SM   H3F13598   7.345   8.290  11.229  1.5217  1.8448  0.1891
  10023SM   H3G13599   7.186   8.275  11.131 -0.1037  1.6807 -0.5525
  10023SM   C4F13600   7.204   8.449  11.240  0.3978  0.1416 -0.3208
  10023SM   H4F13601   7.115   8.493  11.190 -1.8608 -3.9168 -0.3100
  10023SM   H4G13602   7.277   8.531  11.256 -0.4818  0.7436  0.7713
  10023SM   C5F13603   7.152   8.420  11.381  0.7620  0.0994  0.3070
  10023SM   H5F13604   7.116   8.315  11.370  2.9595 -0.4765 -2.4313
  10023SM   H5G13605   7.069   8.492  11.395  0.5988 -0.0587  0.1438
  10023SM   C6F13606   7.248   8.433  11.499 -0.4229  0.2071 -0.0904
  10023SM   H6F13607   7.319   8.513  11.467  0.0354 -0.5426 -0.9984
  10023SM   H6G13608   7.305   8.338  11.496 -0.5293  0.1430 -0.0672
  10023SM   C7F13609   7.164   8.460  11.631  0.2793  0.1310 -0.3489
  10023SM   H7F13610   7.074   8.395  11.634  1.3996 -1.5075  2.5330
  10023SM   H7G13611   7.137   8.568  11.629  0.0054  0.0838  0.4611
  10023SM   C8F13612   7.261   8.445  11.751  0.1297  0.0182  0.4487
  10023SM   H8F13613   7.350   8.507  11.731 -1.1699  0.8316 -3.8401
  10023SM   H8G13614   7.307   8.343  11.752 -0.2842 -0.1685  1.1168
  10023SM   C9F13615   7.195   8.477  11.888 -0.6172  0.5749  0.8256
  10023SM   H9F13616   7.112   8.407  11.912 -0.1006 -0.0806  0.7273
  10023SM   H9G13617   7.153   8.579  11.874 -4.2045 -0.8444  0.1464
  10023SM  C10F13618   7.302   8.496  11.995 -0.1826 -0.3932  1.1806
  10023SM  H10F13619   7.388   8.552  11.954 -1.6067  0.8507 -0.2555
  10023SM  H10G13620   7.342   8.403  12.040 -0.0949  0.0990  2.1257
  10023SM  C11F13621   7.259   8.568  12.118 -0.5263  0.1184  0.1797
  10023SM  H11F13622   7.176   8.511  12.165  0.2670  0.3352  1.9525
  10023SM  H11G13623   7.227   8.672  12.097 -1.0701 -0.4957 -2.3722
  10023SM  C12F13624   7.371   8.567  12.230 -0.0955 -0.0560  0.4314
  10023SM  H12F13625   7.449   8.633  12.186  1.1961 -2.3262 -0.8622
  10023SM  H12G13626   7.415   8.465  12.229 -0.6608 -0.3582 -2.3360
  10023SM  C13F13627   7.331   8.605  12.373  0.6990 -0.1632  0.3048
  10023SM  H13F13628   7.223   8.629  12.375  0.3296 -1.6287 -0.5969
  10023SM  H13G13629   7.390   8.694  12.403  2.7195 -0.2914 -2.7693
  10023SM  C14F13630   7.355   8.486  12.464 -0.8903 -0.5343  0.6325
  10023SM  H14F13631   7.455   8.441  12.445 -0.7762  0.1105 -0.4168
  10023SM  H14G13632   7.275   8.417  12.432 -0.1758 -0.6744 -0.9742
  10023SM  C15F13633   7.343   8.520  12.613  0.3035  0.3242  0.5399
  10023SM  H15F13634   7.266   8.598  12.628 -0.5757 -0.1507 -1.2605
  10023SM  H15G13635   7.435   8.574  12.643  0.4168  0.8200 -0.6669
  10023SM  C16F13636   7.305   8.405  12.703  0.4015  0.4767  0.0811
  10023SM  H16F13637   7.390   8.333  12.699  0.9305  0.9552  1.7122
  10023SM  H16G13638   7.213   8.351  12.674  0.2889  1.5027 -1.6189
  10023SM  C17F13639   7.305   8.454  12.850  0.3828 -0.5995 -0.7273
  10023SM  H17F13640   7.221   8.526  12.862  0.7732 -0.1976 -0.3416
  10023SM  H17G13641   7.396   8.516  12.866 -1.1843  2.0548 -1.4025
  10023SM  C18F13642   7.298   8.339  12.948 -0.8067 -0.3320 -0.3540
  10023SM  H18F13643   7.383   8.269  12.933 -0.4641 -0.1847  0.8003
  10023SM  H18G13644   7.210   8.272  12.935  0.4390 -2.4460  1.3290
  10023SM  C19F13645   7.290   8.381  13.097 -0.8349  0.2365  0.0029
  10023SM  H19F13646   7.209   8.457  13.107 -1.2118  0.2725 -2.5379
  10023SM  H19G13647   7.387   8.429  13.119 -1.0536  0.0532  1.4901
  10023SM  C20F13648   7.283   8.265  13.198 -0.5808 -0.6250  0.0277
  10023SM  H20F13649   7.325   8.302  13.294 -0.1561  0.5054 -0.5734
  10023SM  H20G13650   7.352   8.184  13.168 -0.0775 -1.1544  2.3948
  10023SM  C21F13651   7.145   8.201  13.219  0.0279  0.0502  0.1630
  10023SM  H21F13652   7.104   8.176  13.119  2.1592 -0.0590 -0.7591
  10023SM  H21G13653   7.075   8.267  13.273 -0.6120 -0.1345 -0.4268
  10023SM  C22F13654   7.152   8.066  13.296 -0.1601  0.0265  0.8971
  10023SM  H22F13655   7.257   8.038  13.320  0.5919  0.5709 -1.4791
  10023SM  H22G13656   7.100   7.992  13.231 -0.4912  0.4228  0.7042
  10023SM  C23F13657   7.088   8.073  13.426  0.3743  0.7222 -0.4689
  10023SM  H23F13658   7.091   7.973  13.475  0.3799  1.3376  0.8221
  10023SM  H23G13659   6.990   8.120  13.403  0.9015  1.4231 -1.3386
  10023SM  H23H13660   7.140   8.153  13.483  0.5731  0.8019 -0.7574
  101CHL1    C313661   4.967   4.281  14.057  0.9562 -0.3436  0.2748
  101CHL1    H313662   5.073   4.260  14.033  1.3436  1.1884  0.5653
  101CHL1    O313663   4.930   4.249  14.193  0.1678 -0.1685  0.6850
  101CHL1   H3'13664   4.987   4.315  14.234  0.4018  1.7000 -2.3401
  101CHL1    C413665   4.942   4.437  14.052  0.0484 -0.7993 -0.1939
  101CHL1   H4A13666   4.847   4.462  14.105  0.0381 -1.4662  0.1134
  101CHL1   H4B13667   5.015   4.484  14.121 -0.6934 -0.3592  0.3073
  101CHL1    C513668   4.938   4.495  13.909  0.5595  0.4004 -0.2503
  101CHL1    C613669   5.012   4.607  13.882  0.4208  1.2378  0.0515
  101CHL1    H613670   5.072   4.660  13.957 -0.0494  1.5475  0.2131
  101CHL1    C713671   4.993   4.683  13.749  0.4006  0.1022  0.4216
  101CHL1   H7A13672   4.962   4.788  13.768  0.0473 -0.0863  0.9383
  101CHL1   H7B13673   5.085   4.685  13.687  2.1011 -0.4219  2.7625
  101CHL1    C813674   4.868   4.631  13.667 -0.0059  0.2859 -0.4201
  101CHL1    H813675   4.774   4.678  13.704  0.3314  2.2844 -1.9303
  101CHL1   C1413676   4.889   4.679  13.522  0.2678  0.1608 -0.3762
  101CHL1   H1413677   4.983   4.630  13.488 -0.3794 -0.9446 -0.6485
  101CHL1   C1513678   4.910   4.829  13.504 -0.3775 -0.3822 -0.0508
  101CHL1  H15A13679   4.840   4.886  13.568  0.7649 -0.3457  1.2243
  101CHL1  H15B13680   5.012   4.861  13.535 -1.0188 -0.0762  1.8227
  101CHL1   C1613681   4.888   4.846  13.349 -0.3419 -0.5193  0.8828
  101CHL1  H16A13682   4.826   4.936  13.324  1.4517  0.4677 -0.2250
  101CHL1  H16B13683   4.983   4.865  13.296 -2.2710  2.4236 -1.9375
  101CHL1   C1713684   4.828   4.714  13.298 -0.6772  0.3295  0.1558
  101CHL1   H1713685   4.908   4.651  13.253 -0.8558  0.5574 -0.4847
  101CHL1   C1313686   4.780   4.638  13.426 -0.2650 -0.3187 -0.0059
  101CHL1   C1813687   4.648   4.705  13.472 -0.8703 -0.1168  0.2191
  101CHL1  H18A13688   4.649   4.816  13.458 -2.0270  0.1120  1.7428
  101CHL1  H18B13689   4.565   4.668  13.408 -2.6402  0.7312  1.8964
  101CHL1  H18C13690   4.619   4.680  13.576 -0.4318 -2.2655 -0.1355
  101CHL1   C1213691   4.788   4.489  13.414  0.7041  0.5029 -0.0483
  101CHL1  H12A13692   4.699   4.456  13.356  0.7107 -2.2925  1.3661
  101CHL1  H12B13693   4.873   4.445  13.359  0.5097 -0.4508  0.3843
  101CHL1   C1113694   4.782   4.422  13.554 -0.0436 -0.3257  0.2494
  101CHL1  H11A13695   4.675   4.444  13.575  0.0126  0.0317  0.1724
  101CHL1  H11B13696   4.780   4.311  13.546 -2.3660 -0.6251  3.1607
  101CHL1    C913697   4.869   4.480  13.672 -0.5229 -0.7896 -0.2030
  101CHL1    H913698   4.975   4.453  13.651 -0.2178  0.0393  0.2339
  101CHL1   C1013699   4.841   4.419  13.816  0.0914 -0.2340 -0.1352
  101CHL1   C1913700   4.692   4.439  13.859 -0.5335 -0.3981 -0.1457
  101CHL1  H19A13701   4.671   4.548  13.854 -1.6256 -0.1737  4.5234
  101CHL1  H19B13702   4.614   4.387  13.799 -0.4114 -1.6502  0.7459
  101CHL1  H19C13703   4.663   4.425  13.965 -0.8019 -1.4739 -0.3547
  101CHL1    C113704   4.877   4.274  13.825  0.0297 -0.2743 -0.2855
  101CHL1   H1A13705   4.812   4.223  13.750  1.6325 -2.5176 -0.2536
  101CHL1   H1B13706   4.981   4.261  13.788  0.6846  4.8032 -0.9798
  101CHL1    C213707   4.869   4.207  13.959 -0.2860 -0.2241  0.3579
  101CHL1   H2A13708   4.906   4.102  13.955  0.7701  0.1066  0.9761
  101CHL1   H2B13709   4.764   4.199  13.996 -0.1602  1.3201  1.0945
  101CHL1   C2013710   4.728   4.743  13.183 -0.3074  0.6452  0.4692
  101CHL1   H2013711   4.644   4.811  13.206 -0.5632 -0.0805  1.7866
  101CHL1   C2113712   4.644   4.610  13.137 -0.3627 -0.6329  0.1486
  101CHL1  H21A13713   4.578   4.588  13.223 -0.8697 -0.1703 -0.1128
  101CHL1  H21B13714   4.710   4.523  13.115  0.0329  0.0322 -1.4938
  101CHL1  H21C13715   4.587   4.632  13.044 -0.3892  1.7574  0.6429
  101CHL1   C2213716   4.802   4.793  13.066  0.4495  0.3737 -0.1968
  101CHL1  H22A13717   4.862   4.885  13.077 -2.4403  3.1735 -4.5844
  101CHL1  H22B13718   4.865   4.707  13.032 -2.1199 -1.6376 -0.1953
  101CHL1   C2313719   4.712   4.837  12.950 -0.5427  0.8585 -0.2230
  101CHL1  H23A13720   4.687   4.738  12.906 -0.3688  1.1264 -0.9500
  101CHL1  H23B13721   4.621   4.886  12.990 -1.3999  0.1642 -1.2492
  101CHL1   C2413722   4.792   4.914  12.848  0.2441  0.5237  0.0840
  101CHL1  H24A13723   4.843   5.001  12.893  1.7081 -0.9900  1.5099
  101CHL1  H24B13724   4.868   4.855  12.792 -0.1542  0.1921 -0.1207
  101CHL1   C2513725   4.683   4.977  12.755  0.2212 -0.7102  0.0824
  101CHL1   H2513726   4.618   5.033  12.826  1.4843 -0.3076  0.9485
  101CHL1   C2613727   4.744   5.079  12.652 -0.1373  0.9656 -0.2506
  101CHL1  H26A13728   4.815   5.017  12.593  0.4376 -0.4925  1.8806
  101CHL1  H26B13729   4.663   5.120  12.587 -3.0245 -0.2942  2.3461
  101CHL1  H26C13730   4.784   5.168  12.706 -2.2224  2.1759 -0.5880
  101CHL1   C2713731   4.589   4.871  12.691 -0.2073  0.1401 -0.1398
  101CHL1  H27A13732   4.658   4.797  12.645 -2.1590 -1.7122 -0.2511
  101CHL1  H27B13733   4.520   4.824  12.764 -0.4136  0.5450 -0.0715
  101CHL1  H27C13734   4.524   4.909  12.609 -0.7048 -0.4677 -0.0349
  102CHL1    C313735   2.043   4.739  13.463 -0.5020 -0.2661 -0.5368
  102CHL1    H313736   2.112   4.800  13.400  2.4670 -2.8897 -0.0917
  102CHL1    O313737   2.084   4.760  13.598  0.4436 -0.6206 -0.5325
  102CHL1   H3'13738   2.018   4.712  13.649  1.1413  0.1725  1.1965
  102CHL1    C413739   1.901   4.787  13.450 -0.2220  0.1017  0.6086
  102CHL1   H4A13740   1.840   4.714  13.507 -3.1306 -0.9827 -3.4851
  102CHL1   H4B13741   1.883   4.888  13.491 -1.1207  0.5452 -0.8039
  102CHL1    C513742   1.845   4.776  13.304 -0.6567  0.5551  0.0992
  102CHL1    C613743   1.787   4.878  13.247 -0.2740  0.1618  0.1363
  102CHL1    H613744   1.773   4.970  13.306  1.5410  0.6050 -0.0586
  102CHL1    C713745   1.729   4.874  13.108 -0.3071 -0.0020 -0.4437
  102CHL1   H7A13746   1.631   4.927  13.106 -0.0778  0.4394 -0.1305
  102CHL1   H7B13747   1.789   4.945  13.047  0.8186 -1.9655 -1.7406
  102CHL1    C813748   1.727   4.727  13.055  0.1598 -0.4968 -0.5913
  102CHL1    H813749   1.641   4.672  13.099 -3.7293  1.6918 -4.5635
  102CHL1   C1413750   1.696   4.732  12.901 -0.2508 -0.7859 -0.4931
  102CHL1   H1413751   1.782   4.792  12.865 -1.0342  1.8405  1.6726
  102CHL1   C1513752   1.569   4.812  12.858 -0.1638  0.3342  0.1286
  102CHL1  H15A13753   1.489   4.766  12.920 -0.5933  0.5568 -0.2591
  102CHL1  H15B13754   1.580   4.922  12.875  0.6158  0.2662  0.1270
  102CHL1   C1613755   1.547   4.764  12.714  0.2487 -0.0283  0.7356
  102CHL1  H16A13756   1.445   4.720  12.705  0.2033  0.2869 -0.4577
  102CHL1  H16B13757   1.552   4.840  12.634 -0.0857 -2.0245 -1.2971
  102CHL1   C1713758   1.659   4.658  12.681 -0.8052 -0.2680  0.1546
  102CHL1   H1713759   1.741   4.727  12.653 -0.9748 -0.6045 -1.2239
  102CHL1   C1313760   1.697   4.597  12.823  0.2656  0.6562 -0.0396
  102CHL1   C1813761   1.582   4.497  12.864  0.2453  0.2039 -0.2906
  102CHL1  H18A13762   1.621   4.393  12.870  2.2870  0.9827  1.5791
  102CHL1  H18B13763   1.565   4.527  12.969 -0.3616  0.4202 -0.4481
  102CHL1  H18C13764   1.490   4.499  12.803 -0.2122  0.7120  0.4039
  102CHL1   C1213765   1.837   4.546  12.847 -0.1379  0.3689 -0.5954
  102CHL1  H12A13766   1.850   4.449  12.794 -0.1598  0.5279 -0.8947
  102CHL1  H12B13767   1.917   4.612  12.807  1.1356 -0.5575  0.3434
  102CHL1   C1113768   1.865   4.527  12.999  0.2388 -0.3722  0.4839
  102CHL1  H11A13769   1.796   4.453  13.044 -0.1497 -0.8753 -0.8762
  102CHL1  H11B13770   1.966   4.482  13.015  1.4356  1.5647 -1.0429
  102CHL1    C913771   1.859   4.652  13.085 -0.2369 -0.0600  0.0863
  102CHL1    H913772   1.936   4.725  13.051  0.6570 -0.3633  1.3857
  102CHL1   C1013773   1.878   4.642  13.242 -0.1917  0.2853  0.1459
  102CHL1   C1913774   1.781   4.533  13.289 -0.2286  0.4344  0.1406
  102CHL1  H19A13775   1.792   4.516  13.398  1.7551 -0.3615 -0.1413
  102CHL1  H19B13776   1.673   4.557  13.277  0.4084  2.5120 -2.1137
  102CHL1  H19C13777   1.795   4.432  13.245  2.7978  0.8225  0.0124
  102CHL1    C113778   2.018   4.586  13.269  0.4364 -0.6142  0.0247
  102CHL1   H1A13779   2.022   4.483  13.229 -0.6261 -0.9975  0.8578
  102CHL1   H1B13780   2.089   4.638  13.201 -0.0989  0.2725  0.1228
  102CHL1    C213781   2.068   4.596  13.416  0.0582 -0.2833 -0.3104
  102CHL1   H2A13782   2.179   4.589  13.408  0.0368 -0.9644 -0.0279
  102CHL1   H2B13783   2.031   4.517  13.484 -1.3529  0.3318 -0.3343
  102CHL1   C2013784   1.652   4.552  12.567  0.2169  0.8127  0.6650
  102CHL1   H2013785   1.657   4.450  12.611  0.1966  1.2485  1.7127
  102CHL1   C2113786   1.788   4.557  12.487 -0.1175 -0.3905  0.0230
  102CHL1  H21A13787   1.810   4.461  12.436  0.0950  1.6510 -4.1255
  102CHL1  H21B13788   1.869   4.586  12.557 -1.6406  0.2173  1.6201
  102CHL1  H21C13789   1.776   4.634  12.408 -0.1164  0.1577  0.5555
  102CHL1   C2213790   1.542   4.561  12.453 -0.2750 -0.0176 -0.6169
  102CHL1  H22A13791   1.446   4.568  12.508 -0.8999 -2.2171 -1.3447
  102CHL1  H22B13792   1.561   4.658  12.402  1.1786  0.6308  1.0284
  102CHL1   C2313793   1.521   4.444  12.359 -0.1533 -0.0394 -0.0248
  102CHL1  H23A13794   1.613   4.448  12.297  0.3761  3.6137  0.7620
  102CHL1  H23B13795   1.522   4.358  12.430  0.7914 -1.0411 -1.2076
  102CHL1   C2413796   1.392   4.445  12.280  0.2823 -0.0064 -0.2439
  102CHL1  H24A13797   1.320   4.446  12.366  0.6377 -1.7805  0.1162
  102CHL1  H24B13798   1.375   4.540  12.226  2.4998  1.7081  1.8475
  102CHL1   C2513799   1.367   4.329  12.177 -0.0564  0.0539 -0.6558
  102CHL1   H2513800   1.378   4.233  12.233  1.5061  1.0818  0.8659
  102CHL1   C2613801   1.229   4.327  12.106  0.3407  0.1613 -0.0938
  102CHL1  H26A13802   1.206   4.234  12.051 -4.3945  2.0236 -1.8518
  102CHL1  H26B13803   1.143   4.349  12.173  1.0544  0.5856  0.7079
  102CHL1  H26C13804   1.230   4.408  12.029 -4.1601  2.7651  2.1279
  102CHL1   C2713805   1.469   4.338  12.067  0.0188  0.3271 -0.5917
  102CHL1  H27A13806   1.467   4.434  12.013  0.4651  0.1080 -1.0015
  102CHL1  H27B13807   1.567   4.335  12.120 -0.7321  0.3797  0.8724
  102CHL1  H27C13808   1.457   4.250  12.000 -0.4527 -1.9734  2.2891
  103CHL1    C313809   3.386   3.966  13.731  0.1501 -0.1830 -0.4001
  103CHL1    H313810   3.390   3.856  13.744 -1.4350 -0.1824  0.2125
  103CHL1    O313811   3.396   4.036  13.852 -0.0979 -0.0610 -1.0622
  103CHL1   H3'13812   3.354   3.992  13.927 -0.5170 -0.3095 -1.4342
  103CHL1    C413813   3.510   4.006  13.642 -0.1553  0.3068 -0.1460
  103CHL1   H4A13814   3.526   4.116  13.643 -1.1015  0.4499  0.3853
  103CHL1   H4B13815   3.602   3.973  13.694  0.8621  0.9939 -1.4594
  103CHL1    C513816   3.502   3.951  13.501  0.4467  0.2357  0.3214
  103CHL1    C613817   3.598   3.880  13.441  0.0078 -0.1744 -0.4257
  103CHL1    H613818   3.684   3.842  13.498 -0.0267 -0.0985 -0.3214
  103CHL1    C713819   3.592   3.834  13.297  0.4177  0.3258  0.0456
  103CHL1   H7A13820   3.696   3.848  13.261  1.3440 -2.0082  1.5440
  103CHL1   H7B13821   3.573   3.727  13.272 -0.4297  0.8737 -1.8405
  103CHL1    C813822   3.488   3.920  13.204 -0.6260 -0.0371  0.1192
  103CHL1    H813823   3.531   4.021  13.182  0.5417 -0.8877 -1.7005
  103CHL1   C1413824   3.462   3.852  13.066 -0.4417 -0.1652 -0.4719
  103CHL1   H1413825   3.431   3.749  13.095  2.5408 -0.7943  0.9170
  103CHL1   C1513826   3.582   3.834  12.973 -0.1148  0.1287 -0.2365
  103CHL1  H15A13827   3.649   3.922  12.975 -0.4301  0.3725  1.2707
  103CHL1  H15B13828   3.638   3.748  13.017  2.2484  2.3056  1.3184
  103CHL1   C1613829   3.520   3.813  12.831  0.7658  0.6132 -0.5219
  103CHL1  H16A13830   3.556   3.891  12.760  0.7150 -0.3782 -1.6809
  103CHL1  H16B13831   3.533   3.715  12.780 -0.7911  0.4084 -0.5526
  103CHL1   C1713832   3.371   3.845  12.846  0.6084 -0.0177  0.4307
  103CHL1   H1713833   3.310   3.752  12.852 -2.9841  1.7891 -3.0990
  103CHL1   C1313834   3.349   3.922  12.987 -0.3505  0.0202 -0.0370
  103CHL1   C1813835   3.389   4.069  12.960  0.2962  0.0377  0.4031
  103CHL1  H18A13836   3.300   4.114  12.911  0.0241 -0.3384  0.5458
  103CHL1  H18B13837   3.400   4.122  13.057  1.8445  1.2216 -0.3829
  103CHL1  H18C13838   3.474   4.088  12.892 -0.8149  1.4234 -0.6558
  103CHL1   C1213839   3.218   3.905  13.066 -0.9252 -0.0933 -0.8839
  103CHL1  H12A13840   3.134   3.950  13.008  0.7235  1.5094 -2.1481
  103CHL1  H12B13841   3.203   3.797  13.083 -1.4083 -0.0805 -1.2103
  103CHL1   C1113842   3.232   3.976  13.202  0.0441  0.3440 -0.1419
  103CHL1  H11A13843   3.249   4.086  13.196  0.2968  0.3442  0.4810
  103CHL1  H11B13844   3.144   3.950  13.265  0.0657 -1.8446 -0.9252
  103CHL1    C913845   3.356   3.924  13.290 -0.2268 -0.1219  0.3281
  103CHL1    H913846   3.334   3.817  13.310  2.4365 -0.9698 -0.8091
  103CHL1   C1013847   3.373   4.001  13.427  0.4611 -0.0549  0.2045
  103CHL1   C1913848   3.382   4.154  13.398  0.0754 -0.4123  0.2332
  103CHL1  H19A13849   3.383   4.207  13.496 -3.0892  0.8927 -0.3385
  103CHL1  H19B13850   3.477   4.186  13.349  0.3964 -1.2799  0.2674
  103CHL1  H19C13851   3.289   4.197  13.356  0.9196  0.8092 -0.4551
  103CHL1    C113852   3.258   3.963  13.526  0.0994 -0.1161 -0.5503
  103CHL1   H1A13853   3.165   4.010  13.490  1.2032  3.3102  0.6865
  103CHL1   H1B13854   3.246   3.852  13.525  0.1765 -0.1269 -1.4214
  103CHL1    C213855   3.257   4.024  13.663 -0.0079 -0.4425  0.8164
  103CHL1   H2A13856   3.168   3.991  13.721 -0.6652 -1.9417 -0.9380
  103CHL1   H2B13857   3.268   4.135  13.663 -0.7312 -0.3629  0.3356
  103CHL1   C2013858   3.311   3.925  12.720 -0.0698 -0.4166  0.1653
  103CHL1   H2013859   3.357   4.026  12.709 -2.5753  0.7632 -0.1501
  103CHL1   C2113860   3.155   3.934  12.727 -0.0987 -0.0185  0.3828
  103CHL1  H21A13861   3.134   4.007  12.808 -1.8431 -0.6074  0.4928
  103CHL1  H21B13862   3.110   3.838  12.760  0.5843 -1.1460 -1.8336
  103CHL1  H21C13863   3.113   3.974  12.633  0.6259 -0.7348 -0.2538
  103CHL1   C2213864   3.343   3.856  12.591  0.2081 -0.3914  0.0677
  103CHL1  H22A13865   3.276   3.902  12.514  0.3326 -0.6778 -0.2153
  103CHL1  H22B13866   3.445   3.879  12.553 -0.0050  2.0771  0.7942
  103CHL1   C2313867   3.316   3.713  12.579  0.1408  0.5054 -0.4094
  103CHL1  H23A13868   3.361   3.645  12.654 -0.5661  0.6196  0.1323
  103CHL1  H23B13869   3.206   3.698  12.587  0.1367  0.3741 -0.7116
  103CHL1   C2413870   3.356   3.660  12.444  0.6601 -0.1162 -0.2089
  103CHL1  H24A13871   3.333   3.728  12.360  0.5972  0.2669  0.1170
  103CHL1  H24B13872   3.467   3.661  12.452  0.6192  0.8416  0.3468
  103CHL1   C2513873   3.294   3.522  12.414  0.0170  0.1173  0.9839
  103CHL1   H2513874   3.185   3.542  12.424 -0.3075 -0.9129 -0.1740
  103CHL1   C2613875   3.319   3.488  12.266 -0.0195 -0.2787  0.2067
  103CHL1  H26A13876   3.428   3.495  12.243  0.2097 -2.2311  0.5924
  103CHL1  H26B13877   3.275   3.387  12.253  2.1582 -1.0207 -2.2559
  103CHL1  H26C13878   3.264   3.553  12.195 -1.7899 -1.7954  0.1323
  103CHL1   C2713879   3.346   3.407  12.498 -0.7237 -0.6763  0.5103
  103CHL1  H27A13880   3.456   3.390  12.490 -0.4053  1.5218 -0.9445
  103CHL1  H27B13881   3.316   3.424  12.603 -0.6182 -1.3070  0.6440
  103CHL1  H27C13882   3.302   3.311  12.463 -1.4120  0.1882 -1.1468
  104CHL1    C313883   6.486   3.756  13.783  0.3461 -0.1222  0.2326
  104CHL1    H313884   6.378   3.783  13.786  0.4908  0.6632 -0.9135
  104CHL1    O313885   6.554   3.750  13.907  0.1235 -0.1702  0.2159
  104CHL1   H3'13886   6.615   3.677  13.892 -0.4185 -0.0762 -3.1877
  104CHL1    C413887   6.498   3.612  13.716  0.4931  0.1166  0.3464
  104CHL1   H4A13888   6.595   3.559  13.720  1.2303  1.2996 -1.0060
  104CHL1   H4B13889   6.432   3.538  13.766  1.2298 -1.8558 -1.4439
  104CHL1    C513890   6.459   3.628  13.565  0.1340 -0.2703  0.9129
  104CHL1    C613891   6.361   3.557  13.507 -0.2946 -0.3516  0.2522
  104CHL1    H613892   6.313   3.477  13.563  1.2810 -1.5685 -0.0559
  104CHL1    C713893   6.337   3.547  13.361 -0.2670  0.2419  0.2786
  104CHL1   H7A13894   6.332   3.441  13.327  1.0493  0.8207 -1.8522
  104CHL1   H7B13895   6.236   3.592  13.347 -0.0828  1.3793  2.2512
  104CHL1    C813896   6.444   3.614  13.273 -0.0576  0.3393 -0.0760
  104CHL1    H813897   6.537   3.554  13.263 -0.0701 -0.2991  2.7348
  104CHL1   C1413898   6.398   3.638  13.128 -0.6152 -0.2265 -0.2558
  104CHL1   H1413899   6.315   3.712  13.137 -0.1351  0.9033 -3.6646
  104CHL1   C1513900   6.349   3.522  13.039  0.0579 -0.1765 -0.6954
  104CHL1  H15A13901   6.417   3.436  13.056 -0.9475 -0.7212  0.7948
  104CHL1  H15B13902   6.247   3.497  13.075  0.5459 -1.5554 -0.2397
  104CHL1   C1613903   6.351   3.579  12.899  0.0699  0.4309  0.0164
  104CHL1  H16A13904   6.404   3.501  12.840 -0.6843 -0.3792  0.3885
  104CHL1  H16B13905   6.248   3.592  12.861 -0.5110  1.3850  1.8196
  104CHL1   C1713906   6.415   3.718  12.904  0.4478  0.5293 -0.5937
  104CHL1   H1713907   6.333   3.790  12.922  0.4431  0.5603 -0.7396
  104CHL1   C1313908   6.492   3.713  13.039  0.0682 -0.3576 -0.6151
  104CHL1   C1813909   6.627   3.636  13.021 -0.0366  0.4296 -0.1232
  104CHL1  H18A13910   6.677   3.638  13.121  1.8078  1.4587 -1.0109
  104CHL1  H18B13911   6.611   3.533  12.983  0.5358  0.4874 -0.5287
  104CHL1  H18C13912   6.675   3.689  12.936  1.1260  0.7777  0.7222
  104CHL1   C1213913   6.518   3.852  13.102  0.2203 -1.6116  0.0130
  104CHL1  H12A13914   6.589   3.914  13.043  2.5383 -1.5769  2.6466
  104CHL1  H12B13915   6.418   3.900  13.098  0.6337 -0.7650 -0.5434
  104CHL1   C1113916   6.569   3.843  13.249  0.0316 -0.2286  0.2030
  104CHL1  H11A13917   6.672   3.802  13.239 -0.4171 -1.2258 -0.3983
  104CHL1  H11B13918   6.566   3.947  13.290  1.4843 -0.3883  0.8012
  104CHL1    C913919   6.476   3.751  13.340 -0.4716 -0.1503 -0.8569
  104CHL1    H913920   6.383   3.812  13.347 -0.6920 -0.6049  0.4976
  104CHL1   C1013921   6.533   3.736  13.484  0.6655  0.0540  0.0484
  104CHL1   C1913922   6.683   3.700  13.471  0.4416  0.2024 -0.4179
  104CHL1  H19A13923   6.752   3.784  13.447  2.4870 -0.4082  2.7199
  104CHL1  H19B13924   6.724   3.671  13.570 -1.1050 -0.6842 -0.0079
  104CHL1  H19C13925   6.698   3.618  13.398 -0.3394  1.0289 -1.5272
  104CHL1    C113926   6.523   3.879  13.560  0.5598 -0.7099 -0.3167
  104CHL1   H1A13927   6.591   3.951  13.511  0.9172  0.7623  2.1583
  104CHL1   H1B13928   6.418   3.914  13.557  1.2324  1.4130 -0.8178
  104CHL1    C213929   6.564   3.864  13.705  0.1165 -0.0514 -0.3473
  104CHL1   H2A13930   6.541   3.960  13.755 -1.2321  0.2325 -1.4539
  104CHL1   H2B13931   6.674   3.851  13.713  0.1868 -0.1244 -1.2801
  104CHL1   C2013932   6.484   3.737  12.771 -0.0998 -0.0890 -0.0513
  104CHL1   H2013933   6.556   3.653  12.761  0.3494  0.4525 -1.4796
  104CHL1   C2113934   6.564   3.865  12.781  0.1389 -0.1862  0.2706
  104CHL1  H21A13935   6.653   3.851  12.847  0.3035 -1.6171 -0.2214
  104CHL1  H21B13936   6.492   3.943  12.814  0.0814  0.5144 -1.3957
  104CHL1  H21C13937   6.607   3.890  12.682 -1.9960  1.1753 -0.3816
  104CHL1   C2213938   6.396   3.731  12.648  0.2424 -0.3901  0.0066
  104CHL1  H22A13939   6.337   3.637  12.652  1.1550 -0.9616  0.4276
  104CHL1  H22B13940   6.337   3.825  12.653  1.1274  0.1322  0.9210
  104CHL1   C2313941   6.475   3.727  12.512  0.1926 -0.1551  0.1835
  104CHL1  H23A13942   6.510   3.832  12.504 -0.2598  0.3239  3.2508
  104CHL1  H23B13943   6.560   3.658  12.530  0.5938  0.8617  2.5819
  104CHL1   C2413944   6.392   3.685  12.384 -0.7026 -0.5275 -0.2580
  104CHL1  H24A13945   6.378   3.575  12.386 -1.4766 -0.7104 -4.9690
  104CHL1  H24B13946   6.294   3.737  12.383  0.8606  2.8822 -3.8075
  104CHL1   C2513947   6.471   3.718  12.255 -0.6355 -0.6553 -0.9951
  104CHL1   H2513948   6.566   3.765  12.288 -1.0563 -1.8027  2.2089
  104CHL1   C2613949   6.496   3.597  12.159 -0.0790 -0.5426 -0.5912
  104CHL1  H26A13950   6.557   3.650  12.083  0.1638 -0.5179 -0.3820
  104CHL1  H26B13951   6.539   3.510  12.214 -3.0204 -2.8744 -1.6740
  104CHL1  H26C13952   6.407   3.552  12.110  1.1446 -2.9420 -0.7917
  104CHL1   C2713953   6.387   3.821  12.175  1.3401  0.1613  0.6165
  104CHL1  H27A13954   6.296   3.761  12.152  2.5995 -1.2378 -1.0577
  104CHL1  H27B13955   6.373   3.912  12.236  0.9233  0.2690  0.3629
  104CHL1  H27C13956   6.435   3.851  12.079 -1.1247  0.5774 -0.5630
  105CHL1    C313957   6.111   3.027  13.335  0.6140  0.1763 -0.0702
  105CHL1    H313958   6.016   3.079  13.308  1.0333  0.3391 -1.2804
  105CHL1    O313959   6.100   2.992  13.473 -0.5990 -0.0927  0.0819
  105CHL1   H3'13960   6.167   2.924  13.483 -0.5557  0.0620  0.9494
  105CHL1    C413961   6.148   2.901  13.256 -0.0352 -0.1066  0.2762
  105CHL1   H4A13962   6.247   2.870  13.294 -0.2674  0.4652  1.3876
  105CHL1   H4B13963   6.077   2.816  13.264  0.3172 -0.4730 -0.4231
  105CHL1    C513964   6.159   2.939  13.110  0.3905 -0.5118 -0.4666
  105CHL1    C613965   6.075   2.879  13.021 -0.1498 -0.1987  0.2256
  105CHL1    H613966   6.016   2.792  13.054 -0.7644  0.8702  2.1087
  105CHL1    C713967   6.079   2.903  12.872 -0.4957  0.4492  0.5721
  105CHL1   H7A13968   6.079   2.805  12.819 -0.7924  1.2386 -0.9240
  105CHL1   H7B13969   5.993   2.964  12.836 -3.6594 -3.2609  1.0677
  105CHL1    C813970   6.206   2.973  12.836 -0.3251 -1.1533 -0.3440
  105CHL1    H813971   6.282   2.893  12.854 -0.4847 -1.1752  0.2544
  105CHL1   C1413972   6.193   3.020  12.688 -0.0142 -0.3454 -0.5091
  105CHL1   H1413973   6.122   3.106  12.687  1.9989  1.3989 -0.0522
  105CHL1   C1513974   6.141   2.924  12.594 -0.3552  0.2155 -0.4196
  105CHL1  H15A13975   6.192   2.827  12.609 -2.0551 -1.0987 -2.5528
  105CHL1  H15B13976   6.030   2.916  12.589 -0.2578 -0.7915 -1.4404
  105CHL1   C1613977   6.181   2.978  12.463  0.4454  0.7861  0.2376
  105CHL1  H16A13978   6.237   2.910  12.395  1.0699 -1.1644  2.5986
  105CHL1  H16B13979   6.092   3.011  12.405 -1.1054 -1.9794  0.8544
  105CHL1   C1713980   6.272   3.097  12.490  0.1834 -1.0111  0.0272
  105CHL1   H1713981   6.198   3.179  12.478 -2.3790 -3.1539  0.4388
  105CHL1   C1313982   6.316   3.079  12.631  0.3246  0.0744 -0.1853
  105CHL1   C1813983   6.431   2.968  12.637 -0.0177 -0.3172  0.1531
  105CHL1  H18A13984   6.524   3.006  12.590 -0.2518 -1.2589 -1.1420
  105CHL1  H18B13985   6.462   2.936  12.738 -0.1687 -0.9261  0.0086
  105CHL1  H18C13986   6.411   2.877  12.576  0.1134  0.2267 -0.7274
  105CHL1   C1213987   6.351   3.212  12.713  0.1617 -0.8418  0.1392
  105CHL1  H12A13988   6.449   3.251  12.678  0.0188 -2.3632 -2.1167
  105CHL1  H12B13989   6.262   3.278  12.703  0.1481 -0.8714  0.0665
  105CHL1   C1113990   6.365   3.180  12.866  0.3745  0.2420  0.0514
  105CHL1  H11A13991   6.460   3.123  12.874 -0.0827 -0.4636  0.5525
  105CHL1  H11B13992   6.370   3.271  12.929  0.4876 -0.0507  0.4713
  105CHL1    C913993   6.243   3.091  12.928  0.2103  0.1518  0.9025
  105CHL1    H913994   6.149   3.148  12.917 -0.3064 -0.7451  0.5773
  105CHL1   C1013995   6.267   3.055  13.077  0.1955 -0.1391  0.0302
  105CHL1   C1913996   6.398   2.985  13.099  0.1077  0.3338 -0.0415
  105CHL1  H19A13997   6.482   3.049  13.062  0.3110 -0.1555 -0.4389
  105CHL1  H19B13998   6.418   2.949  13.202  1.9783 -0.1159 -0.5267
  105CHL1  H19C13999   6.399   2.888  13.045 -1.6789 -0.8668  1.9408
  105CHL1    C114000   6.246   3.170  13.178  0.4494  0.0902 -0.9163
  105CHL1   H1A14001   6.334   3.236  13.166  1.4529 -1.2265 -0.9687
  105CHL1   H1B14002   6.156   3.224  13.142  0.4448  0.2006 -0.7413
  105CHL1    C214003   6.228   3.125  13.321  0.0750 -0.4759  0.1325
  105CHL1   H2A14004   6.188   3.210  13.380 -0.1410 -0.4544 -0.0416
  105CHL1   H2B14005   6.322   3.083  13.362 -0.5007 -2.4934 -0.4730
  105CHL1   C2014006   6.377   3.118  12.378  0.1650 -0.1303  0.0930
  105CHL1   H2014007   6.446   3.032  12.372 -0.2737 -0.6664  2.0198
  105CHL1   C2114008   6.456   3.246  12.407  0.0311 -0.3677 -0.2955
  105CHL1  H21A14009   6.521   3.278  12.323 -0.4671 -1.1343 -0.9901
  105CHL1  H21B14010   6.526   3.220  12.489  1.2495  0.1299 -1.1506
  105CHL1  H21C14011   6.392   3.331  12.439  0.4205  0.4206 -1.5480
  105CHL1   C2214012   6.314   3.135  12.234  0.2208  1.0627  0.3943
  105CHL1  H22A14013   6.249   3.052  12.199  0.8864  0.0739  1.4550
  105CHL1  H22B14014   6.249   3.225  12.243  1.6864  2.2912 -0.7844
  105CHL1   C2314015   6.412   3.158  12.115  0.7335  0.1814  0.0944
  105CHL1  H23A14016   6.470   3.250  12.141 -1.1044  1.8294 -1.3554
  105CHL1  H23B14017   6.486   3.076  12.102  0.4271 -0.0627 -0.1226
  105CHL1   C2414018   6.347   3.195  11.984  0.6290 -0.2650 -0.2056
  105CHL1  H24A14019   6.255   3.133  11.977  1.4639 -1.7488  1.2284
  105CHL1  H24B14020   6.313   3.300  11.995 -1.0824 -0.3584 -3.3851
  105CHL1   C2514021   6.421   3.177  11.855  0.5809 -0.3290  0.1477
  105CHL1   H2514022   6.444   3.070  11.836 -1.8276 -0.9035  0.1747
  105CHL1   C2614023   6.335   3.221  11.738 -0.0236  0.1320 -0.2404
  105CHL1  H26A14024   6.393   3.193  11.647 -0.0241 -3.7908  0.7636
  105CHL1  H26B14025   6.244   3.159  11.747 -0.0653  0.2868  0.4051
  105CHL1  H26C14026   6.313   3.329  11.744  1.7259  0.5497 -0.7501
  105CHL1   C2714027   6.552   3.259  11.855  0.6387  0.2685 -0.7172
  105CHL1  H27A14028   6.610   3.237  11.947  0.6425 -0.1989 -0.8302
  105CHL1  H27B14029   6.610   3.246  11.761  0.5661 -0.0048 -0.7246
  105CHL1  H27C14030   6.521   3.366  11.854  0.3349  0.1802 -1.1351
  106CHL1    C314031   2.523   4.686  13.504 -0.5205 -0.0128 -0.4219
  106CHL1    H314032   2.424   4.636  13.506  0.2605 -1.7514 -2.1505
  106CHL1    O314033   2.601   4.642  13.614 -0.0861  0.0387 -0.5462
  106CHL1   H3'14034   2.535   4.606  13.674  0.0119  1.0530  0.1974
  106CHL1    C414035   2.609   4.675  13.374 -0.4919 -0.2662 -0.4602
  106CHL1   H4A14036   2.709   4.724  13.382 -0.2318 -0.7200 -0.8811
  106CHL1   H4B14037   2.639   4.568  13.374 -0.2809 -0.3550  3.4569
  106CHL1    C514038   2.526   4.723  13.258 -0.5551  0.6719 -0.1262
  106CHL1    C614039   2.500   4.644  13.159 -0.2271 -0.2713  0.0942
  106CHL1    H614040   2.534   4.539  13.161  4.0946  0.8912 -0.8048
  106CHL1    C714041   2.418   4.676  13.034  0.2106  0.3963 -0.3088
  106CHL1   H7A14042   2.476   4.657  12.941 -2.5763 -0.7972 -1.9359
  106CHL1   H7B14043   2.328   4.611  13.030 -0.2226  0.9460  0.2328
  106CHL1    C814044   2.365   4.820  13.042 -0.7801  0.6532  0.3920
  106CHL1    H814045   2.443   4.881  12.993 -1.2524  0.4094 -0.6803
  106CHL1   C1414046   2.243   4.835  12.959 -0.6680  0.7213 -0.1644
  106CHL1   H1414047   2.161   4.782  13.014 -0.1610 -1.5616 -1.4608
  106CHL1   C1514048   2.249   4.779  12.816 -0.0809  0.0199 -0.2528
  106CHL1  H15A14049   2.335   4.816  12.758  0.2558  0.9595  0.8042
  106CHL1  H15B14050   2.254   4.669  12.806 -0.1655 -0.1244  1.1138
  106CHL1   C1614051   2.118   4.842  12.757  0.0083  0.1448 -0.2194
  106CHL1  H16A14052   2.140   4.874  12.653 -0.5651  0.7379 -0.1632
  106CHL1  H16B14053   2.038   4.765  12.762  0.1918 -0.0399 -0.0497
  106CHL1   C1714054   2.071   4.958  12.851 -0.1541 -0.6525 -0.6879
  106CHL1   H1714055   1.981   4.928  12.908  0.1415 -0.3683 -0.0647
  106CHL1   C1314056   2.187   4.983  12.947 -0.3669 -0.4874  0.4987
  106CHL1   C1814057   2.294   5.077  12.878 -0.1357 -0.3442  0.1963
  106CHL1  H18A14058   2.390   5.091  12.932  0.6350 -1.5760 -0.7829
  106CHL1  H18B14059   2.309   5.034  12.776  0.8396 -0.8635  0.5507
  106CHL1  H18C14060   2.245   5.177  12.878  0.8328  0.2052 -2.3075
  106CHL1   C1214061   2.160   5.034  13.088 -0.1665 -0.5015  0.2772
  106CHL1  H12A14062   2.121   5.137  13.102 -2.0784 -1.1336 -0.1245
  106CHL1  H12B14063   2.080   4.968  13.127 -1.6974  0.9537 -0.2356
  106CHL1   C1114064   2.282   5.020  13.182 -0.0323 -0.6025  0.2774
  106CHL1  H11A14065   2.354   5.098  13.149 -0.5783  0.1822  0.8979
  106CHL1  H11B14066   2.245   5.030  13.286 -1.3980 -0.8370 -0.1661
  106CHL1    C914067   2.342   4.876  13.178  0.0068 -0.2927 -0.6050
  106CHL1    H914068   2.261   4.811  13.217  1.2965 -2.1763 -0.8876
  106CHL1   C1014069   2.466   4.863  13.273 -0.1000  0.7597 -0.5859
  106CHL1   C1914070   2.579   4.952  13.237  0.1212 -0.5846 -0.1407
  106CHL1  H19A14071   2.606   4.948  13.129 -0.6836  0.1599 -0.3707
  106CHL1  H19B14072   2.557   5.059  13.251  2.7005  0.8433 -4.7346
  106CHL1  H19C14073   2.676   4.938  13.290 -0.1090  2.0549  1.1083
  106CHL1    C114074   2.414   4.893  13.419 -0.4155  0.1854 -0.6922
  106CHL1   H1A14075   2.404   5.003  13.432  0.3121  0.3462 -1.4265
  106CHL1   H1B14076   2.312   4.848  13.412 -0.9407  1.4185 -1.3123
  106CHL1    C214077   2.497   4.828  13.533  0.6028 -0.4742 -0.4010
  106CHL1   H2A14078   2.443   4.828  13.630 -0.1231 -1.1902 -0.7982
  106CHL1   H2B14079   2.590   4.889  13.546  1.3531 -1.3397 -1.5691
  106CHL1   C2014080   2.012   5.083  12.779 -0.2372 -0.2063  0.1620
  106CHL1   H2014081   2.088   5.119  12.707 -1.8722  1.4667 -0.8088
  106CHL1   C2114082   1.959   5.188  12.879 -0.4673  0.4955 -0.2480
  106CHL1  H21A14083   1.934   5.281  12.824 -1.9915 -0.0522 -0.5515
  106CHL1  H21B14084   2.017   5.221  12.967  0.1545  2.2384 -1.2777
  106CHL1  H21C14085   1.867   5.138  12.916 -0.4042  0.5881  0.0413
  106CHL1   C2214086   1.907   5.046  12.662 -0.2348  0.2182 -0.2349
  106CHL1  H22A14087   1.953   4.997  12.574  1.4515  2.4252 -0.6453
  106CHL1  H22B14088   1.838   4.968  12.702 -1.1376  1.1388  0.0583
  106CHL1   C2314089   1.824   5.168  12.617 -0.4716 -0.4774 -0.3359
  106CHL1  H23A14090   1.766   5.207  12.703  0.6503  1.7172 -0.4963
  106CHL1  H23B14091   1.890   5.253  12.588  0.2048 -0.3229  1.5394
  106CHL1   C2414092   1.722   5.139  12.507  0.9079 -1.2275 -0.1303
  106CHL1  H24A14093   1.755   5.129  12.402  0.4955 -1.8090 -0.2084
  106CHL1  H24B14094   1.687   5.039  12.538 -1.1380 -0.5949 -0.2630
  106CHL1   C2514095   1.588   5.218  12.521  0.5945 -0.5652  0.6702
  106CHL1   H2514096   1.551   5.225  12.625  1.0480  0.8164  0.7551
  106CHL1   C2614097   1.609   5.356  12.459  0.4558 -0.0127  0.7122
  106CHL1  H26A14098   1.526   5.430  12.466 -0.5902 -1.0686 -0.0188
  106CHL1  H26B14099   1.694   5.409  12.507  0.1985  0.6243  0.4826
  106CHL1  H26C14100   1.629   5.348  12.350  0.3236 -2.4255  0.8046
  106CHL1   C2714101   1.482   5.131  12.449 -0.2093 -0.6291  0.2903
  106CHL1  H27A14102   1.520   5.105  12.348  0.4934  1.4140 -0.0115
  106CHL1  H27B14103   1.482   5.027  12.489 -2.8573 -1.8568 -2.4678
  106CHL1  H27C14104   1.379   5.172  12.461  0.7387  1.9164  0.2504
  107CHL1    C314105   3.403   6.981  13.540  0.2412  0.5576  0.2836
  107CHL1    H314106   3.478   6.899  13.538  2.1655  2.2657 -0.4263
  107CHL1    O314107   3.360   6.965  13.673  0.6726  0.3021 -0.2167
  107CHL1   H3'14108   3.266   6.984  13.680  0.5902  0.2694 -1.0798
  107CHL1    C414109   3.466   7.115  13.513  0.0601 -0.0482 -0.0404
  107CHL1   H4A14110   3.393   7.196  13.531  1.3447  1.2031 -0.3169
  107CHL1   H4B14111   3.551   7.140  13.579  0.1267 -1.0335  0.2649
  107CHL1    C514112   3.516   7.124  13.369  1.3075 -0.1373 -0.3118
  107CHL1    C614113   3.642   7.149  13.333 -0.4515  0.2565 -0.1198
  107CHL1    H614114   3.712   7.155  13.418 -0.0841  1.0379 -0.4665
  107CHL1    C714115   3.691   7.174  13.198 -0.6236 -0.3751 -0.0972
  107CHL1   H7A14116   3.748   7.269  13.188  2.2097 -1.9854 -0.2163
  107CHL1   H7B14117   3.763   7.095  13.169  1.5311  0.3925  2.6799
  107CHL1    C814118   3.580   7.176  13.098  0.1719  0.0207  1.8522
  107CHL1    H814119   3.540   7.280  13.100  1.2612  0.6669 -1.7965
  107CHL1   C1414120   3.639   7.153  12.957  0.5602 -0.3279 -0.5532
  107CHL1   H1414121   3.675   7.048  12.966 -0.7351 -0.8652 -1.2585
  107CHL1   C1514122   3.761   7.229  12.911 -0.8508 -0.2299  0.0749
  107CHL1  H15A14123   3.743   7.335  12.941 -1.3156 -0.3435  0.2106
  107CHL1  H15B14124   3.858   7.194  12.954 -0.0977  2.1499  0.4684
  107CHL1   C1614125   3.761   7.207  12.762 -0.5652  0.0732 -0.3212
  107CHL1  H16A14126   3.782   7.307  12.718  2.6248  0.4323  1.7052
  107CHL1  H16B14127   3.849   7.145  12.735 -0.6664  0.5235 -1.7814
  107CHL1   C1714128   3.630   7.126  12.724 -0.3058 -0.6593 -0.3842
  107CHL1   H1714129   3.665   7.021  12.725  0.7899 -0.3181 -0.7868
  107CHL1   C1314130   3.535   7.148  12.848  0.0651 -0.3330 -0.0944
  107CHL1   C1814131   3.473   7.290  12.834 -0.5996  0.2195 -0.4582
  107CHL1  H18A14132   3.422   7.321  12.927 -0.3406 -0.4204 -0.0997
  107CHL1  H18B14133   3.549   7.367  12.810  2.0447 -1.6893  1.3082
  107CHL1  H18C14134   3.391   7.282  12.758 -1.8862 -0.5518  0.9546
  107CHL1   C1214135   3.429   7.044  12.880  0.0044  0.5361  0.0941
  107CHL1  H12A14136   3.350   7.039  12.802  1.2652 -2.5758 -1.1289
  107CHL1  H12B14137   3.487   6.949  12.883 -1.0315 -0.1453 -0.9510
  107CHL1   C1114138   3.365   7.063  13.014  0.4649 -0.5054 -0.0339
  107CHL1  H11A14139   3.290   7.145  13.003  0.6614 -0.1825  0.9672
  107CHL1  H11B14140   3.305   6.971  13.030 -1.3550  0.1585 -2.4123
  107CHL1    C914141   3.471   7.076  13.127  0.6774 -0.1315 -0.1859
  107CHL1    H914142   3.530   6.982  13.140  1.3854  0.6482  3.3306
  107CHL1   C1014143   3.410   7.115  13.265  0.5141 -0.0435 -0.1684
  107CHL1   C1914144   3.316   7.232  13.269 -0.5030  0.5610  0.2318
  107CHL1  H19A14145   3.264   7.234  13.367 -0.8511  1.7830  0.0437
  107CHL1  H19B14146   3.367   7.331  13.261  0.9684 -0.1244  0.7723
  107CHL1  H19C14147   3.227   7.226  13.203 -0.7768 -1.6690  0.7354
  107CHL1    C114148   3.320   6.990  13.303  0.1781 -0.2826 -0.3806
  107CHL1   H1A14149   3.229   6.983  13.240 -0.8185  0.8132  0.8777
  107CHL1   H1B14150   3.389   6.909  13.271  0.8352 -0.1066  0.5548
  107CHL1    C214151   3.282   6.965  13.446 -0.2036 -0.4271  0.4236
  107CHL1   H2A14152   3.259   6.857  13.460 -1.9417 -1.0898 -5.0863
  107CHL1   H2B14153   3.198   7.029  13.478 -0.4997  0.3394 -1.7416
  107CHL1   C2014154   3.572   7.167  12.587 -0.2809 -0.0107  0.1311
  107CHL1   H2014155   3.554   7.276  12.585  0.6889  0.1695  0.4334
  107CHL1   C2114156   3.442   7.087  12.552  0.1730 -0.1355 -0.2182
  107CHL1  H21A14157   3.421   7.096  12.443 -1.4098  2.0313  0.1896
  107CHL1  H21B14158   3.364   7.135  12.615 -0.5977  0.9503 -1.9080
  107CHL1  H21C14159   3.443   6.981  12.585  0.1628  0.2924  1.2237
  107CHL1   C2214160   3.673   7.130  12.478  0.4566  0.5872 -0.0916
  107CHL1  H22A14161   3.771   7.165  12.516  0.0198 -1.7918  3.7684
  107CHL1  H22B14162   3.689   7.021  12.469  0.8981  0.5852  0.6137
  107CHL1   C2314163   3.656   7.191  12.339 -0.3025 -0.4548  0.3385
  107CHL1  H23A14164   3.558   7.175  12.290 -0.9806  3.5144  0.0520
  107CHL1  H23B14165   3.659   7.300  12.361  1.3099 -0.6085  1.0185
  107CHL1   C2414166   3.769   7.145  12.251 -0.1900 -0.0529  0.3719
  107CHL1  H24A14167   3.747   7.198  12.157  0.4934 -0.6730 -0.1516
  107CHL1  H24B14168   3.863   7.175  12.302  0.5149 -1.3234 -0.1131
  107CHL1   C2514169   3.790   6.997  12.231 -0.1975  0.1699  0.0668
  107CHL1   H2514170   3.816   6.956  12.331  2.7349  0.1196 -0.6423
  107CHL1   C2614171   3.665   6.916  12.184 -0.3102 -0.1750 -0.0878
  107CHL1  H26A14172   3.689   6.811  12.158  0.6701 -0.1789  0.7537
  107CHL1  H26B14173   3.589   6.912  12.266 -0.5313  2.2561 -0.0850
  107CHL1  H26C14174   3.617   6.964  12.095  0.8339  1.6683  0.2301
  107CHL1   C2714175   3.910   6.983  12.135  0.1439 -0.1238  0.1096
  107CHL1  H27A14176   4.000   7.010  12.194 -0.6355 -0.4791  1.4882
  107CHL1  H27B14177   3.918   6.875  12.109 -2.1708 -0.3401  0.0979
  107CHL1  H27C14178   3.889   7.034  12.038  0.3711 -0.4071 -0.0909
  108CHL1    C314179   6.072   2.433  13.690  0.6950  0.0798 -0.1691
  108CHL1    H314180   6.163   2.370  13.683 -0.5266 -1.8070  0.2061
  108CHL1    O314181   6.052   2.488  13.819 -0.0725 -0.1633 -0.2289
  108CHL1   H3'14182   5.966   2.531  13.813  0.7511  1.3804 -1.5450
  108CHL1    C414183   6.074   2.548  13.592  0.5920  0.0057 -0.0019
  108CHL1   H4A14184   5.991   2.615  13.623  0.1579 -0.3356 -0.4036
  108CHL1   H4B14185   6.170   2.601  13.609  0.2419  0.8673 -0.6209
  108CHL1    C514186   6.058   2.508  13.445  0.0624  0.1506 -0.0001
  108CHL1    C614187   6.140   2.549  13.344 -0.3446 -0.7994  0.0280
  108CHL1    H614188   6.217   2.624  13.370 -1.5677  0.3155  0.5897
  108CHL1    C714189   6.141   2.506  13.202  0.7563  0.3926  0.3702
  108CHL1   H7A14190   6.176   2.591  13.138  0.6574 -0.7917 -1.3111
  108CHL1   H7B14191   6.218   2.429  13.179  0.4284 -0.2592  1.4233
  108CHL1    C814192   6.002   2.445  13.165 -0.7885  0.5798 -1.1180
  108CHL1    H814193   5.928   2.527  13.159 -1.0412  0.5710  1.2138
  108CHL1   C1414194   6.018   2.374  13.036 -0.4013 -0.1731  0.3211
  108CHL1   H1414195   6.106   2.307  13.048  0.5493  1.1423  0.9523
  108CHL1   C1514196   6.049   2.468  12.916 -0.4255 -0.2636  0.3299
  108CHL1  H15A14197   5.966   2.541  12.924 -0.7785 -0.3558 -1.8833
  108CHL1  H15B14198   6.147   2.519  12.904 -0.3280 -0.5012  0.0970
  108CHL1   C1614199   6.030   2.375  12.796 -0.2204 -0.1075 -0.3729
  108CHL1  H16A14200   5.958   2.405  12.716 -0.3194  1.8412  0.3946
  108CHL1  H16B14201   6.128   2.339  12.760 -1.9613 -1.7538 -4.0247
  108CHL1   C1714202   5.952   2.247  12.847 -0.1343 -0.0324 -0.6218
  108CHL1   H1714203   6.030   2.172  12.870 -1.0092 -1.1386 -1.1783
  108CHL1   C1314204   5.903   2.292  12.985  0.2677 -0.0171 -0.1059
  108CHL1   C1814205   5.775   2.378  12.957  0.0336 -0.3615  0.0700
  108CHL1  H18A14206   5.679   2.324  12.957 -1.4612  2.0836 -1.5821
  108CHL1  H18B14207   5.774   2.461  13.031 -2.4960 -0.8973  0.7007
  108CHL1  H18C14208   5.783   2.435  12.862  1.5290  0.3522  0.5775
  108CHL1   C1214209   5.874   2.183  13.088 -0.2860  0.0765 -0.8825
  108CHL1  H12A14210   5.780   2.135  13.053  0.5915 -0.7301 -2.2214
  108CHL1  H12B14211   5.950   2.104  13.108  0.0635  0.9456  1.6366
  108CHL1   C1114212   5.849   2.246  13.228  0.4074  0.0956 -0.0448
  108CHL1  H11A14213   5.750   2.294  13.214 -1.2006 -2.9425  0.1271
  108CHL1  H11B14214   5.847   2.165  13.303 -0.2268  0.9162  0.8361
  108CHL1    C914215   5.964   2.343  13.274  0.3321 -0.3983  0.1876
  108CHL1    H914216   6.055   2.280  13.287  0.6841 -0.3479 -1.7692
  108CHL1   C1014217   5.948   2.408  13.421  0.2551  0.5185 -0.0035
  108CHL1   C1914218   5.816   2.477  13.424  0.6680  0.0231  0.7463
  108CHL1  H19A14219   5.726   2.412  13.417 -0.0220  1.0773 -0.4977
  108CHL1  H19B14220   5.796   2.529  13.520 -1.3210  2.4723 -0.8590
  108CHL1  H19C14221   5.814   2.553  13.343 -1.0374 -0.9533 -0.1809
  108CHL1    C114222   5.957   2.292  13.522  0.2329  0.3608 -0.5199
  108CHL1   H1A14223   5.874   2.221  13.498  0.5273 -0.6052  1.1982
  108CHL1   H1B14224   6.049   2.232  13.507 -0.1026 -0.2956 -0.0006
  108CHL1    C214225   5.956   2.333  13.668  0.2540  0.0833 -0.4755
  108CHL1   H2A14226   5.966   2.232  13.714 -0.0091  0.3229  0.1242
  108CHL1   H2B14227   5.854   2.370  13.692 -0.3497 -1.6830 -0.1578
  108CHL1   C2014228   5.858   2.195  12.740  0.5482 -0.1696  0.0585
  108CHL1   H2014229   5.790   2.278  12.713 -2.1030 -1.6542  1.7402
  108CHL1   C2114230   5.777   2.071  12.791 -0.0165  0.3786  0.7020
  108CHL1  H21A14231   5.723   2.018  12.709  0.7186 -1.5451  1.4190
  108CHL1  H21B14232   5.702   2.103  12.867 -1.1318 -1.1671  0.2989
  108CHL1  H21C14233   5.846   1.995  12.833 -0.8476 -0.0497  1.3321
  108CHL1   C2214234   5.933   2.157  12.603  0.0477 -0.6615 -0.3483
  108CHL1  H22A14235   5.850   2.153  12.529  0.1486 -3.8656 -0.4327
  108CHL1  H22B14236   6.002   2.233  12.562 -2.7385  1.0358 -2.3106
  108CHL1   C2314237   5.989   2.014  12.582  0.0064 -0.2149 -0.3320
  108CHL1  H23A14238   5.906   1.941  12.595 -1.3452  1.4422  0.8838
  108CHL1  H23B14239   6.023   2.005  12.477 -0.3232  0.9647 -0.5505
  108CHL1   C2414240   6.108   1.980  12.676 -0.2926  0.1795 -0.3630
  108CHL1  H24A14241   6.151   2.079  12.702  0.5007  0.0809 -1.2452
  108CHL1  H24B14242   6.055   1.940  12.765 -1.8089  0.8014 -0.9469
  108CHL1   C2514243   6.212   1.888  12.622 -0.6634  0.3126  0.5029
  108CHL1   H2514244   6.228   1.931  12.521 -0.2035 -0.6555  0.1494
  108CHL1   C2614245   6.343   1.866  12.695  0.0763  0.6175  0.3087
  108CHL1  H26A14246   6.330   1.820  12.796  0.4386 -0.4288 -0.1119
  108CHL1  H26B14247   6.424   1.808  12.646 -0.2931 -1.5621  2.0810
  108CHL1  H26C14248   6.380   1.971  12.705 -1.0417  1.1584 -0.9393
  108CHL1   C2714249   6.140   1.751  12.600  0.7790 -0.5764 -0.4494
  108CHL1  H27A14250   6.086   1.760  12.503  0.2345  0.4809 -0.0582
  108CHL1  H27B14251   6.214   1.669  12.592  1.9690  0.4238 -0.0309
  108CHL1  H27C14252   6.064   1.726  12.677 -0.8069  0.7955 -1.4895
  109CHL1    C314253   2.940   0.261  13.575 -0.7443  0.2116 -0.7830
  109CHL1    H314254   2.959   0.152  13.588  3.2659  0.5883 -1.9994
  109CHL1    O314255   2.877   0.311  13.690  0.6032 -0.0103 -0.3389
  109CHL1   H3'14256   2.883   0.404  13.667 -0.5557  0.1842  0.0749
  109CHL1    C414257   3.076   0.332  13.561 -0.2409  0.3723 -0.2431
  109CHL1   H4A14258   3.064   0.441  13.574  1.7775  0.6160 -0.0496
  109CHL1   H4B14259   3.136   0.296  13.647  0.8912  0.0518 -1.1318
  109CHL1    C514260   3.149   0.298  13.437 -0.2078 -0.1012 -0.0714
  109CHL1    C614261   3.270   0.240  13.446  0.1714  0.3256  0.1661
  109CHL1    H614262   3.325   0.240  13.542 -0.7027 -0.1573  0.6774
  109CHL1    C714263   3.337   0.191  13.319  0.2136  0.4180 -0.6851
  109CHL1   H7A14264   3.448   0.194  13.321  0.2162  1.2907 -1.4154
  109CHL1   H7B14265   3.309   0.084  13.313 -1.9477  1.0235 -3.2124
  109CHL1    C814266   3.287   0.255  13.189  0.1714 -0.1954  0.1746
  109CHL1    H814267   3.307   0.364  13.186 -3.3588  0.5850  0.4170
  109CHL1   C1414268   3.346   0.191  13.069  0.2572 -0.2542 -0.0651
  109CHL1   H1414269   3.313   0.085  13.081  0.2318 -0.1723  0.6153
  109CHL1   C1514270   3.501   0.161  13.054 -0.4336  0.1110  0.9159
  109CHL1  H15A14271   3.552   0.259  13.058 -1.9375  0.9564  0.3388
  109CHL1  H15B14272   3.529   0.101  13.143 -1.7587 -0.0514  1.2524
  109CHL1   C1614273   3.512   0.101  12.909 -0.2630 -0.7435 -0.1091
  109CHL1  H16A14274   3.602   0.139  12.855 -0.1513 -0.2828  0.3934
  109CHL1  H16B14275   3.516  -0.010  12.912 -1.6160 -0.8551 -1.4061
  109CHL1   C1714276   3.377   0.136  12.836  0.3849 -0.2429  0.0006
  109CHL1   H1714277   3.313   0.046  12.837 -1.5696  0.9550 -2.9348
  109CHL1   C1314278   3.306   0.242  12.933  0.6820  1.0772 -0.6170
  109CHL1   C1814279   3.357   0.391  12.907 -0.1103 -0.2259 -0.0428
  109CHL1  H18A14280   3.329   0.419  12.803 -1.3508 -1.2486  0.0057
  109CHL1  H18B14281   3.323   0.460  12.987  0.3071  0.9531 -0.8594
  109CHL1  H18C14282   3.469   0.392  12.903 -0.0574 -0.8062  0.9130
  109CHL1   C1214283   3.154   0.229  12.924 -0.3388  0.0713  0.1693
  109CHL1  H12A14284   3.124   0.276  12.827  0.5829  0.6066  0.1350
  109CHL1  H12B14285   3.133   0.120  12.930 -1.4175  0.2471 -0.1287
  109CHL1   C1114286   3.084   0.301  13.042  0.1275  0.0609 -0.7897
  109CHL1  H11A14287   3.108   0.410  13.036  0.3321 -0.0336 -2.2529
  109CHL1  H11B14288   2.975   0.283  13.037  0.1776 -0.0645 -1.7498
  109CHL1    C914289   3.129   0.254  13.182 -0.7676  0.0712 -1.0124
  109CHL1    H914290   3.103   0.146  13.192 -0.2147  0.0297  0.1990
  109CHL1   C1014291   3.062   0.317  13.309  0.1985 -0.1888  0.2511
  109CHL1   C1914292   3.051   0.471  13.281  0.3414 -0.2097  0.1013
  109CHL1  H19A14293   2.985   0.483  13.193  0.7932  0.6640 -0.1271
  109CHL1  H19B14294   3.003   0.521  13.367  1.5573  1.9462 -0.4142
  109CHL1  H19C14295   3.150   0.519  13.270  1.4807 -2.6491 -1.2494
  109CHL1    C114296   2.921   0.245  13.327  0.3100  0.1096 -0.0540
  109CHL1   H1A14297   2.865   0.255  13.232 -0.1386  0.6194  0.2571
  109CHL1   H1B14298   2.932   0.134  13.328 -0.0388  0.0568 -0.9886
  109CHL1    C214299   2.850   0.289  13.454  0.2587 -0.2747  0.6172
  109CHL1   H2A14300   2.760   0.226  13.472 -0.4702  0.5814  0.0355
  109CHL1   H2B14301   2.824   0.396  13.442  1.9165 -0.0843 -2.3240
  109CHL1   C2014302   3.398   0.173  12.692  0.1719  0.2400  0.0159
  109CHL1   H2014303   3.459   0.265  12.684  0.9037 -0.3633 -1.9548
  109CHL1   C2114304   3.257   0.197  12.629 -0.3205 -0.1350  0.0270
  109CHL1  H21A14305   3.274   0.187  12.520 -0.0557 -2.6032  0.2520
  109CHL1  H21B14306   3.227   0.299  12.663 -1.2574 -0.4230  0.0774
  109CHL1  H21C14307   3.191   0.120  12.673 -0.3611  0.8392  1.7868
  109CHL1   C2214308   3.477   0.066  12.608 -0.5923  0.2180  0.3982
  109CHL1  H22A14309   3.491   0.108  12.506  0.1547  1.0366  0.8264
  109CHL1  H22B14310   3.578   0.060  12.655 -0.4202 -1.1900 -0.0806
  109CHL1   C2314311   3.416  -0.077  12.606  0.8406  0.3382  0.0669
  109CHL1  H23A14312   3.419  -0.119  12.709 -1.0568 -0.1145 -0.0183
  109CHL1  H23B14313   3.308  -0.072  12.579  0.6434  0.9647  0.9170
  109CHL1   C2414314   3.484  -0.161  12.495 -0.6744 -0.6951  0.6146
  109CHL1  H24A14315   3.487  -0.110  12.397  1.2777 -0.2391  0.8595
  109CHL1  H24B14316   3.587  -0.163  12.537  0.0419  1.9997 -0.8331
  109CHL1   C2514317   3.425  -0.298  12.448 -0.3338 -0.1063 -0.9388
  109CHL1   H2514318   3.428  -0.356  12.543  0.8957  0.6937 -0.4600
  109CHL1   C2614319   3.280  -0.286  12.397  0.7163  0.1134 -0.2423
  109CHL1  H26A14320   3.216  -0.248  12.479 -0.9237 -3.9932  0.6175
  109CHL1  H26B14321   3.281  -0.219  12.308 -1.5923 -0.0376 -0.4536
  109CHL1  H26C14322   3.227  -0.380  12.370  2.7221 -1.4313  0.8568
  109CHL1   C2714323   3.505  -0.380  12.351 -0.9105 -0.6910  0.9405
  109CHL1  H27A14324   3.500  -0.328  12.252 -1.6372  1.1447  1.8909
  109CHL1  H27B14325   3.607  -0.404  12.387 -1.0028  0.9536  2.4061
  109CHL1  H27C14326   3.454  -0.477  12.337 -2.0863  0.1512 -1.1470
  110CHL1    C314327   0.279   4.829  13.455  0.3628  0.3886  0.3212
  110CHL1    H314328   0.180   4.826  13.506  1.5009  0.9847  2.7133
  110CHL1    O314329   0.364   4.823  13.564  0.6705  0.2255  0.2420
  110CHL1   H3'14330   0.451   4.804  13.528  1.0939  2.5028 -0.1225
  110CHL1    C414331   0.316   4.707  13.372  0.0478  0.3336  0.5965
  110CHL1   H4A14332   0.416   4.713  13.323 -0.0283  0.4968  0.4597
  110CHL1   H4B14333   0.332   4.613  13.428  1.4334  0.0926 -0.1390
  110CHL1    C514334   0.221   4.703  13.257  0.6137 -0.2391 -0.3923
  110CHL1    C614335   0.131   4.606  13.227 -0.2627 -0.7485 -0.4627
  110CHL1    H614336   0.129   4.519  13.295  1.1056 -1.4232 -1.2362
  110CHL1    C714337   0.031   4.611  13.116 -0.2253  0.0865  0.2517
  110CHL1   H7A14338   0.006   4.508  13.083 -1.0965  0.5077 -0.4490
  110CHL1   H7B14339  -0.067   4.656  13.144 -0.1518  1.4178 -1.4711
  110CHL1    C814340   0.087   4.698  13.001 -0.1209 -0.1485 -0.4068
  110CHL1    H814341   0.179   4.641  12.976  0.8967  1.3963 -0.2930
  110CHL1   C1414342  -0.007   4.700  12.880 -0.3906 -0.5104  0.3801
  110CHL1   H1414343  -0.102   4.751  12.908 -0.4965 -0.6428  0.2683
  110CHL1   C1514344  -0.058   4.572  12.814 -0.0046 -0.8986  0.2110
  110CHL1  H15A14345   0.025   4.499  12.821  0.1965 -0.6400  0.5726
  110CHL1  H15B14346  -0.147   4.541  12.872  0.8714 -0.7356  1.7107
  110CHL1   C1614347  -0.088   4.610  12.667 -0.1227  0.3119  0.1696
  110CHL1  H16A14348  -0.006   4.557  12.614  1.5727  1.1946  1.7930
  110CHL1  H16B14349  -0.191   4.587  12.633 -0.9401  1.4148  1.7906
  110CHL1   C1714350  -0.060   4.764  12.659  0.4252 -0.8210 -0.3795
  110CHL1   H1714351  -0.151   4.816  12.697  0.7931 -0.3772 -0.0952
  110CHL1   C1314352   0.042   4.792  12.768  0.2903  0.1590 -0.4681
  110CHL1   C1814353   0.180   4.740  12.720  0.2650  0.1724 -0.0006
  110CHL1  H18A14354   0.215   4.827  12.660  2.3378 -0.4068  0.2849
  110CHL1  H18B14355   0.254   4.728  12.802  0.4576  0.1810 -0.1719
  110CHL1  H18C14356   0.173   4.648  12.658 -0.2626  1.3776 -1.8262
  110CHL1   C1214357   0.042   4.936  12.821  0.0545  0.0432 -1.0876
  110CHL1  H12A14358   0.045   5.004  12.733  2.1168  1.3596 -0.0750
  110CHL1  H12B14359  -0.056   4.969  12.862  0.0924  0.1297 -1.0667
  110CHL1   C1114360   0.140   4.950  12.936  0.2817  0.2711  0.4942
  110CHL1  H11A14361   0.242   4.946  12.892  0.0588 -1.4727  0.0722
  110CHL1  H11B14362   0.129   5.046  12.991 -1.3954  1.0513 -1.1328
  110CHL1    C914363   0.119   4.839  13.049 -0.0051 -0.0393  0.8069
  110CHL1    H914364   0.016   4.857  13.085 -0.5035 -0.7462 -0.2009
  110CHL1   C1014365   0.223   4.834  13.164 -0.5392  0.0464 -0.0564
  110CHL1   C1914366   0.359   4.830  13.084  0.3883  0.2786  0.3138
  110CHL1  H19A14367   0.441   4.821  13.159 -0.5574 -0.6575  1.2743
  110CHL1  H19B14368   0.358   4.771  12.990 -0.4492  0.7596  0.0084
  110CHL1  H19C14369   0.374   4.934  13.049 -0.6122  0.2296 -0.3207
  110CHL1    C114370   0.203   4.953  13.250  0.4846  0.6157  0.2997
  110CHL1   H1A14371   0.228   5.044  13.190  0.1487  1.3401  1.2444
  110CHL1   H1B14372   0.097   4.959  13.280  0.6055  1.4539  0.6051
  110CHL1    C214373   0.299   4.959  13.377  0.0905  0.3942 -0.0468
  110CHL1   H2A14374   0.273   5.047  13.440  1.9325  2.0615 -1.5130
  110CHL1   H2B14375   0.405   4.972  13.347  0.1642 -0.4852 -0.1894
  110CHL1   C2014376  -0.038   4.819  12.515  0.2086  0.0063  0.6353
  110CHL1   H2014377   0.049   4.889  12.511  0.7651 -0.4799  2.8597
  110CHL1   C2114378  -0.159   4.906  12.466  0.0350  0.4282 -0.7432
  110CHL1  H21A14379  -0.241   4.832  12.448 -0.0028  0.5426 -1.0543
  110CHL1  H21B14380  -0.129   4.968  12.379 -0.6826 -1.1271 -2.1586
  110CHL1  H21C14381  -0.186   4.972  12.551 -2.3624  0.7278 -1.6454
  110CHL1   C2214382  -0.010   4.711  12.398 -1.0470  0.1691  0.0242
  110CHL1  H22A14383  -0.084   4.628  12.396  2.2761 -3.1434  1.7560
  110CHL1  H22B14384  -0.032   4.773  12.308 -1.2985 -0.4670 -0.3590
  110CHL1   C2314385   0.127   4.650  12.380  0.1060  0.2457  0.1500
  110CHL1  H23A14386   0.202   4.731  12.371  1.0063 -0.5192  0.5147
  110CHL1  H23B14387   0.161   4.587  12.465 -0.5165 -1.8454 -1.0729
  110CHL1   C2414388   0.139   4.574  12.242 -0.1502  0.0199  0.7804
  110CHL1  H24A14389   0.243   4.535  12.235 -0.5956 -1.0389 -0.2865
  110CHL1  H24B14390   0.071   4.487  12.256  0.0646 -0.1734  0.6433
  110CHL1   C2514391   0.107   4.639  12.101 -0.4271 -0.0504 -0.6677
  110CHL1   H2514392   0.021   4.708  12.117 -0.5226 -0.6003  1.3655
  110CHL1   C2614393   0.229   4.707  12.027 -0.1321 -0.1687  0.1493
  110CHL1  H26A14394   0.303   4.627  12.005 -1.1888 -1.3836  0.9096
  110CHL1  H26B14395   0.194   4.751  11.931 -0.2572 -0.0976  0.2276
  110CHL1  H26C14396   0.264   4.782  12.101 -3.6830  2.8455 -0.9355
  110CHL1   C2714397   0.043   4.527  12.017  0.2627 -0.4665  0.1371
  110CHL1  H27A14398  -0.046   4.479  12.063 -1.6575 -0.0696 -2.9106
  110CHL1  H27B14399   0.002   4.569  11.923  0.1418  0.6325  0.6675
  110CHL1  H27C14400   0.120   4.450  11.992  1.1732  0.5886 -0.4044
  111CHL1    C314401   3.694   0.190  13.518 -0.7081  0.0900 -0.0153
  111CHL1    H314402   3.590   0.172  13.482 -0.8718 -1.9080  1.2818
  111CHL1    O314403   3.686   0.244  13.649  0.0994 -0.1405 -0.8999
  111CHL1   H3'14404   3.594   0.257  13.673  0.0419 -0.7592 -0.7573
  111CHL1    C414405   3.750   0.051  13.531  0.3615  1.1130 -0.0374
  111CHL1   H4A14406   3.850   0.058  13.578  0.3170  0.1077  0.2131
  111CHL1   H4B14407   3.683  -0.016  13.588  0.1989  1.6492  0.4109
  111CHL1    C514408   3.760  -0.002  13.389  0.0206 -0.2988  0.0606
  111CHL1    C614409   3.690  -0.107  13.347  0.5872  0.0914 -0.2798
  111CHL1    H614410   3.635  -0.158  13.428  2.0839  1.4033  1.6843
  111CHL1    C714411   3.702  -0.168  13.210  0.1005  0.4651  0.0321
  111CHL1   H7A14412   3.685  -0.278  13.213  0.0981  0.4934  1.4307
  111CHL1   H7B14413   3.617  -0.138  13.145  0.4163  0.0355 -0.5932
  111CHL1    C814414   3.835  -0.129  13.130  0.4511  0.7124 -0.9065
  111CHL1    H814415   3.919  -0.188  13.172 -0.0465  2.2234  2.6030
  111CHL1   C1414416   3.807  -0.162  12.987 -0.2263 -0.0695  0.9148
  111CHL1   H1414417   3.719  -0.108  12.946  0.1282  0.3550  0.6982
  111CHL1   C1514418   3.791  -0.313  12.964  0.6312  0.0724 -0.3040
  111CHL1  H15A14419   3.879  -0.365  13.007 -0.5938 -0.4021  1.7625
  111CHL1  H15B14420   3.698  -0.353  13.010  0.4259  0.1814 -0.6193
  111CHL1   C1614421   3.801  -0.327  12.812  0.0498 -0.4173 -0.1193
  111CHL1  H16A14422   3.860  -0.412  12.773  0.3893  0.3273 -1.2760
  111CHL1  H16B14423   3.699  -0.352  12.775 -0.4371 -0.8957  1.4736
  111CHL1   C1714424   3.857  -0.187  12.764 -0.6064 -0.1735  1.3309
  111CHL1   H1714425   3.762  -0.139  12.732 -0.6907 -0.2915  1.3988
  111CHL1   C1314426   3.917  -0.119  12.892  0.3514  0.1545  0.9457
  111CHL1   C1814427   4.052  -0.178  12.933 -0.1343 -0.3807  0.0936
  111CHL1  H18A14428   4.064  -0.289  12.934 -1.2777 -0.5190 -0.1666
  111CHL1  H18B14429   4.132  -0.157  12.859 -1.3678 -0.2704 -1.2723
  111CHL1  H18C14430   4.089  -0.142  13.031  0.5486 -0.2516 -0.2092
  111CHL1   C1214431   3.920   0.037  12.905  0.6129 -0.1213 -0.5846
  111CHL1  H12A14432   4.005   0.079  12.847  1.5641  0.1723  0.9585
  111CHL1  H12B14433   3.824   0.083  12.875 -0.3801 -1.5165  0.2923
  111CHL1   C1114434   3.943   0.090  13.046 -0.2329 -0.6378 -0.2493
  111CHL1  H11A14435   4.045   0.070  13.083  0.0648 -1.9926 -1.6701
  111CHL1  H11B14436   3.932   0.199  13.062  0.7606 -0.9053  2.9488
  111CHL1    C914437   3.843   0.025  13.144 -0.5810  0.0510 -0.0213
  111CHL1    H914438   3.744   0.064  13.112 -1.0532 -0.4891  0.7323
  111CHL1   C1014439   3.852   0.071  13.294  0.1241 -0.1401  0.7941
  111CHL1   C1914440   4.005   0.050  13.340  0.3728 -0.2756 -0.8224
  111CHL1  H19A14441   4.035  -0.056  13.321 -0.3296 -0.8941  1.2596
  111CHL1  H19B14442   4.068   0.126  13.291  2.0032 -0.8763  0.2581
  111CHL1  H19C14443   4.006   0.072  13.449  2.0964  0.6751 -1.0011
  111CHL1    C114444   3.813   0.224  13.298 -0.0150 -0.3071 -0.7548
  111CHL1   H1A14445   3.892   0.287  13.252 -0.0673 -0.1746 -0.6645
  111CHL1   H1B14446   3.718   0.229  13.240 -0.8760 -1.8193  0.4053
  111CHL1    C214447   3.792   0.282  13.444  0.5846  0.9088  0.4777
  111CHL1   H2A14448   3.767   0.390  13.442 -0.1674  0.7302 -0.0767
  111CHL1   H2B14449   3.894   0.271  13.487  2.2221 -1.6479 -3.4770
  111CHL1   C2014450   3.955  -0.211  12.645  0.2982  0.5203  0.2527
  111CHL1   H2014451   4.028  -0.289  12.673 -1.2174 -1.6752 -1.5525
  111CHL1   C2114452   4.022  -0.077  12.609  0.4020  0.4106  1.0505
  111CHL1  H21A14453   3.936  -0.010  12.585 -0.5848 -0.5573  1.8137
  111CHL1  H21B14454   4.070  -0.075  12.508 -1.2804  0.8847  0.2182
  111CHL1  H21C14455   4.073  -0.024  12.693  1.9663 -0.0134  0.4100
  111CHL1   C2214456   3.863  -0.267  12.528  0.2269  0.4126  0.2837
  111CHL1  H22A14457   3.795  -0.348  12.564  0.4048  0.2263  0.2078
  111CHL1  H22B14458   3.801  -0.181  12.495  0.2380 -0.4381 -2.1962
  111CHL1   C2314459   3.955  -0.311  12.408 -0.3127  0.0995 -0.8244
  111CHL1  H23A14460   4.011  -0.219  12.379  0.3782  0.6816  2.1038
  111CHL1  H23B14461   4.019  -0.398  12.433 -3.0377 -1.8787 -0.3518
  111CHL1   C2414462   3.874  -0.362  12.293  0.0545 -0.1038  0.3225
  111CHL1  H24A14463   3.830  -0.455  12.334  2.9505 -0.4552  2.9251
  111CHL1  H24B14464   3.797  -0.286  12.265 -0.4224 -1.0842 -1.1609
  111CHL1   C2514465   3.957  -0.389  12.161  0.0228  0.0559 -0.2028
  111CHL1   H2514466   4.017  -0.481  12.175  1.2845  0.7188 -1.0508
  111CHL1   C2614467   3.861  -0.433  12.052  0.2438  0.8968 -0.3224
  111CHL1  H26A14468   3.790  -0.510  12.089 -1.8588  1.3318 -3.0841
  111CHL1  H26B14469   3.800  -0.347  12.016 -0.1144  1.1508  0.8569
  111CHL1  H26C14470   3.932  -0.466  11.973  0.7997  0.3123  0.4146
  111CHL1   C2714471   4.040  -0.267  12.121 -0.0786  0.0803  0.0508
  111CHL1  H27A14472   3.968  -0.184  12.133 -1.6602 -1.2633  0.1941
  111CHL1  H27B14473   4.127  -0.255  12.189 -0.8125  2.8657  0.6293
  111CHL1  H27C14474   4.073  -0.275  12.015  0.6107 -1.4107  0.3601
  112CHL1    C314475   5.137   0.771  13.965 -0.3991  0.7872  0.7637
  112CHL1    H314476   5.037   0.815  13.943 -0.6166 -0.5764 -1.1982
  112CHL1    O314477   5.158   0.757  14.103 -0.5354  0.7479  0.1505
  112CHL1   H3'14478   5.254   0.752  14.106 -0.5307 -1.8055 -1.7280
  112CHL1    C414479   5.144   0.624  13.906  0.3761  0.3408 -0.7221
  112CHL1   H4A14480   5.244   0.591  13.940 -0.6597 -0.7826  1.4956
  112CHL1   H4B14481   5.064   0.559  13.950  1.5869  0.1619  1.3558
  112CHL1    C514482   5.140   0.625  13.755  0.3748  0.3953  0.3807
  112CHL1    C614483   5.054   0.546  13.685  0.0805 -0.4451  0.2777
  112CHL1    H614484   4.980   0.481  13.735 -1.5481  0.2708 -1.0962
  112CHL1    C714485   5.046   0.550  13.535 -0.2539  0.0283  0.6648
  112CHL1   H7A14486   5.024   0.452  13.489  2.0809  0.3474 -1.3124
  112CHL1   H7B14487   4.964   0.621  13.509  1.7109  1.5891 -1.7257
  112CHL1    C814488   5.168   0.595  13.461  0.4842 -0.6470 -0.0320
  112CHL1    H814489   5.261   0.534  13.465  3.1308  2.9625 -1.1081
  112CHL1   C1414490   5.133   0.626  13.314 -0.6126 -1.0813  0.4871
  112CHL1   H1414491   5.059   0.709  13.316  1.6861  1.1209 -0.1071
  112CHL1   C1514492   5.084   0.512  13.230 -0.4477  0.6143 -0.2768
  112CHL1  H15A14493   5.157   0.429  13.242 -1.0932  0.0340 -0.3122
  112CHL1  H15B14494   4.985   0.476  13.263  0.6208 -0.1576  2.3018
  112CHL1   C1614495   5.090   0.571  13.089 -0.4930  0.2559 -0.2921
  112CHL1  H16A14496   5.109   0.494  13.011 -1.5088 -2.3535  1.9042
  112CHL1  H16B14497   4.995   0.619  13.057  0.1010  1.8094  0.1781
  112CHL1   C1714498   5.202   0.686  13.089  0.6020  0.0423 -0.3082
  112CHL1   H1714499   5.142   0.778  13.070 -2.2259 -1.5419  0.2413
  112CHL1   C1314500   5.252   0.693  13.233 -0.0453 -0.0826  0.0490
  112CHL1   C1814501   5.380   0.600  13.232  0.4740  0.1631 -0.4828
  112CHL1  H18A14502   5.370   0.506  13.173  1.5425 -1.5324  1.8938
  112CHL1  H18B14503   5.464   0.657  13.185  0.2163 -0.1540 -1.3583
  112CHL1  H18C14504   5.413   0.595  13.338  0.1757  0.4915 -0.3747
  112CHL1   C1214505   5.292   0.823  13.296 -0.4444 -0.2292 -0.2971
  112CHL1  H12A14506   5.379   0.880  13.258 -1.7032  2.1096  0.1332
  112CHL1  H12B14507   5.210   0.896  13.287 -0.3697 -0.2135 -0.8964
  112CHL1   C1114508   5.320   0.803  13.450 -0.4834 -0.3769  0.3474
  112CHL1  H11A14509   5.419   0.755  13.462 -0.7548 -1.3486 -1.0771
  112CHL1  H11B14510   5.340   0.903  13.493  0.8206 -0.6565  0.4379
  112CHL1    C914511   5.207   0.734  13.522 -0.7895  1.0610  0.0289
  112CHL1    H914512   5.116   0.795  13.504 -2.4220 -1.7101 -1.6841
  112CHL1   C1014513   5.230   0.722  13.677 -0.4348  0.5012  0.2019
  112CHL1   C1914514   5.373   0.656  13.689 -0.3786  0.0033 -0.1432
  112CHL1  H19A14515   5.396   0.640  13.796  1.5412  2.9037  0.0056
  112CHL1  H19B14516   5.383   0.562  13.631  0.2349 -0.9044  1.3747
  112CHL1  H19C14517   5.457   0.724  13.659  0.2189 -1.1096 -1.0911
  112CHL1    C114518   5.228   0.859  13.749 -0.7048 -0.6184  0.1433
  112CHL1   H1A14519   5.302   0.933  13.713 -0.0634 -0.0833  2.4095
  112CHL1   H1B14520   5.130   0.908  13.726  0.5859  2.8704  1.3318
  112CHL1    C214521   5.256   0.853  13.897  0.4765  0.2090 -0.5873
  112CHL1   H2A14522   5.249   0.952  13.947  0.5138 -0.9323  1.8228
  112CHL1   H2B14523   5.357   0.805  13.905 -0.5731 -1.8267  2.0067
  112CHL1   C2014524   5.301   0.688  12.975 -0.3020  0.1330  0.2975
  112CHL1   H2014525   5.372   0.603  12.979 -3.0700 -2.2616  1.8632
  112CHL1   C2114526   5.383   0.813  12.977 -0.0768  0.0241  0.4750
  112CHL1  H21A14527   5.316   0.891  13.021  0.5960  0.7677  0.1969
  112CHL1  H21B14528   5.421   0.851  12.880 -2.3419 -0.3777 -0.6566
  112CHL1  H21C14529   5.452   0.806  13.064  1.3602  0.9334 -0.5601
  112CHL1   C2214530   5.244   0.672  12.829  0.2996  0.0849  0.1639
  112CHL1  H22A14531   5.326   0.667  12.754  1.4079  0.1850  1.3258
  112CHL1  H22B14532   5.206   0.568  12.821 -0.1821  0.2688  0.0247
  112CHL1   C2314533   5.140   0.776  12.792 -0.8043  0.0338 -0.1997
  112CHL1  H23A14534   5.051   0.782  12.858 -0.6638  3.1550 -0.1538
  112CHL1  H23B14535   5.179   0.875  12.824  1.6085 -0.8362 -0.2788
  112CHL1   C2414536   5.100   0.785  12.645 -0.6317 -0.5691  0.1212
  112CHL1  H24A14537   5.056   0.884  12.621 -2.2565 -0.7780  2.0060
  112CHL1  H24B14538   5.188   0.783  12.577 -0.1213  1.4067  0.6526
  112CHL1   C2514539   5.004   0.680  12.587  0.1196 -0.0539 -0.3920
  112CHL1   H2514540   5.046   0.579  12.608  3.7267  1.2382 -0.7154
  112CHL1   C2614541   4.859   0.691  12.644  0.5541 -0.2408  0.3596
  112CHL1  H26A14542   4.856   0.716  12.753 -1.6345  1.9221 -0.1109
  112CHL1  H26B14543   4.807   0.770  12.586  0.9757 -0.1920  0.0387
  112CHL1  H26C14544   4.807   0.594  12.629 -0.6263  0.1180  1.8327
  112CHL1   C2714545   4.992   0.689  12.430 -0.3063 -0.3024  0.2175
  112CHL1  H27A14546   4.936   0.600  12.393  0.3841 -0.6282 -0.0740
  112CHL1  H27B14547   4.956   0.784  12.387  1.4387  0.0997 -0.4290
  112CHL1  H27C14548   5.099   0.679  12.401 -0.5824 -0.5478 -0.7612
  113CHL1    C314549   0.060   5.831  13.885 -0.3384  0.0138 -1.2566
  113CHL1    H314550   0.057   5.941  13.874  0.6862  0.1529 -0.3360
  113CHL1    O314551   0.103   5.800  14.013 -0.5674 -0.1369  0.2286
  113CHL1   H3'14552   0.052   5.854  14.073 -0.6395 -0.0449  0.0847
  113CHL1    C414553  -0.080   5.788  13.862 -0.4432 -0.3052 -0.0345
  113CHL1   H4A14554  -0.087   5.679  13.882  1.2798 -0.1047  2.0259
  113CHL1   H4B14555  -0.143   5.827  13.945  1.4137  2.5332  0.1732
  113CHL1    C514556  -0.130   5.841  13.731  0.1145 -0.4356 -0.2998
  113CHL1    C614557  -0.243   5.917  13.715  0.3115 -0.0194 -0.0707
  113CHL1    H614558  -0.298   5.953  13.803  0.7277  1.9702 -0.5698
  113CHL1    C714559  -0.307   5.963  13.590  0.4740 -0.1101  0.4195
  113CHL1   H7A14560  -0.414   5.936  13.595 -0.1345  2.1351  0.7920
  113CHL1   H7B14561  -0.302   6.074  13.595 -3.0099  0.0978  1.7280
  113CHL1    C814562  -0.238   5.900  13.464  0.7224 -1.2150 -0.5609
  113CHL1    H814563  -0.279   5.797  13.459  1.7579 -1.7828  1.4361
  113CHL1   C1414564  -0.263   5.984  13.340 -0.3578  0.8083 -1.0202
  113CHL1   H1414565  -0.205   6.072  13.375  0.7276 -0.9847  2.0907
  113CHL1   C1514566  -0.409   6.017  13.298 -0.3756  0.4399 -0.4077
  113CHL1  H15A14567  -0.478   5.934  13.322  1.9378 -0.9055  2.0984
  113CHL1  H15B14568  -0.440   6.107  13.355  0.8810 -1.0253  2.8220
  113CHL1   C1614569  -0.407   6.053  13.145  0.3790  0.5457  0.3969
  113CHL1  H16A14570  -0.463   5.978  13.085 -1.1548  0.8806  1.3413
  113CHL1  H16B14571  -0.438   6.157  13.120  0.6945  0.0033 -2.5777
  113CHL1   C1714572  -0.258   6.036  13.112 -0.6467 -0.0288  0.5420
  113CHL1   H1714573  -0.215   6.132  13.146  0.5958 -0.7994  1.2209
  113CHL1   C1314574  -0.201   5.937  13.211  0.3410  0.0716  0.0321
  113CHL1   C1814575  -0.248   5.794  13.186 -0.6226 -0.2881 -0.1909
  113CHL1  H18A14576  -0.205   5.758  13.090  2.7914  4.1032 -0.6078
  113CHL1  H18B14577  -0.218   5.712  13.255  0.5553 -0.3415 -0.7490
  113CHL1  H18C14578  -0.359   5.799  13.178 -0.5311  1.8888 -0.6698
  113CHL1   C1214579  -0.046   5.944  13.237  0.2135 -0.2616  0.9124
  113CHL1  H12A14580   0.014   5.920  13.147  2.2862 -0.1701  2.1848
  113CHL1  H12B14581  -0.029   6.046  13.277 -0.7544 -0.5254  2.0547
  113CHL1   C1114582  -0.006   5.856  13.359 -0.7313  0.4109  0.1522
  113CHL1  H11A14583  -0.024   5.751  13.327 -0.4603  0.8006 -1.3611
  113CHL1  H11B14584   0.101   5.885  13.370  0.1318 -2.1390 -0.6726
  113CHL1    C914585  -0.086   5.896  13.490  0.2349  0.1139  0.3111
  113CHL1    H914586  -0.060   5.999  13.521 -0.6419 -0.2269  2.3137
  113CHL1   C1014587  -0.045   5.810  13.610  0.1069  0.1520 -0.0041
  113CHL1   C1914588  -0.056   5.658  13.573  0.9028 -0.8699  0.4054
  113CHL1  H19A14589  -0.159   5.640  13.534  0.2830  0.3345  1.3931
  113CHL1  H19B14590   0.015   5.631  13.492  0.7392  3.3893 -1.4464
  113CHL1  H19C14591  -0.031   5.599  13.663  2.4418  0.9158  1.2062
  113CHL1    C114592   0.098   5.845  13.651 -0.8514  0.1753 -0.1235
  113CHL1   H1A14593   0.166   5.820  13.567  1.3491  0.0924  1.5874
  113CHL1   H1B14594   0.108   5.954  13.670  1.2998 -0.3095  1.9822
  113CHL1    C214595   0.156   5.779  13.779  0.0519 -0.5934  0.3951
  113CHL1   H2A14596   0.258   5.818  13.802  0.1535 -1.0100  0.6652
  113CHL1   H2B14597   0.162   5.669  13.770 -2.3828 -0.9147  1.8353
  113CHL1   C2014598  -0.215   6.013  12.963 -0.5713 -0.4297 -0.1683
  113CHL1   H2014599  -0.113   5.970  12.951 -1.1219 -1.4982 -1.2077
  113CHL1   C2114600  -0.220   6.154  12.896 -0.1755  0.2153  0.0055
  113CHL1  H21A14601  -0.141   6.222  12.933  2.1059  0.7366 -5.0239
  113CHL1  H21B14602  -0.319   6.203  12.906 -0.0836  0.9302 -2.1722
  113CHL1  H21C14603  -0.209   6.161  12.786 -1.6582 -0.6597 -0.2270
  113CHL1   C2214604  -0.305   5.917  12.886  0.4957 -0.0271  0.0910
  113CHL1  H22A14605  -0.322   5.816  12.930  1.6070 -0.9320 -1.4517
  113CHL1  H22B14606  -0.407   5.959  12.874  0.4434 -0.2651 -0.3358
  113CHL1   C2314607  -0.257   5.895  12.738  0.7953  0.5701  0.2261
  113CHL1  H23A14608  -0.254   5.999  12.698 -1.6981  1.9233  3.1411
  113CHL1  H23B14609  -0.154   5.855  12.755  0.5931 -0.6930 -1.3169
  113CHL1   C2414610  -0.354   5.798  12.659  1.1192 -0.4924 -0.4196
  113CHL1  H24A14611  -0.344   5.699  12.707  2.1079 -0.4892 -0.6149
  113CHL1  H24B14612  -0.462   5.826  12.658  0.5487 -2.5967 -1.1139
  113CHL1   C2514613  -0.322   5.773  12.510  0.4041 -0.3726 -0.5037
  113CHL1   H2514614  -0.212   5.785  12.497  0.7708 -0.1251  2.2209
  113CHL1   C2614615  -0.371   5.635  12.477  0.8177  0.0526 -0.8144
  113CHL1  H26A14616  -0.482   5.623  12.468  0.8205  0.2417 -1.1003
  113CHL1  H26B14617  -0.341   5.603  12.375  0.0578  1.3120 -1.4537
  113CHL1  H26C14618  -0.324   5.555  12.539 -1.2126 -3.1921 -3.1405
  113CHL1   C2714619  -0.382   5.886  12.422 -0.3310 -0.8631  1.3124
  113CHL1  H27A14620  -0.493   5.874  12.427 -0.5322 -0.0798 -0.5817
  113CHL1  H27B14621  -0.342   5.988  12.438 -0.9785 -0.0531 -1.6707
  113CHL1  H27C14622  -0.363   5.858  12.316 -0.5490 -0.3210  1.1258
  114CHL1    C314623   5.315   7.769  13.585 -0.4156 -0.2154  0.0731
  114CHL1    H314624   5.267   7.866  13.561  0.3759  0.3419  0.6811
  114CHL1    O314625   5.302   7.744  13.725  0.0319 -0.3156 -0.0773
  114CHL1   H3'14626   5.376   7.686  13.746  0.8649  0.0749 -1.7194
  114CHL1    C414627   5.248   7.650  13.522  0.2221  0.1526  0.2932
  114CHL1   H4A14628   5.289   7.557  13.566  1.1403  0.0875 -0.6828
  114CHL1   H4B14629   5.140   7.645  13.551 -0.0584 -0.0504 -0.7268
  114CHL1    C514630   5.273   7.641  13.372 -0.1738 -0.8552 -0.3630
  114CHL1    C614631   5.173   7.630  13.281  0.1226  0.6337  0.1308
  114CHL1    H614632   5.073   7.609  13.323  0.7559 -0.8588  0.9926
  114CHL1    C714633   5.201   7.622  13.131  0.2547  0.1016  0.1673
  114CHL1   H7A14634   5.133   7.545  13.088 -1.4174  1.5496  0.0751
  114CHL1   H7B14635   5.172   7.718  13.082 -2.1276 -0.1571  0.9279
  114CHL1    C814636   5.348   7.587  13.096 -0.1115  0.0632 -0.0035
  114CHL1    H814637   5.370   7.479  13.112  1.6712  0.5960  1.3509
  114CHL1   C1414638   5.370   7.615  12.941 -0.1434 -0.1220  0.3229
  114CHL1   H1414639   5.353   7.724  12.927  1.2867  0.3037  1.6629
  114CHL1   C1514640   5.285   7.539  12.841  0.7733 -0.0214 -0.1851
  114CHL1  H15A14641   5.274   7.434  12.874 -0.7508  0.8400  2.3247
  114CHL1  H15B14642   5.181   7.576  12.828  0.9883  0.7703  0.2954
  114CHL1   C1614643   5.350   7.554  12.706  0.0709  0.5689  0.2231
  114CHL1  H16A14644   5.354   7.453  12.658 -0.1638  1.0730 -0.8945
  114CHL1  H16B14645   5.289   7.616  12.638  0.6755  1.3082  0.3484
  114CHL1   C1714646   5.490   7.620  12.739 -0.1594 -0.2136  0.0663
  114CHL1   H1714647   5.486   7.731  12.728  3.1432 -0.0833 -1.1943
  114CHL1   C1314648   5.509   7.590  12.886 -0.1155 -0.1051 -0.1443
  114CHL1   C1814649   5.543   7.440  12.907  0.2393 -0.9248  0.1824
  114CHL1  H18A14650   5.479   7.367  12.853 -0.0403 -0.3256 -0.3164
  114CHL1  H18B14651   5.644   7.406  12.877 -0.5026 -0.8305 -2.6748
  114CHL1  H18C14652   5.536   7.415  13.015  1.0909 -0.2982  0.3896
  114CHL1   C1214653   5.601   7.680  12.969  0.5235 -0.4559  0.6461
  114CHL1  H12A14654   5.707   7.663  12.942  0.9306  0.2260  1.7405
  114CHL1  H12B14655   5.583   7.786  12.940 -3.4341 -0.7206  1.5328
  114CHL1   C1114656   5.594   7.658  13.122  0.2846 -0.0588 -0.4023
  114CHL1  H11A14657   5.627   7.553  13.137  0.2047 -0.2020 -1.2194
  114CHL1  H11B14658   5.667   7.723  13.176  0.0008 -0.8533  0.9738
  114CHL1    C914659   5.449   7.674  13.178 -0.3550 -0.4962  0.1499
  114CHL1    H914660   5.433   7.783  13.164  1.1450 -0.2783  0.0210
  114CHL1   C1014661   5.426   7.655  13.332 -0.1483 -0.1370  1.0955
  114CHL1   C1914662   5.516   7.536  13.379  0.4094  0.2502  0.3649
  114CHL1  H19A14663   5.620   7.574  13.382  0.4624  0.1283  0.0711
  114CHL1  H19B14664   5.499   7.506  13.484 -1.2252 -0.6962 -0.1277
  114CHL1  H19C14665   5.512   7.449  13.311 -0.4908  1.7399 -1.6086
  114CHL1    C114666   5.488   7.778  13.402  0.4835  0.3529 -0.5013
  114CHL1   H1A14667   5.596   7.788  13.378  0.8023 -1.0748  0.2019
  114CHL1   H1B14668   5.439   7.868  13.361 -0.6214 -0.3827 -0.8484
  114CHL1    C214669   5.464   7.770  13.552 -0.4828 -0.2810  0.1265
  114CHL1   H2A14670   5.518   7.847  13.610 -1.6698  1.4468 -0.9767
  114CHL1   H2B14671   5.509   7.678  13.594 -1.2318 -0.7940 -0.1669
  114CHL1   C2014672   5.595   7.570  12.631 -0.2988 -0.7512 -0.2250
  114CHL1   H2014673   5.589   7.460  12.618 -0.2951 -0.5575 -2.2309
  114CHL1   C2114674   5.733   7.625  12.674 -0.1301  0.0888  0.5392
  114CHL1  H21A14675   5.767   7.556  12.754  0.6963 -0.1521 -0.0058
  114CHL1  H21B14676   5.731   7.732  12.705  1.5661  0.0650  0.8584
  114CHL1  H21C14677   5.801   7.607  12.588 -2.8045 -1.9734 -1.2827
  114CHL1   C2214678   5.552   7.636  12.499  0.6532 -0.0844  0.1087
  114CHL1  H22A14679   5.447   7.615  12.467  1.7384 -2.5774 -2.1785
  114CHL1  H22B14680   5.574   7.745  12.501 -0.0473  0.0938 -0.8784
  114CHL1   C2314681   5.642   7.597  12.381 -0.1432  0.1512  0.0876
  114CHL1  H23A14682   5.728   7.667  12.383 -0.1154  0.1063  0.5422
  114CHL1  H23B14683   5.677   7.493  12.400 -0.5781 -0.1681 -0.7969
  114CHL1   C2414684   5.579   7.611  12.244  0.2101  0.3969  0.2650
  114CHL1  H24A14685   5.474   7.574  12.238  0.0220  0.5836  1.8401
  114CHL1  H24B14686   5.594   7.713  12.201  3.0919  0.5574  1.4128
  114CHL1   C2514687   5.660   7.522  12.143  0.0043  0.7773  0.0095
  114CHL1   H2514688   5.656   7.413  12.165 -1.2207  0.5566 -1.1833
  114CHL1   C2614689   5.592   7.531  12.003 -0.0232  0.5208 -0.2598
  114CHL1  H26A14690   5.588   7.637  11.969  0.4111 -0.2066 -2.8252
  114CHL1  H26B14691   5.647   7.465  11.933 -1.0877 -0.7982  0.1171
  114CHL1  H26C14692   5.487   7.497  12.015  0.7005 -1.6969  0.1589
  114CHL1   C2714693   5.810   7.554  12.137 -0.1660  0.4081  0.1997
  114CHL1  H27A14694   5.864   7.493  12.062 -1.3189 -0.6575  0.1986
  114CHL1  H27B14695   5.815   7.663  12.113  1.2298 -0.2253 -2.7639
  114CHL1  H27C14696   5.859   7.539  12.236 -2.2753  2.4796  1.6915
  115CHL1    C314697   1.875   1.263  13.418 -0.1517  0.6293 -0.5050
  115CHL1    H314698   1.835   1.366  13.409 -0.2268  0.7742  1.2144
  115CHL1    O314699   1.823   1.201  13.532  0.0473 -0.0583 -0.3819
  115CHL1   H3'14700   1.874   1.121  13.549  0.4095  0.0675 -0.8291
  115CHL1    C414701   1.830   1.167  13.299  0.4343 -0.4616 -0.0569
  115CHL1   H4A14702   1.858   1.060  13.311 -2.5530 -1.5480 -1.7128
  115CHL1   H4B14703   1.719   1.165  13.296  0.4578 -1.3129 -1.4654
  115CHL1    C514704   1.884   1.209  13.164 -0.4731  0.0472 -1.4220
  115CHL1    C614705   1.802   1.227  13.063  0.5175  0.6814 -0.4330
  115CHL1    H614706   1.695   1.203  13.065  0.3975  0.7097 -2.8941
  115CHL1    C714707   1.836   1.278  12.927 -0.7652 -0.1220 -0.0520
  115CHL1   H7A14708   1.786   1.212  12.853  0.0029 -1.2149  0.3794
  115CHL1   H7B14709   1.790   1.378  12.908  0.9059  0.6668 -0.0897
  115CHL1    C814710   1.991   1.283  12.905  0.3808  0.3380 -0.3870
  115CHL1    H814711   2.022   1.180  12.879  0.0316  0.6252 -2.0980
  115CHL1   C1414712   2.025   1.355  12.778  0.1505  0.4745  0.1774
  115CHL1   H1414713   1.996   1.461  12.797  1.6024  1.3465 -2.0444
  115CHL1   C1514714   1.941   1.330  12.644  0.2584 -0.6538 -0.7816
  115CHL1  H15A14715   1.951   1.222  12.619  1.3038 -0.9411  0.7250
  115CHL1  H15B14716   1.838   1.372  12.640 -0.6621 -2.7298 -0.2140
  115CHL1   C1614717   2.027   1.401  12.544 -0.8429 -0.2730  0.0149
  115CHL1  H16A14718   2.057   1.329  12.466 -1.6941 -1.0337  0.3759
  115CHL1  H16B14719   1.984   1.487  12.488 -0.7248 -0.3159 -0.1424
  115CHL1   C1714720   2.160   1.454  12.621 -0.8339  0.4589 -0.0973
  115CHL1   H1714721   2.122   1.554  12.650  0.2634  1.0973 -0.8048
  115CHL1   C1314722   2.171   1.366  12.745 -0.1665  0.3941 -0.2688
  115CHL1   C1814723   2.225   1.232  12.705  0.3382  0.2596 -0.9411
  115CHL1  H18A14724   2.196   1.151  12.775  0.2739  1.3126  0.2837
  115CHL1  H18B14725   2.189   1.214  12.601 -2.2237  0.3634 -0.1367
  115CHL1  H18C14726   2.336   1.229  12.705  0.3985 -1.3964  2.0926
  115CHL1   C1214727   2.247   1.419  12.872  0.6015 -0.5214  0.2402
  115CHL1  H12A14728   2.356   1.426  12.857  0.7928  3.5897  2.0540
  115CHL1  H12B14729   2.208   1.522  12.887  1.3069 -0.4331  1.6074
  115CHL1   C1114730   2.214   1.346  13.002 -0.2799  0.3109  0.2874
  115CHL1  H11A14731   2.274   1.252  12.994 -1.3897 -0.2846 -1.6364
  115CHL1  H11B14732   2.260   1.402  13.086  2.1510  2.6824 -2.3775
  115CHL1    C914733   2.068   1.335  13.032  0.1652 -0.5834 -0.0673
  115CHL1    H914734   2.041   1.440  13.053 -2.0419 -0.7300 -1.8592
  115CHL1   C1014735   2.034   1.247  13.156 -0.0716  0.0623  0.0015
  115CHL1   C1914736   2.111   1.113  13.145 -0.7252  0.7353 -0.2878
  115CHL1  H19A14737   2.110   1.063  13.045  0.8306  0.3824 -0.1652
  115CHL1  H19B14738   2.216   1.126  13.180 -1.2485  3.4225  0.5170
  115CHL1  H19C14739   2.078   1.035  13.217  2.0451  0.2391  0.5613
  115CHL1    C114740   2.082   1.320  13.283 -0.0544 -0.8207 -0.5732
  115CHL1   H1A14741   2.192   1.330  13.279 -0.2399  1.8157 -3.1437
  115CHL1   H1B14742   2.034   1.421  13.280 -0.8830 -1.1644  0.6078
  115CHL1    C214743   2.024   1.270  13.422 -0.0960 -0.0689  0.1481
  115CHL1   H2A14744   2.051   1.334  13.508 -1.3910 -1.8836  1.9837
  115CHL1   H2B14745   2.057   1.167  13.448  1.1489 -0.0820 -1.2882
  115CHL1   C2014746   2.284   1.461  12.529 -0.2019  0.5449  0.2048
  115CHL1   H2014747   2.325   1.361  12.503  0.2431  0.6709  0.4046
  115CHL1   C2114748   2.400   1.546  12.589 -0.5987 -0.1450  0.1419
  115CHL1  H21A14749   2.493   1.529  12.529 -1.1147 -2.3398 -0.1427
  115CHL1  H21B14750   2.415   1.508  12.692  1.0864  1.7514  0.6559
  115CHL1  H21C14751   2.362   1.650  12.598  0.2209  0.0289  1.8107
  115CHL1   C2214752   2.249   1.513  12.388 -0.3428 -0.4562 -0.0595
  115CHL1  H22A14753   2.190   1.432  12.340  1.8050 -2.0440 -0.1645
  115CHL1  H22B14754   2.193   1.608  12.399  0.2221 -0.0143 -0.9640
  115CHL1   C2314755   2.367   1.553  12.299  0.1583  0.5958 -0.2838
  115CHL1  H23A14756   2.407   1.651  12.333 -0.3200 -0.3297  3.3983
  115CHL1  H23B14757   2.444   1.474  12.308  0.2544  0.5123 -1.7051
  115CHL1   C2414758   2.317   1.568  12.156  0.4437 -0.1124  0.0577
  115CHL1  H24A14759   2.287   1.468  12.119 -0.5423 -0.9112  2.7724
  115CHL1  H24B14760   2.243   1.647  12.132 -0.9849 -1.5614 -0.4572
  115CHL1   C2514761   2.432   1.625  12.060  0.2462 -0.2222  0.0861
  115CHL1   H2514762   2.519   1.564  12.092  0.0707 -0.0174  0.9868
  115CHL1   C2614763   2.404   1.602  11.909 -0.2047  0.1427 -0.5193
  115CHL1  H26A14764   2.485   1.617  11.835 -0.0934  1.0598 -0.2193
  115CHL1  H26B14765   2.357   1.501  11.908  0.8027 -0.4330  1.7740
  115CHL1  H26C14766   2.321   1.672  11.885  0.8412  2.4571  2.0741
  115CHL1   C2714767   2.465   1.772  12.101 -0.6352  0.3505  0.5990
  115CHL1  H27A14768   2.387   1.849  12.082 -0.8565 -0.0534 -0.1680
  115CHL1  H27B14769   2.489   1.784  12.209  2.3419  0.6690 -0.0167
  115CHL1  H27C14770   2.550   1.804  12.038 -1.1658 -1.2644 -1.0060
  116CHL1    C314771   4.771   1.121  13.885 -0.8588 -0.1749 -0.0459
  116CHL1    H314772   4.662   1.111  13.866 -1.0689  2.3305 -0.4510
  116CHL1    O314773   4.786   1.128  14.028 -0.4446 -0.0489  0.3912
  116CHL1   H3'14774   4.872   1.172  14.035 -0.9660  1.1789 -0.6156
  116CHL1    C414775   4.855   1.011  13.826  0.2235  0.7484  0.2469
  116CHL1   H4A14776   4.961   1.007  13.860  0.1253  0.7775  0.5524
  116CHL1   H4B14777   4.811   0.915  13.862 -2.6371  1.9084  0.0633
  116CHL1    C514778   4.863   1.008  13.672  0.3478 -0.8106 -0.1413
  116CHL1    C614779   4.833   0.897  13.602  0.6666 -0.8231  0.2797
  116CHL1    H614780   4.788   0.808  13.649  0.1475  0.0000  1.3763
  116CHL1    C714781   4.823   0.897  13.451  0.5008 -0.5326  0.2966
  116CHL1   H7A14782   4.861   0.795  13.428  0.5967 -0.8085  1.5869
  116CHL1   H7B14783   4.717   0.900  13.420  0.3241  1.7075  0.9762
  116CHL1    C814784   4.893   1.011  13.382 -0.4651 -0.7775  0.3689
  116CHL1    H814785   5.002   0.991  13.392 -0.3006 -0.2205 -0.2380
  116CHL1   C1414786   4.849   1.026  13.239 -0.2519 -0.4291 -0.2717
  116CHL1   H1414787   4.741   1.053  13.240 -0.3015 -0.4958 -1.6395
  116CHL1   C1514788   4.850   0.904  13.146  0.1218  0.1215  0.2738
  116CHL1  H15A14789   4.943   0.846  13.166  0.6852  1.2533  0.9950
  116CHL1  H15B14790   4.763   0.841  13.174  0.0895 -0.3053 -0.7298
  116CHL1   C1614791   4.846   0.965  13.006  0.0870 -0.0905 -1.1354
  116CHL1  H16A14792   4.942   0.935  12.959  1.1156 -0.1925  0.8863
  116CHL1  H16B14793   4.759   0.928  12.949  0.7821 -2.4500 -0.7878
  116CHL1   C1714794   4.843   1.121  13.028 -0.0080 -0.3454 -0.3905
  116CHL1   H1714795   4.736   1.148  13.042 -0.0656 -1.2891  1.3579
  116CHL1   C1314796   4.916   1.138  13.162  0.8362  1.1141  0.5443
  116CHL1   C1814797   5.064   1.111  13.150 -0.5869  0.2245 -0.0631
  116CHL1  H18A14798   5.115   1.193  13.095  2.8965 -2.2357 -0.8854
  116CHL1  H18B14799   5.108   1.103  13.252 -1.4769  0.5298  0.3535
  116CHL1  H18C14800   5.089   1.017  13.095 -0.9250  0.2096 -0.1904
  116CHL1   C1214801   4.890   1.269  13.234 -0.1452  0.7286 -0.1191
  116CHL1  H12A14802   4.948   1.350  13.186  0.2128  0.5566  0.0142
  116CHL1  H12B14803   4.781   1.291  13.228 -0.2930  0.2189  0.4953
  116CHL1   C1114804   4.934   1.266  13.376 -0.1718 -0.3203 -0.5575
  116CHL1  H11A14805   5.044   1.255  13.380  0.0754  1.1443 -2.1217
  116CHL1  H11B14806   4.903   1.363  13.421 -0.8532 -1.6991  2.1346
  116CHL1    C914807   4.864   1.150  13.453  0.1454 -0.1437  0.3777
  116CHL1    H914808   4.756   1.176  13.450 -0.6224 -3.1063 -0.5989
  116CHL1   C1014809   4.901   1.151  13.606  0.8935 -0.0519 -0.3470
  116CHL1   C1914810   5.049   1.163  13.627  0.3335  0.4240  0.6948
  116CHL1  H19A14811   5.103   1.086  13.568 -0.2311  1.0122 -0.6309
  116CHL1  H19B14812   5.083   1.257  13.579 -1.0155  0.2057 -0.7471
  116CHL1  H19C14813   5.093   1.152  13.728  0.8326 -0.5605  0.3865
  116CHL1    C114814   4.816   1.265  13.676  0.0046  0.4550 -0.2207
  116CHL1   H1A14815   4.854   1.362  13.638  0.1129 -0.4079 -2.4540
  116CHL1   H1B14816   4.713   1.252  13.638  0.4284  2.5296 -2.3043
  116CHL1    C214817   4.812   1.262  13.827 -0.6574  0.4346 -0.3544
  116CHL1   H2A14818   4.747   1.333  13.883 -2.5027 -1.4695  0.0513
  116CHL1   H2B14819   4.917   1.283  13.858 -0.1245 -0.3625 -1.5353
  116CHL1   C2014820   4.888   1.193  12.907 -0.6182  0.0330  0.5681
  116CHL1   H2014821   4.999   1.205  12.903 -0.8111  2.4257  0.8890
  116CHL1   C2114822   4.821   1.334  12.900  0.3978 -0.3162  0.4159
  116CHL1  H21A14823   4.839   1.391  12.994  1.2825 -1.5179  0.9943
  116CHL1  H21B14824   4.711   1.318  12.905  0.3488 -0.0079  0.3320
  116CHL1  H21C14825   4.844   1.391  12.808 -0.2552 -2.5094 -1.1765
  116CHL1   C2214826   4.852   1.113  12.781 -0.0486  0.0767  1.0999
  116CHL1  H22A14827   4.919   1.027  12.764  1.3007  1.6341 -2.3808
  116CHL1  H22B14828   4.745   1.081  12.774 -0.4214  1.6172 -1.3573
  116CHL1   C2314829   4.875   1.195  12.648 -0.5212 -0.8945 -0.1927
  116CHL1  H23A14830   4.811   1.287  12.652  1.0878  0.2187  1.6614
  116CHL1  H23B14831   4.979   1.235  12.648 -0.8619  0.0341  0.6567
  116CHL1   C2414832   4.847   1.114  12.520  0.9452  0.3753  0.2689
  116CHL1  H24A14833   4.883   1.010  12.531  1.3618  0.4841 -0.0439
  116CHL1  H24B14834   4.737   1.102  12.509  1.3016 -1.2989 -2.1666
  116CHL1   C2514835   4.895   1.174  12.389 -0.0684 -0.0038 -0.5406
  116CHL1   H2514836   4.988   1.225  12.419 -0.1267 -0.3602  0.2652
  116CHL1   C2614837   4.895   1.072  12.271  0.2655 -0.4532  1.0786
  116CHL1  H26A14838   4.971   1.105  12.197 -2.0090 -2.2456 -2.2773
  116CHL1  H26B14839   4.930   0.969  12.294 -0.6360 -0.8931  0.5248
  116CHL1  H26C14840   4.795   1.064  12.224 -0.0996 -1.5500  1.9948
  116CHL1   C2714841   4.809   1.286  12.338  0.6196 -0.2348 -0.1018
  116CHL1  H27A14842   4.701   1.259  12.343  1.2383 -2.8325  1.1340
  116CHL1  H27B14843   4.821   1.378  12.399 -1.0147 -0.1010  0.0663
  116CHL1  H27C14844   4.828   1.304  12.230  0.3291  1.1653  0.0649
  117CHL1    C314845   6.380   8.017  13.447 -0.4394  0.0645  0.2301
  117CHL1    H314846   6.454   7.934  13.435  1.2303  1.6204 -0.7462
  117CHL1    O314847   6.308   7.981  13.565  0.5681 -0.1824  0.1468
  117CHL1   H3'14848   6.263   8.059  13.597  1.9678  0.0310  1.7144
  117CHL1    C414849   6.460   8.149  13.472  0.2198  0.1981 -0.3288
  117CHL1   H4A14850   6.397   8.233  13.509  0.3356  0.1365  0.0174
  117CHL1   H4B14851   6.527   8.128  13.558 -0.8492 -0.4686  0.3674
  117CHL1    C514852   6.538   8.192  13.352  0.1069 -0.0982  0.3105
  117CHL1    C614853   6.672   8.231  13.362  0.0561  0.2941  0.4265
  117CHL1    H614854   6.723   8.244  13.459 -1.7174 -0.1158  1.4585
  117CHL1    C714855   6.746   8.288  13.251 -0.3532  0.1036 -0.5851
  117CHL1   H7A14856   6.822   8.367  13.270 -0.3601 -0.0427  0.0943
  117CHL1   H7B14857   6.810   8.202  13.221  1.0518  1.2279 -0.9037
  117CHL1    C814858   6.656   8.327  13.127 -0.3189  0.0780 -0.2828
  117CHL1    H814859   6.614   8.427  13.150 -0.8909 -0.3880  0.7443
  117CHL1   C1414860   6.753   8.341  13.011  0.5723 -0.3260  0.4405
  117CHL1   H1414861   6.797   8.239  13.010  0.8206 -0.2162 -0.7846
  117CHL1   C1514862   6.870   8.440  13.032 -0.1509 -0.0719 -0.1089
  117CHL1  H15A14863   6.838   8.537  13.077 -1.8912 -0.3735 -0.6261
  117CHL1  H15B14864   6.939   8.384  13.098 -0.9043 -1.7715 -0.7082
  117CHL1   C1614865   6.921   8.469  12.881 -0.4319  0.1981  0.2494
  117CHL1  H16A14866   6.922   8.579  12.867 -1.2289  0.4462  1.9190
  117CHL1  H16B14867   7.026   8.437  12.865 -0.2072 -0.7334  3.0521
  117CHL1   C1714868   6.821   8.386  12.787 -0.8662 -0.1770 -0.0284
  117CHL1   H1714869   6.868   8.286  12.784 -1.5032 -0.4615 -0.7742
  117CHL1   C1314870   6.693   8.365  12.868  0.1316 -0.1868 -0.7864
  117CHL1   C1814871   6.621   8.509  12.871  0.0475 -0.3577  0.1476
  117CHL1  H18A14872   6.534   8.504  12.939  0.2346 -1.0984  0.3458
  117CHL1  H18B14873   6.685   8.593  12.905  0.8447 -0.5732 -0.7609
  117CHL1  H18C14874   6.576   8.527  12.771  0.0869  1.8136  0.4769
  117CHL1   C1214875   6.602   8.249  12.842  0.3131 -0.6955 -0.1260
  117CHL1  H12A14876   6.539   8.276  12.754 -0.6478  2.4460  1.3764
  117CHL1  H12B14877   6.649   8.154  12.810  0.0060 -1.2200  0.9470
  117CHL1   C1114878   6.501   8.227  12.957 -0.4409 -0.7812  0.3430
  117CHL1  H11A14879   6.426   8.309  12.954 -0.4146 -0.7180  1.1286
  117CHL1  H11B14880   6.449   8.130  12.938  0.4811 -1.5051  1.3466
  117CHL1    C914881   6.557   8.217  13.100 -0.7038  0.3174  0.1003
  117CHL1    H914882   6.605   8.117  13.105 -0.0224  0.6792  1.3128
  117CHL1   C1014883   6.466   8.190  13.217  0.1398 -0.4747  0.0327
  117CHL1   C1914884   6.367   8.315  13.220 -0.4628 -0.0687 -0.1230
  117CHL1  H19A14885   6.283   8.312  13.292  0.2890  2.0878  0.9241
  117CHL1  H19B14886   6.420   8.413  13.228 -2.2495  1.3674 -3.5560
  117CHL1  H19C14887   6.315   8.318  13.122 -0.4622  0.5817 -0.1125
  117CHL1    C114888   6.382   8.064  13.199  0.3007 -0.1605 -0.1636
  117CHL1   H1A14889   6.321   8.082  13.109  0.6181 -1.2743 -0.6159
  117CHL1   H1B14890   6.452   7.985  13.165  0.3671 -1.9084  3.5330
  117CHL1    C214891   6.298   8.027  13.320  0.0152 -0.1117 -0.2582
  117CHL1   H2A14892   6.246   7.930  13.305  0.7567 -0.7325  0.9796
  117CHL1   H2B14893   6.218   8.101  13.338 -2.1354 -2.1454 -0.8959
  117CHL1   C2014894   6.804   8.429  12.642  0.5746 -0.5156 -0.3468
  117CHL1   H2014895   6.706   8.389  12.607 -0.6852 -0.7354  3.0532
  117CHL1   C2114896   6.913   8.365  12.554 -0.6053  0.0999  0.1187
  117CHL1  H21A14897   6.896   8.373  12.444 -1.2756 -0.1383  0.2003
  117CHL1  H21B14898   6.919   8.257  12.579 -2.9266  0.6948  3.9816
  117CHL1  H21C14899   7.008   8.418  12.577 -0.1581 -0.1158 -1.1430
  117CHL1   C2214900   6.815   8.583  12.614 -0.2715  0.8166 -0.0312
  117CHL1  H22A14901   6.778   8.641  12.701  0.5688 -0.8910  1.5269
  117CHL1  H22B14902   6.922   8.613  12.604  0.2758 -0.7063  0.9170
  117CHL1   C2314903   6.738   8.622  12.485  0.4750  0.6227  0.3712
  117CHL1  H23A14904   6.740   8.733  12.488 -0.0917  0.6266  1.0992
  117CHL1  H23B14905   6.799   8.588  12.398  0.9823  0.1195  0.9121
  117CHL1   C2414906   6.596   8.577  12.476  0.0760 -0.5311 -0.1997
  117CHL1  H24A14907   6.591   8.468  12.458  2.1186 -0.8526  0.8732
  117CHL1  H24B14908   6.540   8.608  12.567 -1.4322 -0.7624 -1.0289
  117CHL1   C2514909   6.525   8.635  12.351  0.6746 -0.1593  0.7471
  117CHL1   H2514910   6.588   8.608  12.264 -0.7998  0.8675 -0.7154
  117CHL1   C2614911   6.379   8.574  12.331  0.7728 -0.2080 -0.6288
  117CHL1  H26A14912   6.318   8.635  12.260 -0.1022  0.6998  0.8499
  117CHL1  H26B14913   6.384   8.470  12.293 -0.5311 -0.6547  0.3635
  117CHL1  H26C14914   6.319   8.585  12.423 -0.2732 -0.1217 -1.3074
  117CHL1   C2714915   6.511   8.784  12.360  0.7238  0.2127  0.5956
  117CHL1  H27A14916   6.609   8.837  12.356  0.2183  1.0807 -1.1199
  117CHL1  H27B14917   6.444   8.815  12.277  1.5022 -2.1187 -1.0364
  117CHL1  H27C14918   6.467   8.817  12.456  0.1047 -2.2027  1.2128
  118CHL1    C314919   0.297   2.769  13.265 -0.0784  0.4670  0.4722
  118CHL1    H314920   0.226   2.831  13.324  3.3071  0.4190  5.2538
  118CHL1    O314921   0.373   2.689  13.353  0.6139  0.2114 -0.2734
  118CHL1   H3'14922   0.454   2.739  13.365 -0.2150  2.6430 -3.3833
  118CHL1    C414923   0.212   2.667  13.185 -0.2382 -0.5321 -0.4007
  118CHL1   H4A14924   0.270   2.582  13.143  1.4503  0.1202  0.4853
  118CHL1   H4B14925   0.146   2.619  13.261  0.0625  1.0948  0.9667
  118CHL1    C514926   0.132   2.736  13.073 -0.2596 -0.3083 -1.0197
  118CHL1    C614927  -0.001   2.731  13.072 -0.1862  0.8218  0.1634
  118CHL1    H614928  -0.050   2.667  13.146  1.3511 -0.5244  0.0865
  118CHL1    C714929  -0.090   2.786  12.968  0.1140  0.7915  0.1714
  118CHL1   H7A14930  -0.164   2.716  12.922  1.2924 -0.1383 -0.3487
  118CHL1   H7B14931  -0.149   2.864  13.023 -1.1995 -0.6853  0.9408
  118CHL1    C814932  -0.012   2.848  12.851 -0.0481 -0.0841 -0.4118
  118CHL1    H814933   0.018   2.769  12.779  0.2798 -2.0878  1.8247
  118CHL1   C1414934  -0.096   2.953  12.780  0.7657 -0.3486 -0.0855
  118CHL1   H1414935  -0.109   3.035  12.854  2.4860 -0.2516  0.1510
  118CHL1   C1514936  -0.240   2.919  12.729  0.0674 -0.1012  0.0010
  118CHL1  H15A14937  -0.245   2.823  12.675  0.8714  0.3375 -0.8783
  118CHL1  H15B14938  -0.318   2.911  12.808 -0.6591 -0.5273 -0.7447
  118CHL1   C1614939  -0.270   3.036  12.634 -0.5821 -0.5128  0.5520
  118CHL1  H16A14940  -0.311   2.979  12.547 -0.0960 -0.0608  0.0251
  118CHL1  H16B14941  -0.354   3.104  12.662  0.2818  0.3540  1.0805
  118CHL1   C1714942  -0.140   3.113  12.618 -0.0952  0.7284 -0.2245
  118CHL1   H1714943  -0.144   3.187  12.702  2.7216 -2.2150  2.8282
  118CHL1   C1314944  -0.020   3.026  12.664 -0.3488  0.3575 -0.3604
  118CHL1   C1814945   0.016   2.920  12.548  0.2574 -0.2727 -0.2739
  118CHL1  H18A14946  -0.067   2.851  12.524  0.0099 -0.7935  1.9066
  118CHL1  H18B14947   0.051   2.975  12.457 -1.3117  0.6172 -0.3635
  118CHL1  H18C14948   0.105   2.859  12.573 -1.1209 -0.9646  3.5946
  118CHL1   C1214949   0.097   3.100  12.714 -0.1658 -0.4994  0.5787
  118CHL1  H12A14950   0.149   3.136  12.623 -2.5395 -0.6850 -0.9707
  118CHL1  H12B14951   0.078   3.185  12.782 -1.2210  1.5376 -2.0819
  118CHL1   C1114952   0.193   3.009  12.787  0.1142  0.0794 -0.7362
  118CHL1  H11A14953   0.240   2.948  12.707 -0.2994 -0.2814 -0.7101
  118CHL1  H11B14954   0.268   3.077  12.831 -0.2481  2.0217 -2.9074
  118CHL1    C914955   0.117   2.917  12.898 -0.6647 -0.6868 -0.9216
  118CHL1    H914956   0.079   2.995  12.967  1.4470 -0.6140  0.2624
  118CHL1   C1014957   0.214   2.831  12.987  0.5715  0.8849  0.3786
  118CHL1   C1914958   0.293   2.743  12.885  0.1616  0.2233  0.4670
  118CHL1  H19A14959   0.359   2.805  12.821  1.0105  2.2115  3.1116
  118CHL1  H19B14960   0.355   2.660  12.925 -0.4490 -1.6233 -2.1170
  118CHL1  H19C14961   0.213   2.688  12.829 -0.7870  0.4662  1.5503
  118CHL1    C114962   0.311   2.917  13.065  0.4709  0.3367  0.0012
  118CHL1   H1A14963   0.386   2.957  12.994  0.2019  0.8865  0.0226
  118CHL1   H1B14964   0.247   2.998  13.106  0.8239  0.7834 -0.3243
  118CHL1    C214965   0.386   2.847  13.173 -0.0864 -0.1341  0.0981
  118CHL1   H2A14966   0.448   2.911  13.240  0.3958 -3.4695  3.1268
  118CHL1   H2B14967   0.452   2.781  13.113 -2.5717 -1.4011 -1.4305
  118CHL1   C2014968  -0.127   3.184  12.481  0.5499  0.3367 -0.2330
  118CHL1   H2014969  -0.021   3.211  12.461  0.9952 -1.4580 -0.5170
  118CHL1   C2114970  -0.190   3.323  12.498  0.5760  0.3613 -0.1854
  118CHL1  H21A14971  -0.154   3.380  12.586  1.1243  0.8679 -0.7305
  118CHL1  H21B14972  -0.300   3.312  12.513  0.4985 -1.4098 -1.7052
  118CHL1  H21C14973  -0.163   3.380  12.406  0.7182 -1.8507 -1.5805
  118CHL1   C2214974  -0.187   3.112  12.354 -0.5816  0.3193 -0.3629
  118CHL1  H22A14975  -0.146   3.009  12.348  1.4887  1.1234 -0.9492
  118CHL1  H22B14976  -0.296   3.098  12.369 -0.5735  0.1517 -0.4542
  118CHL1   C2314977  -0.150   3.185  12.226 -0.0482 -0.3535 -0.2118
  118CHL1  H23A14978  -0.201   3.284  12.231  2.9753  1.4157 -1.4860
  118CHL1  H23B14979  -0.042   3.207  12.233 -0.0482 -0.8156  1.8970
  118CHL1   C2414980  -0.183   3.110  12.101 -1.0385  0.3932 -0.3588
  118CHL1  H24A14981  -0.100   3.035  12.109  0.6928  2.3904  1.9910
  118CHL1  H24B14982  -0.282   3.061  12.107 -1.9792  2.3320  0.8239
  118CHL1   C2514983  -0.177   3.194  11.979 -0.4107 -0.3335  0.3987
  118CHL1   H2514984  -0.074   3.221  11.947 -0.0653  0.0856  1.8177
  118CHL1   C2614985  -0.222   3.104  11.857  0.5876  0.8336  0.4522
  118CHL1  H26A14986  -0.325   3.066  11.876  0.8627 -0.2964 -0.2521
  118CHL1  H26B14987  -0.241   3.168  11.768  0.3881  1.2364  0.7775
  118CHL1  H26C14988  -0.144   3.026  11.849  0.3342  0.5212  0.9346
  118CHL1   C2714989  -0.258   3.326  11.981  0.5183 -0.0311 -0.0031
  118CHL1  H27A14990  -0.363   3.305  12.013  0.8671 -4.6544 -1.2135
  118CHL1  H27B14991  -0.215   3.409  12.042  2.7845 -0.4726 -0.9297
  118CHL1  H27C14992  -0.263   3.370  11.879 -0.4733  0.3340  0.1919
  119CHL1    C314993   0.505   1.807  13.614 -0.3415  0.0605 -0.2635
  119CHL1    H314994   0.516   1.917  13.619  1.3124 -0.1046  0.0971
  119CHL1    O314995   0.530   1.759  13.747 -0.2555 -0.2113 -0.4884
  119CHL1   H3'14996   0.572   1.832  13.791  0.1794 -1.7004  1.7161
  119CHL1    C414997   0.356   1.773  13.568 -0.1965 -0.1211 -0.2023
  119CHL1   H4A14998   0.350   1.663  13.577  1.1141 -0.2062 -0.2132
  119CHL1   H4B14999   0.277   1.813  13.636  0.1632 -1.1878  0.8843
  119CHL1    C515000   0.335   1.821  13.422  0.3237  0.5956  0.0135
  119CHL1    C615001   0.228   1.894  13.389 -0.4056 -0.5192  0.2840
  119CHL1    H615002   0.184   1.944  13.477  1.4989 -0.7456  1.4229
  119CHL1    C715003   0.175   1.928  13.245 -0.5425 -0.0724 -0.0369
  119CHL1   H7A15004   0.068   1.899  13.237 -0.1385 -2.0252  0.8445
  119CHL1   H7B15005   0.185   2.038  13.235  1.5354  0.0029  1.8650
  119CHL1    C815006   0.258   1.845  13.141 -0.2772  0.3373  0.4610
  119CHL1    H815007   0.209   1.745  13.139  2.9108 -1.3785 -1.7131
  119CHL1   C1415008   0.249   1.917  13.016 -0.3686  0.3482  0.2815
  119CHL1   H1415009   0.311   2.010  13.018  0.2538 -0.0285 -0.6690
  119CHL1   C1515010   0.107   1.959  12.970 -0.6937 -0.0193 -0.1387
  119CHL1  H15A15011   0.048   1.868  12.994  0.7118 -0.3646  2.3284
  119CHL1  H15B15012   0.065   2.044  13.027  0.2813 -0.4439  1.2585
  119CHL1   C1615013   0.125   1.984  12.824  0.3296 -0.1074  0.3639
  119CHL1  H16A15014   0.052   1.921  12.769  0.1910  0.3010  0.0763
  119CHL1  H16B15015   0.114   2.090  12.794 -0.7804 -0.1847  0.4579
  119CHL1   C1715016   0.266   1.940  12.783  0.4511  0.7756  0.0307
  119CHL1   H1715017   0.324   2.035  12.774 -0.8762  1.5809 -0.3410
  119CHL1   C1315018   0.308   1.844  12.893  0.2168 -0.4210 -0.4741
  119CHL1   C1815019   0.254   1.700  12.866 -0.6626  0.0556  0.0192
  119CHL1  H18A15020   0.146   1.711  12.843 -0.6475  0.1642 -0.0024
  119CHL1  H18B15021   0.302   1.658  12.775  0.4057  1.6829 -0.2109
  119CHL1  H18C15022   0.275   1.636  12.954 -0.0762  1.8971  1.2877
  119CHL1   C1215023   0.455   1.840  12.923  0.1536 -0.6440  0.2615
  119CHL1  H12A15024   0.499   1.779  12.840  2.1090  0.7024  0.2679
  119CHL1  H12B15025   0.498   1.942  12.926 -2.3350  0.5119 -0.1638
  119CHL1   C1115026   0.485   1.774  13.053 -0.4638  0.2891 -0.0027
  119CHL1  H11A15027   0.467   1.665  13.050  2.5557 -0.2975 -0.5159
  119CHL1  H11B15028   0.595   1.783  13.068 -0.4187 -0.1026 -0.0842
  119CHL1    C915029   0.407   1.835  13.177 -0.1875  0.2548  0.0138
  119CHL1    H915030   0.453   1.936  13.184  2.0148 -0.5485 -1.4970
  119CHL1   C1015031   0.429   1.762  13.313 -0.3772  0.9043  0.1315
  119CHL1   C1915032   0.406   1.606  13.295  0.3354  0.4973  0.4163
  119CHL1  H19A15033   0.315   1.581  13.237 -0.4178  0.1270  1.7159
  119CHL1  H19B15034   0.496   1.565  13.245  0.6350  1.0392  0.5039
  119CHL1  H19C15035   0.406   1.541  13.385  0.9981 -1.3873 -0.8949
  119CHL1    C115036   0.577   1.776  13.367 -0.1240 -0.3952  0.1428
  119CHL1   H1A15037   0.644   1.705  13.314  0.4202  0.2483 -0.0360
  119CHL1   H1B15038   0.608   1.877  13.334  1.7044 -1.4103 -1.4724
  119CHL1    C215039   0.609   1.742  13.515  0.2247 -0.4225  0.4791
  119CHL1   H2A15040   0.714   1.769  13.540  0.2156 -0.8073  0.9417
  119CHL1   H2B15041   0.605   1.633  13.534  1.1602 -0.4136  0.7737
  119CHL1   C2015042   0.276   1.901  12.630 -0.5792  0.7875 -0.5405
  119CHL1   H2015043   0.220   1.809  12.602 -0.4407  0.6773 -0.4610
  119CHL1   C2115044   0.424   1.880  12.586 -0.1628  0.0818  0.3655
  119CHL1  H21A15045   0.488   1.969  12.604 -0.4584  0.4174 -0.2269
  119CHL1  H21B15046   0.428   1.849  12.480 -1.4480 -0.7289  0.5396
  119CHL1  H21C15047   0.465   1.803  12.655  1.4116  1.1413  0.6606
  119CHL1   C2215048   0.209   2.000  12.535  0.3375 -0.0722 -0.3272
  119CHL1  H22A15049   0.206   1.955  12.433  2.6371  1.5342 -1.1820
  119CHL1  H22B15050   0.100   2.005  12.557  0.5342  2.3934  0.4422
  119CHL1   C2315051   0.250   2.148  12.537 -0.4959  0.6243  0.3709
  119CHL1  H23A15052   0.325   2.183  12.611  0.3173  2.4349 -1.2034
  119CHL1  H23B15053   0.314   2.172  12.449  1.6709  0.6314  1.8769
  119CHL1   C2415054   0.134   2.251  12.560 -0.0633  0.5933  0.1091
  119CHL1  H24A15055   0.065   2.243  12.473 -0.4015  0.7297  0.3632
  119CHL1  H24B15056   0.065   2.246  12.646 -0.4220 -0.1362 -0.2135
  119CHL1   C2515057   0.190   2.396  12.570  0.2246  0.2625  0.2567
  119CHL1   H2515058   0.259   2.410  12.484  0.6910  3.3745  0.9890
  119CHL1   C2615059   0.080   2.503  12.547 -0.0435  0.2080 -0.3252
  119CHL1  H26A15060   0.009   2.461  12.472  3.1097  0.1801 -3.5873
  119CHL1  H26B15061   0.035   2.528  12.645 -1.1627 -0.1700 -0.7201
  119CHL1  H26C15062   0.121   2.593  12.496  2.3616 -0.7880 -0.2690
  119CHL1   C2715063   0.267   2.419  12.704  0.4000 -0.3570 -0.1141
  119CHL1  H27A15064   0.197   2.414  12.790 -0.4862  2.4499 -0.5757
  119CHL1  H27B15065   0.349   2.348  12.726  0.9878  0.5915  0.8782
  119CHL1  H27C15066   0.307   2.523  12.709 -2.3680  0.7549  0.4948
  120CHL1    C315067   0.469   8.430  13.739  0.2301 -0.7297  0.0912
  120CHL1    H315068   0.375   8.376  13.763 -1.0804  1.9445  1.3555
  120CHL1    O315069   0.468   8.531  13.843 -0.9766 -0.2153 -0.1241
  120CHL1   H3'15070   0.559   8.563  13.843 -0.3211 -1.9308  0.4764
  120CHL1    C415071   0.590   8.328  13.753 -0.5802 -0.4243 -0.2096
  120CHL1   H4A15072   0.683   8.385  13.774  0.0044 -0.5574 -2.2494
  120CHL1   H4B15073   0.563   8.259  13.835 -1.7431 -0.5453 -0.6758
  120CHL1    C515074   0.608   8.242  13.632  0.0479 -0.3203 -0.1564
  120CHL1    C615075   0.624   8.106  13.641 -0.2938 -0.6787  0.1573
  120CHL1    H615076   0.621   8.061  13.741  1.5830  0.3505  0.7351
  120CHL1    C715077   0.663   8.012  13.530 -0.3523  0.2460 -0.7065
  120CHL1   H7A15078   0.743   7.941  13.559 -2.1979 -1.5895  0.0980
  120CHL1   H7B15079   0.574   7.952  13.503 -0.7465  0.1221  0.7947
  120CHL1    C815080   0.715   8.090  13.407 -0.4136 -0.0422 -0.7794
  120CHL1    H815081   0.815   8.134  13.428 -0.2902  0.2197 -1.8341
  120CHL1   C1415082   0.713   7.994  13.294  0.0301 -0.0282  0.5846
  120CHL1   H1415083   0.609   7.955  13.296  0.2856 -0.7397  1.8429
  120CHL1   C1515084   0.797   7.865  13.311  0.1530  0.0878  0.2741
  120CHL1  H15A15085   0.894   7.885  13.362  1.3198 -0.0689 -1.8025
  120CHL1  H15B15086   0.748   7.780  13.364  1.4693 -0.8593  0.0175
  120CHL1   C1615087   0.812   7.819  13.159 -0.0334  0.2168 -0.8540
  120CHL1  H16A15088   0.923   7.813  13.147 -0.0332  0.2887 -0.8938
  120CHL1  H16B15089   0.770   7.718  13.141 -0.9705  0.4198  0.0779
  120CHL1   C1715090   0.749   7.928  13.070  0.2004 -0.2548  0.8764
  120CHL1   H1715091   0.641   7.906  13.063  0.0566  0.7380 -0.6014
  120CHL1   C1315092   0.756   8.052  13.160  0.0462 -0.1752  0.4370
  120CHL1   C1815093   0.899   8.108  13.166 -0.6683  0.4291 -1.0850
  120CHL1  H18A15094   0.902   8.189  13.241 -0.2446 -2.5363  2.3807
  120CHL1  H18B15095   0.958   8.021  13.201 -0.8776  0.4938 -0.5665
  120CHL1  H18C15096   0.939   8.150  13.071  1.3559 -0.9745 -0.9039
  120CHL1   C1215097   0.660   8.167  13.126 -0.3267 -0.4736 -0.1020
  120CHL1  H12A15098   0.684   8.219  13.031 -0.8608  1.3066  0.6981
  120CHL1  H12B15099   0.559   8.124  13.110 -0.8542  0.1886  1.2851
  120CHL1   C1115100   0.643   8.275  13.242  0.3972 -0.3726 -0.5941
  120CHL1  H11A15101   0.733   8.339  13.255 -0.8343  1.2603  0.3416
  120CHL1  H11B15102   0.558   8.343  13.224  1.0188  0.8681  0.8993
  120CHL1    C915103   0.613   8.203  13.377 -0.2172  0.0063  0.2032
  120CHL1    H915104   0.514   8.153  13.376  0.1049 -0.6482 -0.7569
  120CHL1   C1015105   0.607   8.307  13.493 -0.0831  0.7619 -0.7174
  120CHL1   C1915106   0.729   8.403  13.493  0.4742 -0.6305  1.1016
  120CHL1  H19A15107   0.721   8.478  13.412 -1.6910 -2.0242 -0.0817
  120CHL1  H19B15108   0.732   8.461  13.588 -0.5187 -0.3464  0.9680
  120CHL1  H19C15109   0.823   8.343  13.489  0.9575 -0.0801  3.1081
  120CHL1    C115110   0.472   8.383  13.497 -0.6133  0.3101  0.3023
  120CHL1   H1A15111   0.459   8.434  13.399 -0.7605 -0.3675 -0.0396
  120CHL1   H1B15112   0.393   8.305  13.498 -1.5787  1.2578 -0.1005
  120CHL1    C215113   0.470   8.489  13.601  0.6740 -0.6100 -0.0481
  120CHL1   H2A15114   0.376   8.546  13.587  1.9749  2.8462  3.4921
  120CHL1   H2B15115   0.549   8.562  13.575 -2.1282  2.2711 -1.1837
  120CHL1   C2015116   0.796   7.952  12.932 -0.5371 -0.0400 -0.3030
  120CHL1   H2015117   0.843   8.053  12.926  0.3389 -0.4030  0.3302
  120CHL1   C2115118   0.678   7.950  12.836  0.4998 -0.7040  0.1812
  120CHL1  H21A15119   0.634   7.848  12.841  1.5335 -1.2614 -1.3393
  120CHL1  H21B15120   0.712   7.997  12.742  2.4168 -0.9380  0.7086
  120CHL1  H21C15121   0.595   8.014  12.872  0.2656 -1.1097  0.3725
  120CHL1   C2215122   0.901   7.852  12.888 -0.4116  0.5113  0.0918
  120CHL1  H22A15123   0.981   7.860  12.964  2.0322 -0.9190 -2.1649
  120CHL1  H22B15124   0.856   7.750  12.879  3.1995 -1.0749 -2.0034
  120CHL1   C2315125   0.968   7.883  12.754 -0.0848  0.3556 -0.1983
  120CHL1  H23A15126   0.892   7.909  12.677 -0.0168  1.4889  0.0954
  120CHL1  H23B15127   1.026   7.978  12.762 -0.0214  0.3034 -0.0148
  120CHL1   C2415128   1.066   7.782  12.693 -0.3628  0.2913 -0.3950
  120CHL1  H24A15129   1.142   7.757  12.770 -0.6086  0.1658 -0.1913
  120CHL1  H24B15130   1.009   7.690  12.667 -1.9933  1.0773  0.2365
  120CHL1   C2515131   1.135   7.815  12.557 -0.1608 -0.5614 -0.7186
  120CHL1   H2515132   1.203   7.730  12.533 -0.0276 -0.7529  0.2947
  120CHL1   C2615133   1.040   7.805  12.442 -0.5028 -0.5740 -0.2010
  120CHL1  H26A15134   1.001   7.701  12.434  0.1579 -1.1698  3.0402
  120CHL1  H26B15135   0.954   7.870  12.468  0.6597  0.6555  0.6695
  120CHL1  H26C15136   1.086   7.838  12.346  1.3307 -1.0658  0.4694
  120CHL1   C2715137   1.210   7.958  12.569 -0.0440 -0.2506 -0.6588
  120CHL1  H27A15138   1.136   8.041  12.563 -0.9118 -1.0884 -2.8997
  120CHL1  H27B15139   1.277   7.959  12.657 -2.0678  1.4283  0.9527
  120CHL1  H27C15140   1.271   7.976  12.478  2.2548 -1.0200  0.6651
  121CHL1    C315141   4.482   4.758  11.029  0.6472 -0.3635  0.1548
  121CHL1    H315142   4.529   4.858  11.022  1.5039 -0.8391 -1.8167
  121CHL1    O315143   4.401   4.732  10.911  0.2528 -0.3139 -0.1942
  121CHL1   H3'15144   4.310   4.757  10.929  0.6655  0.3628  1.0325
  121CHL1    C415145   4.590   4.658  11.036 -0.3465  0.8512  0.5054
  121CHL1   H4A15146   4.544   4.557  11.039 -1.8434  1.4156 -1.3882
  121CHL1   H4B15147   4.654   4.685  10.949 -0.0144  2.3766  1.1914
  121CHL1    C515148   4.673   4.679  11.161  0.3052 -0.3285  0.5542
  121CHL1    C615149   4.805   4.695  11.145 -0.3640 -0.1461  0.2453
  121CHL1    H615150   4.860   4.695  11.050  0.5148  0.7210  0.7418
  121CHL1    C715151   4.899   4.715  11.261 -0.2100  0.2951  0.2673
  121CHL1   H7A15152   4.984   4.646  11.247 -1.9127 -2.1620  1.3149
  121CHL1   H7B15153   4.935   4.820  11.265  2.5209 -0.5982  1.1372
  121CHL1    C815154   4.835   4.699  11.400 -0.0581  0.0323 -0.0667
  121CHL1    H815155   4.830   4.592  11.430  1.0579  0.4987  1.9225
  121CHL1   C1415156   4.918   4.754  11.511 -0.4475  0.2805 -0.5386
  121CHL1   H1415157   4.936   4.862  11.491  0.2013  0.2330 -0.2275
  121CHL1   C1515158   5.059   4.699  11.523  0.3960  0.3242 -0.1045
  121CHL1  H15A15159   5.061   4.588  11.520  0.9986  0.3459 -0.7576
  121CHL1  H15B15160   5.122   4.730  11.437 -1.3048  0.5516 -1.3287
  121CHL1   C1615161   5.110   4.757  11.655 -0.4529  1.1713 -0.4488
  121CHL1  H16A15162   5.158   4.674  11.711 -2.7279  0.1515  0.1313
  121CHL1  H16B15163   5.188   4.836  11.655 -0.1777  0.9576  1.5825
  121CHL1   C1715164   4.980   4.803  11.733 -0.1328 -0.6768 -0.0821
  121CHL1   H1715165   4.982   4.913  11.715 -1.7630 -0.9952 -2.7058
  121CHL1   C1315166   4.861   4.751  11.652  0.3781 -0.0796 -0.5215
  121CHL1   C1815167   4.831   4.613  11.701  0.7652  0.7517 -0.1733
  121CHL1  H18A15168   4.802   4.607  11.808 -0.0656  0.4781 -0.4042
  121CHL1  H18B15169   4.745   4.572  11.644 -0.4684  1.4324  1.1477
  121CHL1  H18C15170   4.916   4.542  11.694  0.9279  0.6577  2.0310
  121CHL1   C1215171   4.723   4.828  11.647  0.1068  0.1592  0.2097
  121CHL1  H12A15172   4.673   4.811  11.744  0.9373 -1.9131  0.3224
  121CHL1  H12B15173   4.755   4.934  11.636 -0.1359  0.3434  1.2383
  121CHL1   C1115174   4.622   4.774  11.541 -0.4609 -0.0449 -0.0401
  121CHL1  H11A15175   4.582   4.675  11.573  0.2062 -0.8191 -1.5062
  121CHL1  H11B15176   4.540   4.847  11.529 -0.8736 -0.3835  0.6414
  121CHL1    C915177   4.689   4.758  11.400  0.2208  0.6791 -0.3679
  121CHL1    H915178   4.701   4.858  11.352  0.3849  0.6466 -0.3946
  121CHL1   C1015179   4.600   4.685  11.295  0.0271 -0.6891 -0.2043
  121CHL1   C1915180   4.569   4.536  11.346  0.4344 -0.0085 -0.0978
  121CHL1  H19A15181   4.495   4.498  11.273  1.1723  1.4657 -1.6982
  121CHL1  H19B15182   4.659   4.472  11.341  1.3998  1.3073 -0.2191
  121CHL1  H19C15183   4.534   4.523  11.450  0.5847 -1.3316 -0.2022
  121CHL1    C115184   4.471   4.772  11.279 -0.3244 -0.3751 -0.5776
  121CHL1   H1A15185   4.403   4.766  11.366  0.4514 -2.6593 -0.0669
  121CHL1   H1B15186   4.489   4.882  11.276 -0.7609 -0.2717  0.4727
  121CHL1    C215187   4.390   4.749  11.157 -0.7623 -0.7435  0.5826
  121CHL1   H2A15188   4.304   4.817  11.137  1.5237  2.2032  0.2110
  121CHL1   H2B15189   4.356   4.643  11.162  0.4102 -1.2296 -0.8630
  121CHL1   C2015190   4.979   4.786  11.888  0.2715  0.5465  0.0480
  121CHL1   H2015191   4.977   4.677  11.906  0.7890  0.5664  0.2250
  121CHL1   C2115192   4.851   4.852  11.945 -0.1781 -0.2907  0.0314
  121CHL1  H21A15193   4.839   4.947  11.888 -1.4039 -1.6962 -2.2000
  121CHL1  H21B15194   4.870   4.856  12.054 -0.1540 -1.7925  0.1111
  121CHL1  H21C15195   4.766   4.782  11.931 -1.1662  0.5463  1.6437
  121CHL1   C2215196   5.114   4.845  11.944  0.5250 -0.1372  0.1699
  121CHL1  H22A15197   5.195   4.791  11.891 -1.7266 -2.4786 -1.1518
  121CHL1  H22B15198   5.117   4.955  11.936 -1.9166 -0.0413 -0.1587
  121CHL1   C2315199   5.130   4.800  12.090 -0.1094  0.0103  0.0558
  121CHL1  H23A15200   5.054   4.841  12.160  0.5854  0.2148  0.7078
  121CHL1  H23B15201   5.133   4.689  12.083 -1.9015 -0.1231  0.8383
  121CHL1   C2415202   5.263   4.841  12.152  0.2864  0.2770  0.5150
  121CHL1  H24A15203   5.342   4.815  12.078 -1.9506 -0.4845 -1.7361
  121CHL1  H24B15204   5.275   4.950  12.163  0.5187  0.2153  0.9194
  121CHL1   C2515205   5.294   4.777  12.291  0.3221 -0.2113  0.2280
  121CHL1   H2515206   5.199   4.798  12.346 -1.4339  0.0876 -2.7096
  121CHL1   C2615207   5.319   4.627  12.278 -0.0989 -0.6602 -0.3140
  121CHL1  H26A15208   5.404   4.598  12.212  1.0960  0.3264  0.7384
  121CHL1  H26B15209   5.343   4.578  12.374 -1.2155 -0.6206 -0.0038
  121CHL1  H26C15210   5.225   4.581  12.239 -1.0676  0.7132  0.3058
  121CHL1   C2715211   5.412   4.839  12.366 -0.1990  0.3128 -0.3043
  121CHL1  H27A15212   5.509   4.821  12.316 -0.5343 -1.9572 -0.2619
  121CHL1  H27B15213   5.397   4.946  12.394 -0.4850 -0.0721  1.1064
  121CHL1  H27C15214   5.419   4.786  12.463  2.8647  2.7367  0.9380
  122CHL1    C315215   3.191   4.549  11.246 -0.4205  0.2469  0.0491
  122CHL1    H315216   3.222   4.445  11.222 -3.5712 -0.4283 -1.6839
  122CHL1    O315217   3.158   4.613  11.124  0.1893  0.2412  0.4729
  122CHL1   H3'15218   3.240   4.632  11.078  0.1314 -0.5177  0.0379
  122CHL1    C415219   3.082   4.552  11.360 -0.2269  0.3991  0.0470
  122CHL1   H4A15220   3.033   4.652  11.357 -0.1334  0.4267 -1.0232
  122CHL1   H4B15221   3.008   4.477  11.324 -0.6319 -0.1094  1.8296
  122CHL1    C515222   3.149   4.507  11.493  0.4464 -0.1951 -0.3262
  122CHL1    C615223   3.103   4.402  11.555  0.2379 -0.3535  0.0551
  122CHL1    H615224   3.011   4.360  11.510 -2.6048  3.1325  2.0707
  122CHL1    C715225   3.153   4.351  11.684 -0.3161 -0.4175  0.3803
  122CHL1   H7A15226   3.070   4.309  11.745 -3.0557 -1.3999 -3.5537
  122CHL1   H7B15227   3.222   4.270  11.653 -1.5414 -0.7831 -1.6064
  122CHL1    C815228   3.236   4.460  11.760  0.1791  0.2801 -0.5246
  122CHL1    H815229   3.164   4.536  11.799  1.9153  1.8692 -0.2465
  122CHL1   C1415230   3.310   4.407  11.878  0.3642 -0.1513  0.1264
  122CHL1   H1415231   3.373   4.328  11.831 -2.3161 -0.0749 -4.1016
  122CHL1   C1515232   3.228   4.341  11.993  0.7942 -0.7411  0.9890
  122CHL1  H15A15233   3.137   4.404  11.998 -0.2731 -2.0689 -0.5885
  122CHL1  H15B15234   3.202   4.239  11.958 -0.1307 -0.4530  0.8114
  122CHL1   C1615235   3.318   4.352  12.118  0.2413 -0.1456 -0.0078
  122CHL1  H16A15236   3.277   4.420  12.195  0.1134  1.5957 -1.5639
  122CHL1  H16B15237   3.348   4.253  12.158 -2.7171 -0.5173  1.5946
  122CHL1   C1715238   3.442   4.433  12.071  0.4238 -0.2102  0.6589
  122CHL1   H1715239   3.507   4.359  12.019 -0.8903 -1.8494  1.2368
  122CHL1   C1315240   3.401   4.512  11.946 -0.0347 -0.5858 -0.6248
  122CHL1   C1815241   3.310   4.640  11.988 -0.3065 -0.2399  0.2790
  122CHL1  H18A15242   3.279   4.700  11.900 -0.0253 -1.4016 -0.6352
  122CHL1  H18B15243   3.217   4.612  12.041 -0.4821 -1.9072 -0.8206
  122CHL1  H18C15244   3.366   4.708  12.057 -1.2433 -1.0731  1.9252
  122CHL1   C1215245   3.517   4.549  11.849  0.2046 -0.3636  0.2985
  122CHL1  H12A15246   3.575   4.629  11.900  0.7036 -2.9960  4.3222
  122CHL1  H12B15247   3.582   4.462  11.828  1.0780  0.5918 -1.0213
  122CHL1   C1115248   3.457   4.604  11.715 -0.0770  0.4442  0.7666
  122CHL1  H11A15249   3.418   4.707  11.730 -0.4945  0.2528  1.0468
  122CHL1  H11B15250   3.539   4.606  11.640  1.7946  2.4047  2.7277
  122CHL1    C915251   3.333   4.522  11.666  0.3019 -0.4341  0.0070
  122CHL1    H915252   3.383   4.426  11.638 -1.2042 -1.5568  1.0018
  122CHL1   C1015253   3.267   4.584  11.540 -0.5045  0.3404  0.0690
  122CHL1   C1915254   3.227   4.733  11.576  0.2547  0.3200 -0.3151
  122CHL1  H19A15255   3.145   4.763  11.508 -0.8435 -0.9978  0.3739
  122CHL1  H19B15256   3.184   4.727  11.679  2.0610  3.3612  0.7410
  122CHL1  H19C15257   3.311   4.805  11.569  0.9776 -0.1736  2.2730
  122CHL1    C115258   3.367   4.584  11.424 -0.1278  0.6017  0.4195
  122CHL1   H1A15259   3.456   4.649  11.436 -0.5800  1.6476 -1.3309
  122CHL1   H1B15260   3.395   4.478  11.410  1.5836  0.9354  1.0725
  122CHL1    C215261   3.311   4.629  11.285 -0.2907 -0.0185 -0.0102
  122CHL1   H2A15262   3.398   4.627  11.216  0.7888  3.9512  1.0119
  122CHL1   H2B15263   3.290   4.737  11.297 -1.0975 -0.2456  0.7145
  122CHL1   C2015264   3.513   4.504  12.191  0.5768  0.6852  0.5525
  122CHL1   H2015265   3.449   4.583  12.235 -1.1347 -1.2923  1.7986
  122CHL1   C2115266   3.642   4.571  12.156  0.0269 -0.6424 -0.3077
  122CHL1  H21A15267   3.694   4.510  12.079  1.3656 -1.6996  1.3531
  122CHL1  H21B15268   3.711   4.581  12.242  0.3393 -0.5591 -0.5679
  122CHL1  H21C15269   3.617   4.674  12.124  2.2605 -0.3894 -1.3718
  122CHL1   C2215270   3.543   4.412  12.306  0.5129  0.7044 -0.0840
  122CHL1  H22A15271   3.607   4.468  12.377  1.0625  0.4687 -0.3824
  122CHL1  H22B15272   3.452   4.373  12.356  0.3590  2.5807  1.1857
  122CHL1   C2315273   3.636   4.290  12.260  0.6626  0.0136 -0.0765
  122CHL1  H23A15274   3.583   4.234  12.180 -0.9862 -0.6306  1.3850
  122CHL1  H23B15275   3.735   4.311  12.215  1.3050 -0.2650  1.1609
  122CHL1   C2415276   3.657   4.188  12.372 -0.2990  0.0252 -0.3869
  122CHL1  H24A15277   3.557   4.146  12.398 -0.8737  1.5939  0.1019
  122CHL1  H24B15278   3.719   4.105  12.331 -2.6061 -2.4083  0.7265
  122CHL1   C2515279   3.723   4.247  12.496  0.2298  0.5598 -0.0014
  122CHL1   H2515280   3.661   4.321  12.551  3.8636  2.6153  1.6952
  122CHL1   C2615281   3.744   4.133  12.602  0.2276  0.0715  0.6819
  122CHL1  H26A15282   3.752   4.178  12.703  1.2853  0.2344  0.5397
  122CHL1  H26B15283   3.656   4.065  12.605  0.1149  0.2218  0.7512
  122CHL1  H26C15284   3.834   4.078  12.565 -0.6024 -0.6840 -0.2923
  122CHL1   C2715285   3.864   4.311  12.464 -0.3284 -0.2849  0.5281
  122CHL1  H27A15286   3.920   4.332  12.558  1.3499  0.2455 -0.5452
  122CHL1  H27B15287   3.920   4.239  12.401 -1.6021  1.0161 -2.2588
  122CHL1  H27C15288   3.859   4.406  12.407  1.0692 -0.9457 -0.7557
  123CHL1    C315289   4.653   4.199  11.048 -0.2682 -0.8212  0.0927
  123CHL1    H315290   4.617   4.302  11.069 -0.8737 -0.6930 -1.5276
  123CHL1    O315291   4.655   4.190  10.907 -0.3681  0.4985 -0.1482
  123CHL1   H3'15292   4.688   4.101  10.894 -0.3296  0.6060 -0.7988
  123CHL1    C415293   4.793   4.200  11.109 -0.0089 -0.1934  0.1154
  123CHL1   H4A15294   4.845   4.111  11.067 -1.0360 -0.2997 -0.9644
  123CHL1   H4B15295   4.842   4.296  11.081 -0.2660  0.3867  1.5326
  123CHL1    C515296   4.789   4.191  11.257  0.0044 -0.0296 -0.2821
  123CHL1    C615297   4.856   4.273  11.337 -0.4782 -0.6851 -0.0920
  123CHL1    H615298   4.926   4.349  11.299 -0.9634 -0.3651 -0.3565
  123CHL1    C715299   4.854   4.260  11.486 -0.2513  0.5198 -0.5267
  123CHL1   H7A15300   4.962   4.270  11.510 -0.4450  1.6887 -0.0610
  123CHL1   H7B15301   4.803   4.349  11.529 -1.0933  0.4431 -1.3315
  123CHL1    C815302   4.811   4.119  11.547 -0.1776 -0.6174  0.4047
  123CHL1    H815303   4.887   4.043  11.520 -1.3362 -2.1522  1.2490
  123CHL1   C1415304   4.790   4.134  11.694 -0.2025 -0.0302  0.2627
  123CHL1   H1415305   4.720   4.220  11.702  1.1602  1.2047 -0.5611
  123CHL1   C1515306   4.898   4.190  11.783  0.3209  0.3457 -0.2632
  123CHL1  H15A15307   4.998   4.141  11.777 -0.0661 -0.5832  0.6156
  123CHL1  H15B15308   4.905   4.297  11.753  0.0118  0.7213  0.9405
  123CHL1   C1615309   4.840   4.174  11.926  0.1042 -0.6294 -0.0302
  123CHL1  H16A15310   4.924   4.143  11.992  1.4468 -0.5344 -1.6279
  123CHL1  H16B15311   4.801   4.273  11.957  2.1544  0.7658 -1.6830
  123CHL1   C1715312   4.725   4.069  11.912  0.2519  0.2806 -0.0339
  123CHL1   H1715313   4.630   4.127  11.903  1.2049  1.9060 -0.0890
  123CHL1   C1315314   4.729   4.011  11.765 -0.2067  0.4925  0.7953
  123CHL1   C1815315   4.832   3.890  11.755  0.3838 -0.8401  0.1159
  123CHL1  H18A15316   4.855   3.877  11.647  1.1462  2.4203 -0.2243
  123CHL1  H18B15317   4.928   3.925  11.799  0.9027  0.6020 -2.0205
  123CHL1  H18C15318   4.787   3.799  11.799  1.7448 -1.8305 -0.4681
  123CHL1   C1215319   4.597   3.975  11.695  0.5583  0.2597  0.2338
  123CHL1  H12A15320   4.565   3.877  11.737 -1.9278  0.8560 -0.1207
  123CHL1  H12B15321   4.519   4.052  11.713 -0.6982 -0.9044 -0.0076
  123CHL1   C1115322   4.623   3.953  11.546  0.0773  0.2547  0.6474
  123CHL1  H11A15323   4.683   3.859  11.543 -0.4250 -0.0609 -0.8193
  123CHL1  H11B15324   4.525   3.923  11.504 -1.4172  2.8055  2.0742
  123CHL1    C915325   4.684   4.078  11.474 -0.7005  1.0956 -0.1665
  123CHL1    H915326   4.606   4.156  11.491 -0.6342  1.6952 -2.2480
  123CHL1   C1015327   4.696   4.076  11.319 -0.0348 -0.0516  0.3980
  123CHL1   C1915328   4.757   3.943  11.286 -0.3771  0.0489  0.2929
  123CHL1  H19A15329   4.685   3.862  11.309 -0.8930 -0.0678 -1.5819
  123CHL1  H19B15330   4.768   3.929  11.177 -1.3451  0.4432  0.1390
  123CHL1  H19C15331   4.855   3.922  11.336 -0.3774  0.8733  0.6498
  123CHL1    C115332   4.558   4.092  11.259 -0.0573  0.0737  0.0560
  123CHL1   H1A15333   4.487   4.012  11.289  0.4562  0.4620  2.5613
  123CHL1   H1B15334   4.523   4.191  11.295 -0.3831 -0.0032 -0.0496
  123CHL1    C215335   4.545   4.103  11.106 -0.0782  0.3848  0.3306
  123CHL1   H2A15336   4.442   4.135  11.081  0.2122 -0.4883 -2.2183
  123CHL1   H2B15337   4.568   4.007  11.056 -2.8442  1.1405 -2.7483
  123CHL1   C2015338   4.710   3.970  12.027 -0.3407 -0.0731 -0.1921
  123CHL1   H2015339   4.805   3.913  12.027 -0.0216  0.4197  1.4718
  123CHL1   C2115340   4.590   3.880  12.001 -0.2481 -0.0514 -0.8021
  123CHL1  H21A15341   4.576   3.811  12.086 -2.3516 -0.0656 -1.0881
  123CHL1  H21B15342   4.606   3.814  11.913  2.7202 -0.3972 -0.0945
  123CHL1  H21C15343   4.493   3.935  11.991 -0.1214  0.4574  0.5669
  123CHL1   C2215344   4.698   4.038  12.165  0.6609  0.0518  0.1052
  123CHL1  H22A15345   4.771   4.121  12.163  0.7464  0.0800  2.0440
  123CHL1  H22B15346   4.595   4.081  12.166 -0.3194 -2.0092 -1.9003
  123CHL1   C2315347   4.730   3.950  12.290  0.7192  0.0717  0.3293
  123CHL1  H23A15348   4.677   3.852  12.288  0.2757  0.3162 -0.3633
  123CHL1  H23B15349   4.838   3.924  12.288  0.6058 -0.4214  0.5353
  123CHL1   C2415350   4.690   4.029  12.415 -0.2449  0.6564 -0.1518
  123CHL1  H24A15351   4.749   4.123  12.416 -0.3192  0.7099  1.7065
  123CHL1  H24B15352   4.589   4.073  12.426  0.7071  2.9316  0.0090
  123CHL1   C2515353   4.727   3.962  12.549 -0.2817  0.2691 -0.1934
  123CHL1   H2515354   4.709   4.038  12.629  0.9229 -0.0875  0.4449
  123CHL1   C2615355   4.643   3.839  12.579 -0.3213  0.0230 -0.3142
  123CHL1  H26A15356   4.543   3.878  12.609  0.1673  0.5698  0.6463
  123CHL1  H26B15357   4.630   3.761  12.501 -1.3084 -0.2381  0.0920
  123CHL1  H26C15358   4.678   3.792  12.674  0.4417 -0.5075 -0.8410
  123CHL1   C2715359   4.874   3.923  12.560  0.2513  0.1209  0.3129
  123CHL1  H27A15360   4.911   3.847  12.488  0.4581  0.7631 -0.2656
  123CHL1  H27B15361   4.934   4.015  12.544  1.7757 -1.2666 -2.9210
  123CHL1  H27C15362   4.901   3.881  12.659  0.0444  0.6918  0.6165
  124CHL1    C315363   3.285   5.772  11.120 -0.1807  0.3771  0.3731
  124CHL1    H315364   3.291   5.872  11.168  0.0745  0.3806  0.3351
  124CHL1    O315365   3.234   5.785  10.990  0.2775  0.1499 -0.4985
  124CHL1   H3'15366   3.260   5.707  10.941 -3.3298  0.3615 -3.2324
  124CHL1    C415367   3.428   5.706  11.122  0.2429  1.0575 -0.3983
  124CHL1   H4A15368   3.418   5.617  11.056 -0.9235  0.4672  0.5371
  124CHL1   H4B15369   3.495   5.779  11.071  0.5038 -1.1180 -3.4582
  124CHL1    C515370   3.466   5.661  11.261  0.3473 -1.0225 -0.7686
  124CHL1    C615371   3.593   5.685  11.291  0.1601  0.2105 -0.3066
  124CHL1    H615372   3.660   5.724  11.212  2.5341  2.5770  2.6187
  124CHL1    C715373   3.658   5.651  11.424  0.8061 -0.2561  0.1589
  124CHL1   H7A15374   3.746   5.587  11.396  1.3492  1.3407 -2.1269
  124CHL1   H7B15375   3.699   5.741  11.474  1.5527 -0.7395  0.4506
  124CHL1    C815376   3.563   5.575  11.517  0.0669 -0.2063 -0.6324
  124CHL1    H815377   3.574   5.468  11.491  0.6161 -0.4453  0.5203
  124CHL1   C1415378   3.613   5.596  11.662  0.0272  0.5989  0.0763
  124CHL1   H1415379   3.599   5.702  11.689 -0.5296  0.6070 -0.2243
  124CHL1   C1515380   3.765   5.570  11.690  0.1213 -0.2022  0.1394
  124CHL1  H15A15381   3.799   5.483  11.629  3.1386  0.3589  0.8221
  124CHL1  H15B15382   3.828   5.656  11.659 -0.5534  0.0378 -0.5710
  124CHL1   C1615383   3.769   5.549  11.839 -0.3654 -0.3112  0.4160
  124CHL1  H16A15384   3.823   5.455  11.866 -1.3742 -0.2408  2.9859
  124CHL1  H16B15385   3.820   5.636  11.885 -0.1655 -0.3875  0.3405
  124CHL1   C1715386   3.623   5.556  11.888 -0.1558  0.2409  0.2184
  124CHL1   H1715387   3.602   5.663  11.909  1.1617  0.3445  1.1286
  124CHL1   C1315388   3.536   5.526  11.772 -0.5612  0.1961  0.1972
  124CHL1   C1815389   3.544   5.373  11.753  0.2867 -0.8171 -0.3216
  124CHL1  H18A15390   3.467   5.332  11.821 -0.7120  1.0099 -0.2875
  124CHL1  H18B15391   3.512   5.343  11.651 -2.5385  0.4592  0.0765
  124CHL1  H18C15392   3.635   5.321  11.788  0.7154  1.0812  1.6372
  124CHL1   C1215393   3.394   5.576  11.765 -0.2552  0.0603  0.1381
  124CHL1  H12A15394   3.334   5.515  11.835  0.7012  0.1185  1.0440
  124CHL1  H12B15395   3.390   5.681  11.800  0.6015  0.2672 -0.3521
  124CHL1   C1115396   3.337   5.560  11.624  0.3995 -0.1070 -0.2547
  124CHL1  H11A15397   3.326   5.452  11.599  0.3329 -0.3975  0.9751
  124CHL1  H11B15398   3.231   5.593  11.623 -0.0288 -1.0244  3.0286
  124CHL1    C915399   3.421   5.617  11.505  0.4925 -0.5488 -0.0365
  124CHL1    H915400   3.422   5.728  11.515  0.5576 -0.4340 -1.1275
  124CHL1   C1015401   3.368   5.599  11.364  0.1976 -0.1297 -0.1061
  124CHL1   C1915402   3.348   5.449  11.339  0.2322 -0.8764  0.2029
  124CHL1  H19A15403   3.356   5.421  11.231 -0.8254 -0.3195 -0.0323
  124CHL1  H19B15404   3.433   5.390  11.379  0.4992  0.2854  1.3997
  124CHL1  H19C15405   3.254   5.410  11.384 -0.4194  1.2818  0.8128
  124CHL1    C115406   3.238   5.679  11.351  0.1981  0.1808 -0.7767
  124CHL1   H1A15407   3.166   5.628  11.418  0.7928  2.9973  2.2489
  124CHL1   H1B15408   3.247   5.780  11.396  0.0003  1.1443 -2.7887
  124CHL1    C215409   3.177   5.691  11.206 -0.1160  0.3649  0.5500
  124CHL1   H2A15410   3.081   5.748  11.207 -0.4826 -0.1473 -1.3866
  124CHL1   H2B15411   3.162   5.585  11.176  1.0587 -0.0133  1.2733
  124CHL1   C2015412   3.603   5.487  12.031 -0.3001  0.3843  0.0547
  124CHL1   H2015413   3.584   5.379  12.017 -0.2482  0.2993  0.6399
  124CHL1   C2115414   3.470   5.539  12.089  0.4552 -0.1384  0.1404
  124CHL1  H21A15415   3.470   5.650  12.088 -0.1499 -0.1353 -1.0649
  124CHL1  H21B15416   3.457   5.506  12.194  0.2770 -0.4790  0.0126
  124CHL1  H21C15417   3.383   5.501  12.031  0.6109 -2.2061  1.1678
  124CHL1   C2215418   3.721   5.509  12.131  0.4174 -0.5100 -0.4631
  124CHL1  H22A15419   3.820   5.496  12.082  1.2702  0.4818  0.8961
  124CHL1  H22B15420   3.725   5.618  12.153 -0.1622 -0.7882  1.1664
  124CHL1   C2315421   3.705   5.443  12.264  0.4416  0.8147 -0.4039
  124CHL1  H23A15422   3.607   5.469  12.308  0.3387 -0.0516 -0.1036
  124CHL1  H23B15423   3.684   5.340  12.227 -0.0180  0.5268  0.6278
  124CHL1   C2415424   3.819   5.454  12.363 -0.0332  0.1473  0.2022
  124CHL1  H24A15425   3.914   5.412  12.324 -0.6463 -1.0112 -0.0923
  124CHL1  H24B15426   3.845   5.561  12.378  0.7001  0.2911 -1.8512
  124CHL1   C2515427   3.776   5.387  12.497 -0.4156 -0.4639  0.0410
  124CHL1   H2515428   3.693   5.447  12.540  0.0726  0.2247  0.0298
  124CHL1   C2615429   3.737   5.243  12.484 -0.3761 -0.0135  0.1083
  124CHL1  H26A15430   3.722   5.195  12.583 -0.1510  0.9706  0.6374
  124CHL1  H26B15431   3.635   5.246  12.440 -0.0234  0.0748 -0.7196
  124CHL1  H26C15432   3.818   5.199  12.422  0.4248  2.7633 -0.9939
  124CHL1   C2715433   3.890   5.412  12.599  0.2927  0.7380  0.6225
  124CHL1  H27A15434   3.875   5.363  12.698  0.6027  0.8877  0.7438
  124CHL1  H27B15435   3.981   5.375  12.547  0.8858  1.0720  1.4066
  124CHL1  H27C15436   3.908   5.522  12.601  0.7355  0.6902 -0.1867
  125CHL1    C315437   4.190   6.273  11.150 -0.3214  0.7741  0.5334
  125CHL1    H315438   4.291   6.287  11.193  0.7145 -0.0199 -1.5028
  125CHL1    O315439   4.184   6.298  11.016 -0.0599 -0.6798  0.6903
  125CHL1   H3'15440   4.092   6.287  10.992  0.0188 -0.0394  0.0417
  125CHL1    C415441   4.148   6.122  11.151  0.0396  0.0302 -0.8575
  125CHL1   H4A15442   4.050   6.116  11.100 -0.0906  0.1124 -0.6158
  125CHL1   H4B15443   4.218   6.056  11.095  0.3147  0.1164 -0.6138
  125CHL1    C515444   4.126   6.080  11.296 -0.4892 -0.7165 -0.4422
  125CHL1    C615445   4.197   5.977  11.342  0.1345  0.0281  0.1450
  125CHL1    H615446   4.253   5.914  11.271 -1.3071 -0.0490 -0.9764
  125CHL1    C715447   4.186   5.923  11.485 -0.3226  0.0306  0.4043
  125CHL1   H7A15448   4.167   5.815  11.469 -0.2141 -0.1190  1.2375
  125CHL1   H7B15449   4.277   5.933  11.547 -0.7767 -0.7977  1.2271
  125CHL1    C815450   4.066   5.992  11.564 -0.0084  0.0244  0.0834
  125CHL1    H815451   3.976   5.942  11.522  0.2430 -0.2997 -0.0640
  125CHL1   C1415452   4.075   5.981  11.712 -0.2791 -0.1387 -0.6566
  125CHL1   H1415453   4.147   6.056  11.752 -3.2049  1.7033  1.5471
  125CHL1   C1515454   4.114   5.852  11.773  0.5657 -0.7489  0.0096
  125CHL1  H15A15455   4.064   5.768  11.720 -0.5252 -0.4333  0.4988
  125CHL1  H15B15456   4.223   5.835  11.777  1.0543  1.7624 -0.7833
  125CHL1   C1615457   4.044   5.855  11.912 -0.2954 -0.5991 -0.0463
  125CHL1  H16A15458   3.967   5.775  11.908  1.4633 -2.2974 -2.7383
  125CHL1  H16B15459   4.118   5.836  11.993  0.9612 -2.7947 -1.6178
  125CHL1   C1715460   3.963   5.983  11.926 -0.0940  0.6678 -0.5786
  125CHL1   H1715461   4.037   6.055  11.967 -1.5786  1.3009  1.1486
  125CHL1   C1315462   3.935   6.012  11.778  0.1502 -0.3842 -0.3936
  125CHL1   C1815463   3.812   5.931  11.739 -0.1865 -0.0487 -0.1745
  125CHL1  H18A15464   3.717   5.948  11.794 -0.4390 -1.1268 -0.2626
  125CHL1  H18B15465   3.777   5.959  11.638  1.1159  1.0064 -0.3557
  125CHL1  H18C15466   3.842   5.824  11.743 -0.0258  0.0327  1.3906
  125CHL1   C1215467   3.910   6.167  11.755 -0.4316 -0.4180 -0.3951
  125CHL1  H12A15468   3.819   6.210  11.803  0.2670  0.9111 -0.1950
  125CHL1  H12B15469   3.992   6.212  11.816 -2.1517  0.5081  1.3662
  125CHL1   C1115470   3.921   6.206  11.604  0.0304 -0.0942  0.4970
  125CHL1  H11A15471   3.823   6.189  11.555  1.0924  1.1049 -2.2630
  125CHL1  H11B15472   3.928   6.316  11.593 -1.2791 -0.1772 -1.6218
  125CHL1    C915473   4.043   6.142  11.529 -0.4714  0.7028  0.1607
  125CHL1    H915474   4.136   6.183  11.572  0.0815  0.2957 -0.6090
  125CHL1   C1015475   4.038   6.168  11.376 -0.3867 -0.2223 -0.0061
  125CHL1   C1915476   3.900   6.155  11.318  0.1915  0.1422 -0.4028
  125CHL1  H19A15477   3.899   6.177  11.209  0.1467  0.4326 -0.3447
  125CHL1  H19B15478   3.873   6.048  11.329 -0.1859 -0.0260 -2.5735
  125CHL1  H19C15479   3.822   6.221  11.360  0.0919  0.3680 -0.9334
  125CHL1    C115480   4.084   6.312  11.370 -0.0469  0.1797  0.8712
  125CHL1   H1A15481   4.012   6.379  11.421 -1.7273 -0.5496 -0.4667
  125CHL1   H1B15482   4.184   6.324  11.418  0.4178  0.5427 -0.1463
  125CHL1    C215483   4.091   6.362  11.223  0.6625  0.2705 -0.5375
  125CHL1   H2A15484   4.118   6.469  11.227  0.9503  0.2922 -2.3787
  125CHL1   H2B15485   3.991   6.353  11.175 -0.1244 -0.0645  1.0698
  125CHL1   C2015486   3.854   5.993  12.034  0.9508 -0.3213 -0.3112
  125CHL1   H2015487   3.772   5.923  12.009  1.8336 -2.3330  2.0586
  125CHL1   C2115488   3.807   6.145  12.045  0.1005  0.1625  0.1269
  125CHL1  H21A15489   3.892   6.217  12.046 -0.2218  0.5448  1.3751
  125CHL1  H21B15490   3.740   6.162  12.131 -1.3608 -0.1305 -0.9221
  125CHL1  H21C15491   3.736   6.178  11.966  0.1184 -0.3806 -0.1250
  125CHL1   C2215492   3.907   5.953  12.167 -0.7745 -0.6848  0.1109
  125CHL1  H22A15493   3.978   5.868  12.162  1.6312  1.1210  1.6577
  125CHL1  H22B15494   3.976   6.032  12.202  0.3005 -0.7438 -1.7503
  125CHL1   C2315495   3.794   5.936  12.276 -0.1491 -0.0793 -0.1925
  125CHL1  H23A15496   3.741   6.033  12.294  0.1799  0.0326  0.1957
  125CHL1  H23B15497   3.723   5.868  12.225  0.4331 -0.7593 -0.1033
  125CHL1   C2415498   3.845   5.872  12.405 -0.1161  0.1521  0.2241
  125CHL1  H24A15499   3.901   5.780  12.380  0.5786  0.8983 -1.1024
  125CHL1  H24B15500   3.899   5.954  12.457  3.1288 -0.3623 -2.0102
  125CHL1   C2515501   3.724   5.829  12.496 -0.1435 -0.5925  0.1794
  125CHL1   H2515502   3.683   5.734  12.458 -0.4073 -0.4386  0.0788
  125CHL1   C2615503   3.775   5.800  12.633 -0.0412 -0.6567 -0.0098
  125CHL1  H26A15504   3.815   5.897  12.671 -0.2081 -0.6366  0.1164
  125CHL1  H26B15505   3.687   5.775  12.696 -0.6953  3.3295  0.9508
  125CHL1  H26C15506   3.852   5.721  12.641  0.8766  0.1983 -0.1538
  125CHL1   C2715507   3.606   5.927  12.503 -0.3668  0.0615 -0.7521
  125CHL1  H27A15508   3.532   5.889  12.577 -0.0690  1.8230  0.5196
  125CHL1  H27B15509   3.648   6.021  12.546 -0.7474  0.5358 -1.3942
  125CHL1  H27C15510   3.556   5.956  12.408 -2.3266 -1.0164 -0.1107
  126CHL1    C315511   3.411   7.567  11.134 -0.2523 -0.5643 -0.1979
  126CHL1    H315512   3.509   7.609  11.165  0.4157 -0.3039 -2.4537
  126CHL1    O315513   3.396   7.574  10.996 -0.1784  0.3361 -0.1029
  126CHL1   H3'15514   3.347   7.655  10.981 -0.4919  0.3359  0.8730
  126CHL1    C415515   3.419   7.420  11.188  0.7341  0.4871 -0.5476
  126CHL1   H4A15516   3.326   7.385  11.138  0.4387 -2.7577  1.9981
  126CHL1   H4B15517   3.496   7.354  11.143 -0.2404 -0.4483 -0.8905
  126CHL1    C515518   3.389   7.396  11.336  0.2030  0.7312 -0.0685
  126CHL1    C615519   3.473   7.313  11.411  0.1592 -1.0501 -0.4961
  126CHL1    H615520   3.544   7.257  11.347  0.1517  0.2504 -1.7003
  126CHL1    C715521   3.454   7.279  11.557  0.4222 -0.1058 -0.4453
  126CHL1   H7A15522   3.451   7.168  11.571 -1.6792  0.0811  1.0994
  126CHL1   H7B15523   3.540   7.320  11.615 -0.7114  0.0041  1.2131
  126CHL1    C815524   3.320   7.339  11.614 -0.1529  0.2496 -0.4221
  126CHL1    H815525   3.232   7.278  11.583  0.3260 -0.6710  0.0101
  126CHL1   C1415526   3.338   7.338  11.766 -0.2615  0.1292  0.0172
  126CHL1   H1415527   3.420   7.409  11.789  1.0612 -1.0056 -1.0682
  126CHL1   C1515528   3.375   7.205  11.824 -0.2536  0.2520  0.4061
  126CHL1  H15A15529   3.299   7.134  11.783 -0.9938  1.1742  0.1303
  126CHL1  H15B15530   3.474   7.157  11.811 -0.2675  0.2587  0.2795
  126CHL1   C1615531   3.337   7.221  11.970 -0.5576 -0.2872 -0.2485
  126CHL1  H16A15532   3.285   7.128  12.001 -2.6089  1.0144  0.4241
  126CHL1  H16B15533   3.433   7.239  12.024  0.2034  0.9626 -1.9174
  126CHL1   C1715534   3.255   7.353  11.986  0.1436 -0.5277 -0.1716
  126CHL1   H1715535   3.331   7.429  12.015 -1.9955  1.9679 -0.7255
  126CHL1   C1315536   3.217   7.396  11.844  0.2699 -0.4274 -0.0113
  126CHL1   C1815537   3.085   7.321  11.807 -0.2583 -0.5925 -0.3402
  126CHL1  H18A15538   3.004   7.390  11.840 -0.9577 -1.5536  0.0205
  126CHL1  H18B15539   3.074   7.315  11.696 -4.1569  0.6789 -0.1735
  126CHL1  H18C15540   3.074   7.216  11.841 -1.1600 -0.8775 -1.4565
  126CHL1   C1215541   3.214   7.551  11.800  0.0169  0.0258  0.3013
  126CHL1  H12A15542   3.139   7.615  11.852 -1.3609 -0.3985 -1.0786
  126CHL1  H12B15543   3.311   7.599  11.826  0.5402  0.7316 -2.5575
  126CHL1   C1115544   3.198   7.567  11.652 -0.2111 -0.6150  0.1142
  126CHL1  H11A15545   3.092   7.538  11.635 -0.4836  0.8560 -0.8119
  126CHL1  H11B15546   3.203   7.676  11.630  1.3350 -1.0524 -2.1205
  126CHL1    C915547   3.300   7.483  11.566 -0.0690 -0.5905  0.2375
  126CHL1    H915548   3.389   7.549  11.575 -0.8530  0.4216  0.7396
  126CHL1   C1015549   3.282   7.485  11.408 -1.1455 -0.2025 -0.6937
  126CHL1   C1915550   3.141   7.426  11.374  0.0784 -0.6739  0.1649
  126CHL1  H19A15551   3.059   7.491  11.412  0.0377 -0.7032  0.1275
  126CHL1  H19B15552   3.122   7.424  11.264  0.3743  1.8690  0.0067
  126CHL1  H19C15553   3.115   7.320  11.394 -0.8641 -0.3525  0.7350
  126CHL1    C115554   3.287   7.635  11.350  0.1486 -0.0771 -0.1443
  126CHL1   H1A15555   3.189   7.672  11.387  0.5431 -0.9798  1.9038
  126CHL1   H1B15556   3.375   7.688  11.391 -0.6454 -0.0247  1.5860
  126CHL1    C215557   3.290   7.645  11.195  0.4564 -0.6053 -0.6919
  126CHL1   H2A15558   3.286   7.754  11.172  0.9436  0.2222  2.5484
  126CHL1   H2B15559   3.198   7.602  11.152 -0.4754 -1.0775  1.6256
  126CHL1   C2015560   3.149   7.348  12.102  0.4842  0.4201  0.2815
  126CHL1   H2015561   3.071   7.273  12.079 -0.1647  0.7391  1.3744
  126CHL1   C2115562   3.063   7.473  12.118  0.5223 -0.1459 -0.0618
  126CHL1  H21A15563   2.966   7.455  12.168  0.8627  0.7280  0.9414
  126CHL1  H21B15564   3.030   7.509  12.018  2.6974  0.6295 -0.5584
  126CHL1  H21C15565   3.125   7.555  12.161  1.1224 -0.4759 -0.2781
  126CHL1   C2215566   3.204   7.308  12.238  0.4778  0.7492 -0.0382
  126CHL1  H22A15567   3.236   7.202  12.231  0.3287  0.5261  2.1365
  126CHL1  H22B15568   3.303   7.355  12.254  1.9524 -2.1853  0.1265
  126CHL1   C2315569   3.096   7.307  12.357  0.0147 -0.6727 -0.0324
  126CHL1  H23A15570   3.056   7.409  12.374 -1.4522 -1.4387  1.3838
  126CHL1  H23B15571   3.009   7.254  12.314 -0.1206 -0.5937  0.1451
  126CHL1   C2415572   3.147   7.235  12.490 -0.0745 -0.4129 -0.2651
  126CHL1  H24A15573   3.187   7.134  12.469  1.3866 -0.0490  0.6010
  126CHL1  H24B15574   3.239   7.282  12.532 -0.2879 -0.8486  0.7093
  126CHL1   C2515575   3.039   7.224  12.603 -0.0455 -0.7240  0.5361
  126CHL1   H2515576   2.943   7.193  12.556  0.4035 -0.3677 -0.6616
  126CHL1   C2615577   3.053   7.102  12.704 -0.0112 -0.0472 -0.1293
  126CHL1  H26A15578   3.077   7.011  12.645  1.9621 -1.6593  2.9667
  126CHL1  H26B15579   3.121   7.131  12.787 -1.0412  1.0935  0.3424
  126CHL1  H26C15580   2.950   7.069  12.731  0.5918 -0.4781  1.8014
  126CHL1   C2715581   3.024   7.355  12.676 -0.3843  0.1318 -0.2442
  126CHL1  H27A15582   3.116   7.369  12.737 -0.8398 -0.1224  0.5211
  126CHL1  H27B15583   3.007   7.443  12.611 -1.1389  0.6332  0.6204
  126CHL1  H27C15584   2.941   7.338  12.749  0.1244 -4.5699 -0.4143
  127CHL1    C315585   3.875   6.978  10.760  1.1012 -0.1367  0.6527
  127CHL1    H315586   3.975   6.995  10.806  0.3191  2.8218  1.4567
  127CHL1    O315587   3.892   6.992  10.616  0.3844  0.1519 -0.0837
  127CHL1   H3'15588   3.802   7.009  10.588  0.8955  0.4912 -1.6017
  127CHL1    C415589   3.805   6.845  10.785 -0.3306 -0.4994 -0.9263
  127CHL1   H4A15590   3.703   6.844  10.740 -0.4816 -0.1410 -0.6000
  127CHL1   H4B15591   3.853   6.766  10.725  1.9662 -0.7253  1.0845
  127CHL1    C515592   3.802   6.821  10.938  0.4304  0.0520 -1.0190
  127CHL1    C615593   3.851   6.708  10.986  0.5491  0.8324 -0.2340
  127CHL1    H615594   3.891   6.634  10.915 -2.4728 -0.8258 -0.3760
  127CHL1    C715595   3.839   6.659  11.127 -0.0976  0.1963 -0.3214
  127CHL1   H7A15596   3.808   6.552  11.124 -0.4907  0.3025  0.0432
  127CHL1   H7B15597   3.939   6.649  11.174 -0.3703 -2.6309 -0.1976
  127CHL1    C815598   3.745   6.747  11.212 -0.2723 -0.1406 -0.9785
  127CHL1    H815599   3.641   6.731  11.178 -1.4730  3.8982  0.2056
  127CHL1   C1415600   3.770   6.718  11.354  0.4231 -0.4896 -0.1730
  127CHL1   H1415601   3.872   6.751  11.382  0.7080 -0.9831 -0.6072
  127CHL1   C1515602   3.756   6.567  11.387  0.3777  0.2135 -0.2313
  127CHL1  H15A15603   3.668   6.528  11.333  0.4286  0.5760 -0.5839
  127CHL1  H15B15604   3.848   6.504  11.382  0.2904 -0.0053  0.7590
  127CHL1   C1615605   3.721   6.570  11.535 -0.3665 -0.9945 -0.9289
  127CHL1  H16A15606   3.620   6.524  11.531 -0.5476 -0.6317 -0.5752
  127CHL1  H16B15607   3.795   6.512  11.594  1.1301  0.9046 -0.8719
  127CHL1   C1715608   3.707   6.722  11.584  0.2634 -0.1802 -0.3291
  127CHL1   H1715609   3.814   6.748  11.602  0.8034 -2.9943  1.1634
  127CHL1   C1315610   3.680   6.796  11.451  0.2855  0.9123  0.2996
  127CHL1   C1815611   3.526   6.779  11.416  0.4008 -0.1366  0.5279
  127CHL1  H18A15612   3.468   6.813  11.505  1.1145 -1.2639  1.4589
  127CHL1  H18B15613   3.494   6.822  11.319  1.3926  0.6356  0.5277
  127CHL1  H18C15614   3.502   6.671  11.410  0.0199 -0.0565  0.5784
  127CHL1   C1215615   3.724   6.947  11.427  0.4704  0.1368 -0.1111
  127CHL1  H12A15616   3.652   7.005  11.488 -0.3195 -0.2712 -0.6431
  127CHL1  H12B15617   3.830   6.956  11.458  0.3103 -1.1638  0.9330
  127CHL1   C1115618   3.701   6.993  11.275  0.6293 -0.7159 -0.1178
  127CHL1  H11A15619   3.592   7.010  11.265  0.6118  1.2901  2.3829
  127CHL1  H11B15620   3.747   7.092  11.251 -2.9969  1.2144  0.1746
  127CHL1    C915621   3.765   6.893  11.174 -0.1131  0.9616  0.1340
  127CHL1    H915622   3.875   6.910  11.177  0.0212  0.6496 -1.7701
  127CHL1   C1015623   3.732   6.924  11.027 -0.5883 -0.1762 -1.0492
  127CHL1   C1915624   3.579   6.915  10.997  0.1221 -0.1650  0.2800
  127CHL1  H19A15625   3.548   7.006  11.053 -0.1911  0.3808 -0.7626
  127CHL1  H19B15626   3.554   6.933  10.890 -1.3665 -2.3242  0.1899
  127CHL1  H19C15627   3.531   6.823  11.037  0.7577  0.9067  3.8938
  127CHL1    C115628   3.788   7.065  10.980 -0.0685  0.8120 -0.5812
  127CHL1   H1A15629   3.729   7.144  11.031  1.2630  0.2404  1.9948
  127CHL1   H1B15630   3.897   7.071  11.000 -0.0407  0.6451 -0.6765
  127CHL1    C215631   3.788   7.082  10.827  0.7416  0.4012  0.3718
  127CHL1   H2A15632   3.829   7.184  10.811  1.1016  0.1834 -0.1128
  127CHL1   H2B15633   3.685   7.072  10.786  0.6107  0.7194  0.6120
  127CHL1   C2015634   3.620   6.748  11.705 -0.1823  0.3316 -0.3356
  127CHL1   H2015635   3.512   6.741  11.681 -0.3397  1.0479  0.1420
  127CHL1   C2115636   3.654   6.886  11.759  0.1320  0.1475  0.0119
  127CHL1  H21A15637   3.627   6.900  11.866 -1.5835  1.5915 -0.5538
  127CHL1  H21B15638   3.590   6.963  11.709 -0.2644 -0.1117  0.1226
  127CHL1  H21C15639   3.761   6.911  11.742 -0.5106  1.8890 -1.9329
  127CHL1   C2215640   3.664   6.659  11.821  0.4258  0.3261 -0.8675
  127CHL1  H22A15641   3.685   6.558  11.779 -0.8905 -0.1533 -0.4113
  127CHL1  H22B15642   3.760   6.689  11.869  0.4217 -0.6093 -0.2406
  127CHL1   C2315643   3.556   6.644  11.933 -1.3205  0.2255 -0.6128
  127CHL1  H23A15644   3.527   6.741  11.979  0.6088  0.9522 -0.8683
  127CHL1  H23B15645   3.462   6.602  11.890 -0.2465 -1.3603 -1.5482
  127CHL1   C2415646   3.594   6.528  12.033  0.1989  0.0842  0.7759
  127CHL1  H24A15647   3.637   6.449  11.969 -1.8672  0.1306 -0.7831
  127CHL1  H24B15648   3.674   6.560  12.104  0.2211  0.5993  0.5267
  127CHL1   C2515649   3.474   6.486  12.114  0.3061 -0.4242  0.1688
  127CHL1   H2515650   3.389   6.474  12.043 -0.4581  0.6126  0.8804
  127CHL1   C2615651   3.495   6.347  12.165  0.1309 -0.4087  0.5430
  127CHL1  H26A15652   3.410   6.305  12.223 -1.1255 -0.2110 -1.0754
  127CHL1  H26B15653   3.509   6.271  12.084 -0.3785  0.7131 -0.6227
  127CHL1  H26C15654   3.585   6.358  12.229  0.6912  0.8771 -0.4295
  127CHL1   C2715655   3.430   6.584  12.227 -1.0079 -0.0546  0.2284
  127CHL1  H27A15656   3.374   6.664  12.173  1.2133  0.9730 -0.6774
  127CHL1  H27B15657   3.364   6.535  12.302 -0.6007 -0.3457  0.3991
  127CHL1  H27C15658   3.519   6.627  12.279 -0.4394 -0.9368  0.0063
  128CHL1    C315659   2.310   1.494  10.951  0.4402  0.3884 -0.0015
  128CHL1    H315660   2.295   1.582  10.885 -0.3004  0.5680  0.4021
  128CHL1    O315661   2.292   1.387  10.861 -0.8716 -0.1879  0.0638
  128CHL1   H3'15662   2.363   1.411  10.801  0.3742  0.0074  1.5350
  128CHL1    C415663   2.449   1.492  11.009 -0.2590  0.1260 -0.3407
  128CHL1   H4A15664   2.461   1.388  11.046 -0.3731  1.2304  3.0875
  128CHL1   H4B15665   2.514   1.494  10.918 -0.6701 -2.5757 -0.7896
  128CHL1    C515666   2.468   1.600  11.116  0.2481 -0.7334  0.0466
  128CHL1    C615667   2.566   1.684  11.104  1.0588  0.1797  0.8502
  128CHL1    H615668   2.620   1.681  11.008  0.4010 -0.0650  0.4776
  128CHL1    C715669   2.587   1.799  11.193  0.1518 -1.0507  0.0801
  128CHL1   H7A15670   2.695   1.813  11.213 -0.3080  2.9784  0.7260
  128CHL1   H7B15671   2.551   1.895  11.149 -0.8301 -0.1565  2.6403
  128CHL1    C815672   2.521   1.779  11.332 -0.0345  0.2841 -0.0625
  128CHL1    H815673   2.570   1.696  11.388  1.6899  1.5732  0.4136
  128CHL1   C1415674   2.520   1.902  11.417  0.0811 -0.1211 -0.3345
  128CHL1   H1415675   2.458   1.975  11.360  0.4790 -0.1118 -0.7605
  128CHL1   C1515676   2.658   1.978  11.440 -0.7060  0.4746 -0.4734
  128CHL1  H15A15677   2.735   1.904  11.470  0.2727  1.4846 -0.4546
  128CHL1  H15B15678   2.702   2.024  11.349 -0.2199 -0.3447 -0.6669
  128CHL1   C1615679   2.633   2.071  11.560  0.1725 -0.0233  0.1693
  128CHL1  H16A15680   2.709   2.033  11.632 -0.1866 -0.7571  0.1737
  128CHL1  H16B15681   2.644   2.178  11.534 -0.5710 -0.1505 -0.7209
  128CHL1   C1715682   2.490   2.035  11.611  0.2169  0.1622 -0.5662
  128CHL1   H1715683   2.416   2.095  11.552 -1.0124 -1.5502 -0.8456
  128CHL1   C1315684   2.453   1.890  11.553 -0.7348 -0.0478 -0.9449
  128CHL1   C1815685   2.536   1.782  11.637  0.0072  0.3337  0.0077
  128CHL1  H18A15686   2.490   1.786  11.738  0.0707  0.9039  0.0137
  128CHL1  H18B15687   2.513   1.682  11.593  2.2657 -0.4056  0.3724
  128CHL1  H18C15688   2.645   1.803  11.636 -0.1242  1.0336 -1.0481
  128CHL1   C1215689   2.306   1.851  11.537 -0.8702 -0.4657  0.0487
  128CHL1  H12A15690   2.258   1.809  11.628 -0.2190 -1.3729 -0.0129
  128CHL1  H12B15691   2.253   1.943  11.503  2.3754  2.6811  2.7636
  128CHL1   C1115692   2.287   1.730  11.437  0.1157 -0.0974 -0.5580
  128CHL1  H11A15693   2.316   1.638  11.492 -0.0816  0.9807  1.4572
  128CHL1  H11B15694   2.178   1.727  11.417  0.0147 -0.3343 -0.0065
  128CHL1    C915695   2.372   1.731  11.307  0.4102 -0.4320  0.5050
  128CHL1    H915696   2.331   1.818  11.251  0.9911 -1.8503 -2.3245
  128CHL1   C1015697   2.358   1.603  11.227  0.3236 -0.5954 -0.0680
  128CHL1   C1915698   2.394   1.478  11.316 -0.2427  0.9150  0.5703
  128CHL1  H19A15699   2.487   1.496  11.374  1.3103 -0.3468 -1.3563
  128CHL1  H19B15700   2.311   1.450  11.385  1.5907 -0.9111  2.1680
  128CHL1  H19C15701   2.401   1.386  11.253 -0.9420  0.0011  1.7660
  128CHL1    C115702   2.214   1.585  11.169 -0.6561  0.5203  0.6613
  128CHL1   H1A15703   2.140   1.584  11.251 -0.2944  0.6196  0.9954
  128CHL1   H1B15704   2.192   1.681  11.118 -0.1103  1.2095  1.6914
  128CHL1    C215705   2.203   1.475  11.062 -0.6850  1.3234 -0.2256
  128CHL1   H2A15706   2.101   1.481  11.016 -0.7008  0.0486 -0.3821
  128CHL1   H2B15707   2.215   1.374  11.104 -0.4561  0.7903 -1.5279
  128CHL1   C2015708   2.476   2.058  11.760  0.3426  0.1637 -0.2127
  128CHL1   H2015709   2.548   1.993  11.813 -0.6599 -0.3732  0.5285
  128CHL1   C2115710   2.332   2.019  11.800 -0.4919 -0.3778 -0.6712
  128CHL1  H21A15711   2.329   1.911  11.824 -2.6913 -0.0085  1.0502
  128CHL1  H21B15712   2.256   2.046  11.724 -1.2762  0.9930  0.5352
  128CHL1  H21C15713   2.292   2.085  11.880 -0.6986 -0.2616 -0.8676
  128CHL1   C2215714   2.495   2.204  11.799 -0.3875 -0.3308 -0.8072
  128CHL1  H22A15715   2.593   2.233  11.758  0.9514 -0.6134  1.9674
  128CHL1  H22B15716   2.412   2.273  11.772 -0.5064  0.9778  2.3981
  128CHL1   C2315717   2.524   2.207  11.952 -0.3459 -0.1997 -0.1824
  128CHL1  H23A15718   2.520   2.307  11.999 -0.2954 -1.0582  1.7503
  128CHL1  H23B15719   2.440   2.153  12.002  0.3353  0.9735  2.3691
  128CHL1   C2415720   2.646   2.141  12.006 -0.3532 -0.4393  1.0526
  128CHL1  H24A15721   2.652   2.034  11.975  1.0788  0.3094 -1.6318
  128CHL1  H24B15722   2.741   2.181  11.965 -0.1413  0.9544  2.8053
  128CHL1   C2515723   2.664   2.141  12.157  0.4239 -0.4258 -0.4109
  128CHL1   H2515724   2.583   2.085  12.210  0.9315  0.9038  1.9303
  128CHL1   C2615725   2.799   2.102  12.193  0.0792  0.6208  0.3690
  128CHL1  H26A15726   2.884   2.147  12.137  1.4315  0.2129  1.9826
  128CHL1  H26B15727   2.828   2.119  12.299  2.3295  1.1051 -0.2587
  128CHL1  H26C15728   2.800   1.991  12.189 -0.7888  0.6486 -0.8065
  128CHL1   C2715729   2.645   2.286  12.210  0.2657  0.2052  0.9672
  128CHL1  H27A15730   2.711   2.361  12.161  0.9562  0.5375  2.3381
  128CHL1  H27B15731   2.542   2.328  12.208 -0.2217 -0.9534 -1.5591
  128CHL1  H27C15732   2.677   2.274  12.316  0.1946  0.0548  0.9725
  129CHL1    C315733   5.621   5.270  11.309 -0.2781  0.0849  0.2021
  129CHL1    H315734   5.549   5.205  11.363 -2.9310  2.5121 -0.1428
  129CHL1    O315735   5.560   5.300  11.182 -0.6278 -0.1878 -0.0367
  129CHL1   H3'15736   5.631   5.302  11.118  0.2078 -1.1463  0.8330
  129CHL1    C415737   5.643   5.404  11.380 -0.8210  0.8269  0.1672
  129CHL1   H4A15738   5.704   5.466  11.311 -2.5373 -2.4740 -4.9297
  129CHL1   H4B15739   5.554   5.468  11.396 -1.4639  0.1095 -0.4258
  129CHL1    C515740   5.706   5.366  11.517 -0.0108  0.6761  0.0800
  129CHL1    C615741   5.638   5.406  11.623  0.9522 -0.1526 -0.2457
  129CHL1    H615742   5.537   5.448  11.620 -0.1154 -2.3508  1.8255
  129CHL1    C715743   5.694   5.385  11.767  0.7057  0.1912  0.2157
  129CHL1   H7A15744   5.662   5.471  11.829  0.8196 -1.1980  2.2789
  129CHL1   H7B15745   5.656   5.288  11.806  1.8069 -0.0651  0.6694
  129CHL1    C815746   5.849   5.378  11.759 -0.3850  0.3032  0.5910
  129CHL1    H815747   5.886   5.479  11.733 -1.6021  1.2230  2.2663
  129CHL1   C1415748   5.896   5.337  11.896  0.0952  0.1844 -0.2382
  129CHL1   H1415749   5.845   5.242  11.926  0.6183 -0.0653 -0.1301
  129CHL1   C1515750   5.869   5.434  12.010 -0.2508  0.0523  0.0391
  129CHL1  H15A15751   5.889   5.537  11.975  0.3066 -0.2473 -0.5453
  129CHL1  H15B15752   5.764   5.416  12.043  0.0532 -1.0637  0.4804
  129CHL1   C1615753   5.967   5.387  12.124 -0.7501 -0.1941  0.1738
  129CHL1  H16A15754   6.028   5.471  12.166 -0.0978 -0.2754 -0.5917
  129CHL1  H16B15755   5.920   5.341  12.213 -3.9044  0.2848 -1.1284
  129CHL1   C1715756   6.074   5.295  12.060 -0.2449 -0.2136  0.5199
  129CHL1   H1715757   6.037   5.191  12.075 -0.8955 -0.0303  0.2573
  129CHL1   C1315758   6.051   5.316  11.902 -0.5985  0.9991 -0.2435
  129CHL1   C1815759   6.123   5.453  11.874 -0.2027  0.4462 -0.3014
  129CHL1  H18A15760   6.106   5.532  11.951 -0.8390 -1.1575  1.2629
  129CHL1  H18B15761   6.229   5.430  11.853 -0.3295 -2.0881  1.4771
  129CHL1  H18C15762   6.087   5.488  11.774 -1.9031 -0.4750 -0.0564
  129CHL1   C1215763   6.088   5.191  11.820  0.8823  0.8351 -0.2872
  129CHL1  H12A15764   6.198   5.178  11.819  0.7731 -0.2033  0.1253
  129CHL1  H12B15765   6.062   5.096  11.872  0.4779  1.0809 -0.0361
  129CHL1   C1115766   6.043   5.217  11.675 -0.2326 -0.1266  0.1537
  129CHL1  H11A15767   6.108   5.297  11.633 -0.9155  0.4224  0.1142
  129CHL1  H11B15768   6.066   5.125  11.616  0.2798 -0.2358  0.5196
  129CHL1    C915769   5.894   5.270  11.661  0.5612  0.0526  0.2139
  129CHL1    H915770   5.838   5.181  11.696  2.1869 -0.7131  1.0256
  129CHL1   C1015771   5.848   5.304  11.520  0.0384 -0.5634  0.9343
  129CHL1   C1915772   5.947   5.408  11.455 -0.3708  0.5652 -0.1934
  129CHL1  H19A15773   5.916   5.454  11.359 -0.1484  2.6478  0.6654
  129CHL1  H19B15774   5.975   5.495  11.518  0.0086  0.5803 -0.3807
  129CHL1  H19C15775   6.046   5.360  11.438 -0.4934  0.6000 -1.0515
  129CHL1    C115776   5.830   5.184  11.422  0.1501 -0.6132 -1.3462
  129CHL1   H1A15777   5.933   5.145  11.410  0.8824  0.0009  1.9311
  129CHL1   H1B15778   5.776   5.100  11.471 -0.1086  0.2409 -0.1061
  129CHL1    C215779   5.756   5.207  11.288  0.0121  0.8824 -0.2827
  129CHL1   H2A15780   5.765   5.114  11.228  4.2663 -0.9013  2.5491
  129CHL1   H2B15781   5.812   5.278  11.223 -0.4597 -0.3901 -2.1566
  129CHL1   C2015782   6.217   5.316  12.120 -0.0247  0.0332 -0.1585
  129CHL1   H2015783   6.248   5.422  12.106  4.1273 -1.1032 -0.8453
  129CHL1   C2115784   6.320   5.234  12.047 -0.0778 -0.1408  0.0020
  129CHL1  H21A15785   6.289   5.127  12.038 -3.0367  0.6556 -0.3046
  129CHL1  H21B15786   6.422   5.235  12.091 -0.7651  1.1505  1.6597
  129CHL1  H21C15787   6.332   5.276  11.945  0.5820 -0.8298 -0.2123
  129CHL1   C2215788   6.224   5.302  12.269 -0.4691 -0.2148 -0.1171
  129CHL1  H22A15789   6.150   5.361  12.328 -1.7824 -1.0928 -0.8403
  129CHL1  H22B15790   6.205   5.197  12.298 -0.9201  0.1291  0.9025
  129CHL1   C2315791   6.359   5.346  12.323 -0.1040  0.0338 -0.5011
  129CHL1  H23A15792   6.440   5.294  12.268 -1.3983 -1.3103 -1.2137
  129CHL1  H23B15793   6.375   5.453  12.297  0.3695  0.1851  0.3642
  129CHL1   C2415794   6.373   5.321  12.475  0.8014  0.1328  0.1357
  129CHL1  H24A15795   6.357   5.213  12.496  1.0518  0.0649 -0.0153
  129CHL1  H24B15796   6.476   5.342  12.513  0.8571  0.9175 -0.4263
  129CHL1   C2515797   6.278   5.412  12.566  0.0716 -0.4244 -0.2856
  129CHL1   H2515798   6.171   5.380  12.563 -0.9101  2.3531  1.5389
  129CHL1   C2615799   6.315   5.409  12.716  0.4986  0.4134  1.0312
  129CHL1  H26A15800   6.416   5.456  12.723 -0.3528  2.4260  0.5553
  129CHL1  H26B15801   6.250   5.477  12.774  0.5935  1.1823  0.2618
  129CHL1  H26C15802   6.320   5.305  12.754  0.4003 -0.3224 -0.8409
  129CHL1   C2715803   6.277   5.558  12.524  0.0563 -0.0207  0.0270
  129CHL1  H27A15804   6.237   5.562  12.420 -0.5962  0.2738  0.2835
  129CHL1  H27B15805   6.200   5.615  12.580 -1.4868 -1.9191 -0.0358
  129CHL1  H27C15806   6.376   5.607  12.533  0.0391 -0.0545  0.4101
  130CHL1    C315807   1.544   6.437  11.155  0.0063  0.1597 -0.0832
  130CHL1    H315808   1.561   6.539  11.115 -1.0345  0.7745  0.9606
  130CHL1    O315809   1.522   6.350  11.041 -0.1046 -0.1446  0.0756
  130CHL1   H3'15810   1.504   6.269  11.088  1.2353 -0.6354 -0.2016
  130CHL1    C415811   1.670   6.394  11.228  0.0371  0.1678 -0.5704
  130CHL1   H4A15812   1.667   6.284  11.239  1.2697  0.2194  0.5039
  130CHL1   H4B15813   1.754   6.412  11.157  1.5212 -2.5511  0.3354
  130CHL1    C515814   1.683   6.461  11.363  0.1672 -0.4910  0.6206
  130CHL1    C615815   1.795   6.530  11.394  0.3581  0.2434  0.3296
  130CHL1    H615816   1.878   6.531  11.323  0.8257 -0.7707  0.8428
  130CHL1    C715817   1.835   6.590  11.528  0.3354 -0.8594  0.1753
  130CHL1   H7A15818   1.931   6.556  11.573  1.0708  1.5170  0.5470
  130CHL1   H7B15819   1.842   6.700  11.512 -2.5669 -0.5872  0.3091
  130CHL1    C815820   1.720   6.552  11.630  0.7303 -0.6587 -0.0841
  130CHL1    H815821   1.740   6.453  11.676  2.4049  0.4097  1.6485
  130CHL1   C1415822   1.719   6.668  11.737 -0.9727 -0.4300 -0.1655
  130CHL1   H1415823   1.697   6.764  11.686 -0.9898 -0.3558 -0.0178
  130CHL1   C1515824   1.850   6.717  11.803  0.8690 -0.0347  0.5139
  130CHL1  H15A15825   1.908   6.626  11.829  1.0058 -0.6032 -1.6463
  130CHL1  H15B15826   1.904   6.783  11.732  0.8047  1.4040  1.7285
  130CHL1   C1615827   1.798   6.783  11.927 -0.2635 -0.0373  0.2679
  130CHL1  H16A15828   1.842   6.729  12.014 -0.4146 -1.4270 -0.4850
  130CHL1  H16B15829   1.838   6.886  11.933  1.3305 -0.5777 -0.6993
  130CHL1   C1715830   1.644   6.774  11.934  0.4874 -0.2331  0.3842
  130CHL1   H1715831   1.605   6.859  11.874  1.5448  0.4433  0.6284
  130CHL1   C1315832   1.625   6.651  11.853 -0.1404  0.6940  0.0077
  130CHL1   C1815833   1.655   6.522  11.938  0.1794 -0.1438  0.3550
  130CHL1  H18A15834   1.754   6.527  11.988 -0.2091 -1.0936  1.2611
  130CHL1  H18B15835   1.577   6.513  12.017 -0.7525 -1.2324 -0.6413
  130CHL1  H18C15836   1.645   6.427  11.881  0.0246  1.3468 -2.2648
  130CHL1   C1215837   1.485   6.648  11.789  0.4267  0.0774 -0.0769
  130CHL1  H12A15838   1.409   6.644  11.870  0.5832 -1.6814  0.0236
  130CHL1  H12B15839   1.461   6.749  11.747 -0.6263 -0.1658 -0.1040
  130CHL1   C1115840   1.470   6.540  11.677  0.2617 -0.0653 -0.9668
  130CHL1  H11A15841   1.466   6.439  11.723  1.0638  0.6603  0.7816
  130CHL1  H11B15842   1.373   6.551  11.624 -0.7735 -0.1633  0.8127
  130CHL1    C915843   1.577   6.552  11.570 -0.0551 -0.3506  0.2743
  130CHL1    H915844   1.563   6.652  11.523 -0.7109 -0.2509  0.6652
  130CHL1   C1015845   1.559   6.462  11.450  0.8160 -0.1931 -0.4220
  130CHL1   C1915846   1.542   6.319  11.494  0.8267 -0.1776  0.1609
  130CHL1  H19A15847   1.517   6.244  11.416 -2.0001 -2.0971  2.6853
  130CHL1  H19B15848   1.635   6.273  11.534 -0.7448 -3.6250  0.1860
  130CHL1  H19C15849   1.458   6.304  11.565  0.9667  1.7799  0.7811
  130CHL1    C115850   1.440   6.515  11.364  0.6077  0.3029  0.1322
  130CHL1   H1A15851   1.341   6.511  11.415  0.6027  2.6185  0.4236
  130CHL1   H1B15852   1.473   6.619  11.342  4.1573 -0.3432  1.7230
  130CHL1    C215853   1.414   6.433  11.235 -0.3221  0.0773 -0.1562
  130CHL1   H2A15854   1.336   6.476  11.168  1.7257  1.1683 -1.9667
  130CHL1   H2B15855   1.399   6.324  11.254  1.3292 -0.2475 -0.5592
  130CHL1   C2015856   1.597   6.801  12.070  0.0223  0.8275 -0.6782
  130CHL1   H2015857   1.624   6.713  12.132 -2.5553  1.5660  1.7559
  130CHL1   C2115858   1.444   6.815  12.076  0.2962  0.5519 -0.0293
  130CHL1  H21A15859   1.408   6.862  12.171 -2.3055  1.2940 -1.2854
  130CHL1  H21B15860   1.388   6.720  12.069  0.6280  0.4745 -2.5186
  130CHL1  H21C15861   1.413   6.870  11.984  1.1183 -0.3610 -0.8712
  130CHL1   C2215862   1.659   6.921  12.147  0.3348 -0.6267  0.0671
  130CHL1  H22A15863   1.623   6.918  12.252 -1.4309 -1.3924 -0.5229
  130CHL1  H22B15864   1.771   6.920  12.149  0.3977  0.5802 -1.4672
  130CHL1   C2315865   1.615   7.057  12.093 -0.0187 -0.0820 -0.3794
  130CHL1  H23A15866   1.617   7.046  11.983 -0.3632 -0.2163 -0.3735
  130CHL1  H23B15867   1.510   7.067  12.127  0.3695  1.9345  0.3300
  130CHL1   C2415868   1.702   7.164  12.159  0.0360 -0.4833 -0.3383
  130CHL1  H24A15869   1.671   7.162  12.265  1.2453  0.4808  0.0578
  130CHL1  H24B15870   1.807   7.128  12.167  0.4867  1.0495  1.1930
  130CHL1   C2515871   1.685   7.306  12.095 -0.0434 -0.5519  0.1469
  130CHL1   H2515872   1.576   7.331  12.100  0.0743  0.0436 -0.2011
  130CHL1   C2615873   1.762   7.405  12.177 -0.4455  0.4076  0.1591
  130CHL1  H26A15874   1.860   7.362  12.206  0.5556  3.3573  1.5497
  130CHL1  H26B15875   1.796   7.499  12.127 -0.0380  0.1812  0.0060
  130CHL1  H26C15876   1.722   7.438  12.275 -0.2576  0.8062  0.1036
  130CHL1   C2715877   1.736   7.300  11.952  0.1056  0.3664 -0.1813
  130CHL1  H27A15878   1.685   7.221  11.892 -1.7064 -0.8984  2.8095
  130CHL1  H27B15879   1.727   7.394  11.894  2.2855  1.1221  0.6040
  130CHL1  H27C15880   1.842   7.267  11.946  0.0056 -0.6508  2.5033
  131CHL1    C315881   3.411   6.350  10.850  0.4309 -0.3784 -0.5740
  131CHL1    H315882   3.301   6.364  10.837  0.3138 -0.3864  0.3185
  131CHL1    O315883   3.465   6.388  10.727 -0.0477  0.3161  0.4661
  131CHL1   H3'15884   3.410   6.346  10.660 -0.9877 -0.4966  1.7081
  131CHL1    C415885   3.459   6.445  10.958 -1.0606  0.1787  0.3993
  131CHL1   H4A15886   3.569   6.457  10.958 -0.9929 -0.2555 -1.1050
  131CHL1   H4B15887   3.420   6.544  10.925  0.5346  0.5585 -0.4484
  131CHL1    C515888   3.413   6.408  11.094  0.6258 -0.7013 -0.4562
  131CHL1    C615889   3.332   6.488  11.167 -0.1493  1.4162  0.3093
  131CHL1    H615890   3.304   6.582  11.118 -1.4142 -0.8968 -3.8794
  131CHL1    C715891   3.307   6.459  11.308  0.3843 -0.0766  0.0861
  131CHL1   H7A15892   3.318   6.554  11.364 -1.6627  0.6755 -0.6859
  131CHL1   H7B15893   3.204   6.425  11.329  0.0683  1.4137  1.0966
  131CHL1    C815894   3.389   6.348  11.372 -0.6033  0.2383  1.1303
  131CHL1    H815895   3.488   6.393  11.395  0.5307 -0.3643 -2.0671
  131CHL1   C1415896   3.322   6.301  11.501 -0.1525  0.4361 -0.3769
  131CHL1   H1415897   3.222   6.269  11.465 -0.0754 -0.8513  0.4928
  131CHL1   C1515898   3.299   6.411  11.604 -0.6326  0.0321 -0.2877
  131CHL1  H15A15899   3.393   6.470  11.612 -0.5611 -0.2467  1.5807
  131CHL1  H15B15900   3.210   6.471  11.576  0.7034  0.3662 -4.4871
  131CHL1   C1615901   3.268   6.327  11.732 -0.0357 -0.7012  0.2344
  131CHL1  H16A15902   3.331   6.355  11.819 -0.8400  1.5454  0.1467
  131CHL1  H16B15903   3.159   6.330  11.753  0.2232  0.8562  1.4499
  131CHL1   C1715904   3.296   6.184  11.691  0.5681 -0.4761 -0.6392
  131CHL1   H1715905   3.201   6.156  11.639 -0.9589  1.5206  0.9505
  131CHL1   C1315906   3.393   6.188  11.570  0.7891  0.5290 -0.5958
  131CHL1   C1815907   3.532   6.226  11.617 -0.6110  0.4123  0.6193
  131CHL1  H18A15908   3.591   6.248  11.526 -1.4418 -2.3618 -0.7146
  131CHL1  H18B15909   3.524   6.315  11.684  2.0049  0.9035  0.3866
  131CHL1  H18C15910   3.579   6.140  11.670 -1.3626 -0.5613 -0.2326
  131CHL1   C1215911   3.383   6.071  11.472  0.3679  0.2812  0.6367
  131CHL1  H12A15912   3.423   5.972  11.502  1.0068  1.1308  2.7967
  131CHL1  H12B15913   3.276   6.060  11.445  0.9647  1.2078 -2.5586
  131CHL1   C1115914   3.458   6.106  11.338  0.0568  1.0873  0.0002
  131CHL1  H11A15915   3.565   6.106  11.366 -0.3409  1.0421  1.6359
  131CHL1  H11B15916   3.442   6.017  11.273  0.0704  1.5634 -0.6718
  131CHL1    C915917   3.400   6.232  11.274 -0.0551 -0.2917  0.4386
  131CHL1    H915918   3.294   6.203  11.253  0.2481 -1.5920  0.6253
  131CHL1   C1015919   3.455   6.271  11.139  0.5359 -0.2833  0.4888
  131CHL1   C1915920   3.614   6.268  11.146 -0.5012  0.0277  0.1109
  131CHL1  H19A15921   3.658   6.166  11.142  0.4439  0.4445 -0.1280
  131CHL1  H19B15922   3.674   6.309  11.063 -1.0683 -3.1229 -2.0423
  131CHL1  H19C15923   3.646   6.311  11.243  0.1688 -1.9983  0.8355
  131CHL1    C115924   3.393   6.178  11.023 -0.1905 -0.3976 -0.5850
  131CHL1   H1A15925   3.418   6.074  11.052  1.5095  0.1828  0.2073
  131CHL1   H1B15926   3.283   6.193  11.028  0.0901  3.2615 -2.3482
  131CHL1    C215927   3.446   6.206  10.883  0.5356 -0.0819  0.9096
  131CHL1   H2A15928   3.391   6.131  10.822  0.4928 -0.7913  1.8106
  131CHL1   H2B15929   3.556   6.191  10.878  1.1755  3.6277  0.5414
  131CHL1   C2015930   3.324   6.097  11.814  0.2773 -0.1157  0.8248
  131CHL1   H2015931   3.409   6.152  11.861  2.0654 -2.4420  0.5197
  131CHL1   C2115932   3.383   5.956  11.777 -0.6446  0.5442 -0.4768
  131CHL1  H21A15933   3.323   5.891  11.709 -1.3715  1.7011 -0.9722
  131CHL1  H21B15934   3.414   5.903  11.869 -1.1108  0.7898 -0.1738
  131CHL1  H21C15935   3.474   5.978  11.718  0.0204  1.3510  0.8155
  131CHL1   C2215936   3.205   6.082  11.920  0.1573 -0.4222  0.7039
  131CHL1  H22A15937   3.172   6.186  11.944 -1.2727 -1.0603  1.6004
  131CHL1  H22B15938   3.123   6.022  11.875  0.5271 -0.5002  0.1227
  131CHL1   C2315939   3.243   6.014  12.049 -0.0254 -0.0211 -0.3185
  131CHL1  H23A15940   3.281   5.912  12.023  0.7067  0.2972 -0.5252
  131CHL1  H23B15941   3.320   6.071  12.105  1.6313 -0.2095 -2.2916
  131CHL1   C2415942   3.127   5.985  12.146  0.1094  0.1785 -0.5382
  131CHL1  H24A15943   3.098   6.079  12.198 -0.6303 -1.0811  1.4436
  131CHL1  H24B15944   3.043   5.941  12.087  1.2459 -0.1378 -1.9774
  131CHL1   C2515945   3.160   5.885  12.262  0.5032 -0.1919 -0.1200
  131CHL1   H2515946   3.182   5.782  12.228  0.5543 -0.7533  1.5060
  131CHL1   C2615947   3.285   5.931  12.350  0.2392 -0.3497  0.1934
  131CHL1  H26A15948   3.377   5.941  12.287  1.1776  2.3953  1.7994
  131CHL1  H26B15949   3.263   6.033  12.389  0.5977 -0.2579  0.1594
  131CHL1  H26C15950   3.293   5.857  12.432  1.1508 -0.8421 -0.3170
  131CHL1   C2715951   3.042   5.861  12.354 -0.2158 -0.6448 -0.0300
  131CHL1  H27A15952   3.067   5.780  12.425  3.2475  0.5151  0.2449
  131CHL1  H27B15953   3.005   5.951  12.409  2.8434  0.1914  0.8859
  131CHL1  H27C15954   2.960   5.832  12.285 -0.7563 -0.5730  0.5745
  132CHL1    C315955   4.031   0.548  11.372 -0.4492  0.3021 -0.2842
  132CHL1    H315956   3.932   0.535  11.419 -0.4738 -0.1089 -0.4356
  132CHL1    O315957   4.039   0.474  11.245 -0.1494  0.1084  0.0999
  132CHL1   H3'15958   4.132   0.454  11.231  0.0765 -0.5044  2.0582
  132CHL1    C415959   4.066   0.696  11.353 -0.0582  0.2282  0.1256
  132CHL1   H4A15960   4.162   0.700  11.296 -0.5889  1.6823 -0.7277
  132CHL1   H4B15961   3.988   0.736  11.284 -0.1120  0.0797  0.1002
  132CHL1    C515962   4.075   0.768  11.485  0.4275  0.7681 -0.5687
  132CHL1    C615963   3.995   0.874  11.506  0.0211 -0.0557 -0.5870
  132CHL1    H615964   3.938   0.904  11.417 -2.1832  0.0994  0.8110
  132CHL1    C715965   3.976   0.946  11.635  0.1961 -0.1493 -0.0033
  132CHL1   H7A15966   3.974   1.054  11.611  1.0690  0.0656  0.8253
  132CHL1   H7B15967   3.875   0.914  11.670  0.5367 -1.6864 -0.3706
  132CHL1    C815968   4.100   0.919  11.723 -0.0155  0.4120 -1.3809
  132CHL1    H815969   4.177   0.992  11.691 -0.0630  1.1758  0.1589
  132CHL1   C1415970   4.076   0.961  11.869  0.3532 -0.0107  0.2769
  132CHL1   H1415971   3.988   0.905  11.908  1.6067 -1.4273  1.1928
  132CHL1   C1515972   4.029   1.106  11.885 -0.4137 -0.5440  0.9898
  132CHL1  H15A15973   4.100   1.177  11.839 -0.1817 -0.0570  2.0589
  132CHL1  H15B15974   3.930   1.113  11.834 -0.6275 -3.4300  0.8587
  132CHL1   C1615975   4.031   1.117  12.041 -0.0710 -0.2155  0.1367
  132CHL1  H16A15976   4.061   1.222  12.063  2.5223 -0.8182 -0.1814
  132CHL1  H16B15977   3.929   1.088  12.074 -0.1878 -2.3222 -1.8473
  132CHL1   C1715978   4.121   1.003  12.098 -0.2941  0.7052 -0.5869
  132CHL1   H1715979   4.044   0.938  12.144  0.6464  0.9493  1.4443
  132CHL1   C1315980   4.183   0.934  11.978 -0.2671 -0.0428  0.1956
  132CHL1   C1815981   4.307   1.016  11.948  0.6293 -0.8112  0.5572
  132CHL1  H18A15982   4.396   0.998  12.013  0.7714  0.6766  0.7959
  132CHL1  H18B15983   4.346   0.993  11.847 -1.1354 -2.7857  0.2535
  132CHL1  H18C15984   4.291   1.125  11.955  0.6316 -0.8463  1.2517
  132CHL1   C1215985   4.213   0.787  11.973 -0.2337  0.5782  0.0334
  132CHL1  H12A15986   4.296   0.754  12.039 -1.1299 -0.0039  0.9005
  132CHL1  H12B15987   4.117   0.745  12.010 -0.9544  1.3287 -0.8991
  132CHL1   C1115988   4.249   0.733  11.835 -0.5980 -0.6028 -0.2290
  132CHL1  H11A15989   4.353   0.762  11.810 -1.3344  1.0481 -1.5778
  132CHL1  H11B15990   4.250   0.622  11.847  2.3790 -0.8301 -1.6954
  132CHL1    C915991   4.134   0.768  11.732  0.0886  0.4943  0.9644
  132CHL1    H915992   4.042   0.714  11.761 -0.0429 -0.5246 -1.1682
  132CHL1   C1015993   4.159   0.697  11.593 -0.2962  0.0875 -0.8303
  132CHL1   C1915994   4.310   0.724  11.547  0.0100 -0.2726 -0.0291
  132CHL1  H19A15995   4.318   0.714  11.437 -0.7705  0.3602 -0.1491
  132CHL1  H19B15996   4.343   0.826  11.579 -1.7462 -0.1665  1.6104
  132CHL1  H19C15997   4.381   0.650  11.591  0.7560 -0.1290 -0.9654
  132CHL1    C115998   4.122   0.543  11.603 -0.1502 -0.3821 -0.1572
  132CHL1   H1A15999   4.196   0.496  11.672 -0.6464 -0.6859  0.1730
  132CHL1   H1B16000   4.028   0.530  11.660 -0.1587  1.5996  0.3649
  132CHL1    C216001   4.126   0.480  11.463 -0.9060  0.2750 -0.6991
  132CHL1   H2A16002   4.117   0.370  11.471 -0.1627  0.2857  0.5592
  132CHL1   H2B16003   4.232   0.492  11.432  0.2556 -0.6509  2.4807
  132CHL1   C2016004   4.209   1.044  12.222  0.1063 -0.8623 -0.9530
  132CHL1   H2016005   4.275   1.127  12.190  0.8973 -1.1315 -0.0568
  132CHL1   C2116006   4.300   0.921  12.263  0.2305  0.1276  0.1952
  132CHL1  H21A16007   4.362   0.945  12.352  1.3471 -0.3484 -0.4226
  132CHL1  H21B16008   4.368   0.887  12.181 -0.7145  1.4348 -1.1735
  132CHL1  H21C16009   4.228   0.841  12.291 -0.9372  1.3633  0.8068
  132CHL1   C2216010   4.131   1.095  12.340 -0.3251 -0.9747 -0.2759
  132CHL1  H22A16011   4.048   1.157  12.302  0.0261 -0.2317  0.1494
  132CHL1  H22B16012   4.099   1.000  12.390  1.1504 -0.8720  0.9494
  132CHL1   C2316013   4.209   1.170  12.450 -0.4111  0.3994  0.2716
  132CHL1  H23A16014   4.302   1.113  12.472 -0.7985 -0.4614 -0.2604
  132CHL1  H23B16015   4.233   1.268  12.403  0.1812  0.5125  0.7985
  132CHL1   C2416016   4.127   1.192  12.577 -0.4382  0.1034  0.4945
  132CHL1  H24A16017   4.038   1.252  12.550 -1.5011  0.1840  3.7608
  132CHL1  H24B16018   4.099   1.090  12.613 -1.1118  0.3468  0.6744
  132CHL1   C2516019   4.195   1.279  12.681  0.0977 -0.1558  0.5986
  132CHL1   H2516020   4.262   1.353  12.633 -0.7330 -0.3130 -0.8633
  132CHL1   C2616021   4.090   1.353  12.760 -0.6414  0.4324  0.5444
  132CHL1  H26A16022   4.043   1.280  12.829  0.4769 -0.8665 -0.0245
  132CHL1  H26B16023   4.145   1.431  12.817  0.1761  0.9928 -0.9639
  132CHL1  H26C16024   4.018   1.411  12.698 -0.5001  0.1474  0.1110
  132CHL1   C2716025   4.288   1.193  12.767  0.3159 -0.3566 -0.8900
  132CHL1  H27A16026   4.330   1.251  12.852 -1.0546 -1.6133  0.7460
  132CHL1  H27B16027   4.248   1.102  12.818 -1.9344  0.3895 -1.2058
  132CHL1  H27C16028   4.373   1.163  12.703  1.7571 -2.0416  1.6255
  133CHL1    C316029   1.024   2.522  11.628 -0.2005 -0.3025  0.8073
  133CHL1    H316030   1.070   2.421  11.633  0.0906 -0.3288 -1.2496
  133CHL1    O316031   1.051   2.568  11.495  0.0833  0.1756 -0.1179
  133CHL1   H3'16032   0.968   2.558  11.448 -1.9191 -0.0568  3.1717
  133CHL1    C416033   0.869   2.506  11.645  0.4129 -0.6725 -0.2163
  133CHL1   H4A16034   0.813   2.596  11.611  0.6884 -0.4720 -0.1373
  133CHL1   H4B16035   0.838   2.420  11.582  2.1418 -0.1590 -1.8618
  133CHL1    C516036   0.832   2.480  11.789  0.4599  0.0446  0.1558
  133CHL1    C616037   0.748   2.378  11.819 -0.1152 -0.4417  0.2559
  133CHL1    H616038   0.693   2.324  11.741 -2.3951  1.1836  0.6323
  133CHL1    C716039   0.710   2.336  11.962  0.0580 -0.2203 -0.4948
  133CHL1   H7A16040   0.601   2.325  11.979  0.2636 -1.1875  0.3512
  133CHL1   H7B16041   0.757   2.237  11.981  0.3708  0.1427  0.7674
  133CHL1    C816042   0.756   2.435  12.073  0.2842  0.2378 -0.4198
  133CHL1    H816043   0.687   2.522  12.070  1.3436  1.1902  1.3694
  133CHL1   C1416044   0.759   2.372  12.209 -0.9155 -0.6173  0.0376
  133CHL1   H1416045   0.832   2.289  12.202  0.2125  0.2864  0.8187
  133CHL1   C1516046   0.635   2.295  12.262 -0.4800  0.0377  0.3470
  133CHL1  H15A16047   0.547   2.358  12.237  0.1418  2.5808  3.7345
  133CHL1  H15B16048   0.628   2.189  12.229 -1.6242 -0.0265  0.7757
  133CHL1   C1616049   0.658   2.293  12.413 -0.1641 -0.7273 -0.1867
  133CHL1  H16A16050   0.563   2.331  12.455  0.4121 -0.6433  1.0748
  133CHL1  H16B16051   0.677   2.191  12.453 -0.3779 -1.4812 -1.8857
  133CHL1   C1716052   0.779   2.371  12.448 -0.9675 -1.1359  0.1257
  133CHL1   H1716053   0.866   2.303  12.442  0.0111  0.1948 -1.6296
  133CHL1   C1316054   0.793   2.466  12.332 -0.1275 -0.6889  0.1014
  133CHL1   C1816055   0.692   2.585  12.350 -0.0488 -0.1702 -0.3014
  133CHL1  H18A16056   0.590   2.548  12.371 -1.0381  2.9806  0.9157
  133CHL1  H18B16057   0.707   2.656  12.434 -1.4357 -2.2743  1.8692
  133CHL1  H18C16058   0.685   2.630  12.249 -0.0371  1.2874  0.3272
  133CHL1   C1216059   0.939   2.510  12.298 -0.0548 -0.3956  0.4193
  133CHL1  H12A16060   0.984   2.577  12.375 -0.7123  0.3511  0.1784
  133CHL1  H12B16061   1.008   2.424  12.290 -0.8184 -0.8213 -3.1556
  133CHL1   C1116062   0.957   2.569  12.154 -0.7823 -0.0876 -0.1732
  133CHL1  H11A16063   0.922   2.674  12.158  1.4105  0.6927 -0.2183
  133CHL1  H11B16064   1.067   2.580  12.145 -0.3485 -1.2896  2.4823
  133CHL1    C916065   0.894   2.489  12.041 -0.3934 -0.5695  1.1635
  133CHL1    H916066   0.963   2.403  12.030  0.0999 -0.0201 -0.3627
  133CHL1   C1016067   0.907   2.560  11.893 -0.2089 -0.3991 -0.6756
  133CHL1   C1916068   0.842   2.698  11.894  0.3004 -0.7205  0.3259
  133CHL1  H19A16069   0.907   2.763  11.957  0.3799  0.7958 -1.2701
  133CHL1  H19B16070   0.851   2.748  11.796  0.7748 -1.1240  0.1569
  133CHL1  H19C16071   0.734   2.702  11.920  0.1604 -3.2414  0.4402
  133CHL1    C116072   1.065   2.571  11.871  0.5518  0.4896 -0.1104
  133CHL1   H1A16073   1.118   2.633  11.946  0.6875  0.1440  0.0816
  133CHL1   H1B16074   1.111   2.470  11.865 -2.1304 -0.9267  1.0328
  133CHL1    C216075   1.085   2.619  11.727 -0.2250  0.4848 -0.1006
  133CHL1   H2A16076   1.193   2.638  11.712 -0.5045  1.7139 -0.7721
  133CHL1   H2B16077   1.034   2.717  11.715  0.9017  1.3175  1.4853
  133CHL1   C2016078   0.777   2.423  12.593  0.8903  0.2492  0.7531
  133CHL1   H2016079   0.692   2.494  12.606  1.0879  0.8080 -0.8355
  133CHL1   C2116080   0.914   2.489  12.618 -0.6856 -0.1598 -0.1870
  133CHL1  H21A16081   0.912   2.595  12.584  0.0819 -0.4449 -1.1769
  133CHL1  H21B16082   0.997   2.426  12.578 -0.9189 -0.4941 -0.1509
  133CHL1  H21C16083   0.927   2.504  12.727 -1.9159  0.3863 -0.1021
  133CHL1   C2216084   0.754   2.307  12.691 -0.4761  0.6601 -0.0475
  133CHL1  H22A16085   0.664   2.247  12.665  0.8551 -0.7585 -1.6483
  133CHL1  H22B16086   0.832   2.229  12.684  0.3333  1.5756 -1.9861
  133CHL1   C2316087   0.730   2.355  12.837  0.1297  0.2726  0.4777
  133CHL1  H23A16088   0.831   2.359  12.883  0.4295  2.1553 -0.2389
  133CHL1  H23B16089   0.687   2.458  12.835 -1.1137 -0.2186 -2.1418
  133CHL1   C2416090   0.641   2.253  12.909 -0.0666 -0.2622 -0.1557
  133CHL1  H24A16091   0.546   2.249  12.853  0.0007  1.5275 -0.4518
  133CHL1  H24B16092   0.690   2.154  12.897  0.3462  0.1546 -2.2407
  133CHL1   C2516093   0.608   2.289  13.056 -0.1575  0.7698  0.1679
  133CHL1   H2516094   0.707   2.302  13.106  0.3515  0.0756 -0.6471
  133CHL1   C2616095   0.515   2.411  13.063 -0.0373  0.9643 -0.3223
  133CHL1  H26A16096   0.426   2.399  12.998 -0.0850 -0.3974 -0.0266
  133CHL1  H26B16097   0.482   2.431  13.167 -0.7840 -0.7164 -0.2097
  133CHL1  H26C16098   0.578   2.500  13.041  3.2017 -0.6733  1.4403
  133CHL1   C2716099   0.549   2.170  13.129 -0.4945  0.3597 -0.7885
  133CHL1  H27A16100   0.583   2.173  13.234 -0.1876  2.6585 -0.9093
  133CHL1  H27B16101   0.439   2.158  13.116 -0.7888  0.5444  1.1811
  133CHL1  H27C16102   0.595   2.075  13.094 -0.4799 -0.3799  1.1498
  134CHL1    C316103   6.223   3.722  10.990 -0.6262  0.3647  0.1511
  134CHL1    H316104   6.140   3.706  11.063 -0.8638  1.2418  0.0902
  134CHL1    O316105   6.189   3.645  10.879  0.5458 -0.6263 -0.1945
  134CHL1   H3'16106   6.202   3.693  10.797 -1.3305 -2.2187 -1.5324
  134CHL1    C416107   6.213   3.867  10.946 -0.3906 -0.8631  0.1502
  134CHL1   H4A16108   6.289   3.877  10.866  0.5631 -1.0732  1.0144
  134CHL1   H4B16109   6.122   3.905  10.894 -0.7198 -1.2375  0.4514
  134CHL1    C516110   6.248   3.968  11.053  0.2826 -0.0602  0.0424
  134CHL1    C616111   6.164   4.069  11.085  0.2409 -0.1759  0.1236
  134CHL1    H616112   6.061   4.076  11.047 -0.1161 -2.2414  0.6170
  134CHL1    C716113   6.193   4.168  11.194  0.6912 -0.6473 -0.0776
  134CHL1   H7A16114   6.163   4.273  11.172 -0.8794 -0.7865  1.1384
  134CHL1   H7B16115   6.136   4.133  11.283  1.9602 -1.7075  0.3499
  134CHL1    C816116   6.341   4.172  11.243  0.3506 -0.4196 -0.3008
  134CHL1    H816117   6.398   4.227  11.165  1.6429 -1.9963 -0.5107
  134CHL1   C1416118   6.347   4.243  11.374 -0.2635  0.0155 -0.5210
  134CHL1   H1416119   6.298   4.176  11.448 -0.1308  0.5003  0.0102
  134CHL1   C1516120   6.283   4.378  11.389  0.1160 -0.2026 -0.3259
  134CHL1  H15A16121   6.324   4.433  11.301  0.4708  0.1752  0.0697
  134CHL1  H15B16122   6.173   4.386  11.376  0.3963  3.5516 -1.4870
  134CHL1   C1616123   6.353   4.438  11.513  0.1888  0.4974  0.4345
  134CHL1  H16A16124   6.389   4.539  11.483  1.5459 -0.4486 -1.3755
  134CHL1  H16B16125   6.285   4.448  11.600  0.6595  0.8688  0.7636
  134CHL1   C1716126   6.478   4.352  11.544 -0.0031 -0.6076 -0.0220
  134CHL1   H1716127   6.446   4.287  11.628 -1.3446  0.8377  0.6404
  134CHL1   C1316128   6.497   4.256  11.421  0.3806  0.1743  0.9468
  134CHL1   C1816129   6.586   4.333  11.321  0.3737  0.6851  0.3720
  134CHL1  H18A16130   6.590   4.282  11.223  1.3900  0.5649  0.4645
  134CHL1  H18B16131   6.559   4.440  11.302 -0.0129  0.2177 -2.0488
  134CHL1  H18C16132   6.689   4.341  11.363 -0.4146  1.5630  2.2609
  134CHL1   C1216133   6.543   4.117  11.447  0.4695 -0.2644  0.2698
  134CHL1  H12A16134   6.647   4.113  11.488  0.8411 -1.2801 -0.7324
  134CHL1  H12B16135   6.481   4.070  11.527  1.0469 -1.6878 -0.0866
  134CHL1   C1116136   6.536   4.036  11.317 -0.2566 -0.3568 -0.1411
  134CHL1  H11A16137   6.607   4.084  11.245 -2.7127  2.3293 -0.9878
  134CHL1  H11B16138   6.588   3.943  11.347 -1.1820 -0.5867  0.8079
  134CHL1    C916139   6.398   4.023  11.257 -0.1026 -0.4545 -0.9038
  134CHL1    H916140   6.328   3.987  11.336 -0.7405 -0.5734 -1.5054
  134CHL1   C1016141   6.385   3.943  11.124 -1.4680  0.0440  1.2767
  134CHL1   C1916142   6.496   3.980  11.025 -0.1061  0.3198  0.2025
  134CHL1  H19A16143   6.484   4.085  10.992  1.2071  0.3598 -0.1846
  134CHL1  H19B16144   6.596   3.969  11.072  0.7690  1.9262 -1.2094
  134CHL1  H19C16145   6.489   3.922  10.931  0.2081  1.4533 -0.5277
  134CHL1    C116146   6.393   3.793  11.160 -0.4694 -0.8943 -0.7696
  134CHL1   H1A16147   6.483   3.758  11.216 -0.0350  2.6023  1.0400
  134CHL1   H1B16148   6.304   3.773  11.224 -0.7021  0.3278 -0.6855
  134CHL1    C216149   6.360   3.693  11.051  0.1002 -0.1837 -0.9353
  134CHL1   H2A16150   6.367   3.589  11.088  1.7745  1.2502  3.4345
  134CHL1   H2B16151   6.443   3.710  10.978  1.6130 -0.7170  0.6080
  134CHL1   C2016152   6.606   4.427  11.597 -0.2656 -0.0265  1.1626
  134CHL1   H2016153   6.646   4.491  11.515 -2.1366 -0.3086 -0.0446
  134CHL1   C2116154   6.720   4.325  11.624  0.4769 -0.2583 -0.5300
  134CHL1  H21A16155   6.794   4.374  11.690  1.3679 -2.1262 -0.0550
  134CHL1  H21B16156   6.769   4.286  11.532 -0.4251 -0.6382 -0.8710
  134CHL1  H21C16157   6.679   4.235  11.676 -1.0349  1.0195  0.5890
  134CHL1   C2216158   6.588   4.520  11.713 -0.1000 -0.5523 -0.1038
  134CHL1  H22A16159   6.677   4.582  11.733 -1.2304  0.0173  4.1117
  134CHL1  H22B16160   6.513   4.596  11.682  0.8625  0.4554 -0.0255
  134CHL1   C2316161   6.548   4.450  11.848 -0.0620  0.4103 -0.1584
  134CHL1  H23A16162   6.449   4.408  11.819  1.0470  0.0347 -3.9189
  134CHL1  H23B16163   6.612   4.364  11.876 -0.1270  0.7229  1.0162
  134CHL1   C2416164   6.539   4.551  11.966 -0.1668  0.5617  0.5529
  134CHL1  H24A16165   6.503   4.648  11.925  0.6112 -0.0290 -1.6951
  134CHL1  H24B16166   6.461   4.505  12.031 -1.5934  0.8365 -0.9126
  134CHL1   C2516167   6.664   4.570  12.051 -0.1607 -0.4020  0.0705
  134CHL1   H2516168   6.757   4.584  11.991  0.0038  0.9444  0.5956
  134CHL1   C2616169   6.657   4.687  12.150  0.2619  0.6444  0.2952
  134CHL1  H26A16170   6.754   4.713  12.197 -0.1712  0.3762  1.3462
  134CHL1  H26B16171   6.629   4.778  12.092  0.8037  2.2615  2.4367
  134CHL1  H26C16172   6.584   4.670  12.231 -0.2436  0.4619 -0.1956
  134CHL1   C2716173   6.687   4.447  12.130 -0.0160  0.2921 -0.6873
  134CHL1  H27A16174   6.780   4.451  12.192  0.9347 -2.1862 -1.8499
  134CHL1  H27B16175   6.609   4.427  12.207  1.3891  0.4597  0.8501
  134CHL1  H27C16176   6.704   4.362  12.060  2.0519  0.8547 -0.9450
  135CHL1    C316177   7.756   3.173  11.103 -0.1869  0.1772 -0.1930
  135CHL1    H316178   7.813   3.264  11.134  0.7822 -0.5584  0.2423
  135CHL1    O316179   7.657   3.217  11.014 -0.2865  0.9225  0.4324
  135CHL1   H3'16180   7.624   3.135  10.978 -1.0333  0.3969  2.2146
  135CHL1    C416181   7.844   3.072  11.030  0.2135  0.0388 -0.1185
  135CHL1   H4A16182   7.778   2.984  11.012 -0.2934  0.4354 -0.2211
  135CHL1   H4B16183   7.889   3.119  10.941  0.9817  2.2196  1.3342
  135CHL1    C516184   7.946   3.022  11.131  0.3228  0.5780  0.0270
  135CHL1    C616185   8.073   3.024  11.102  0.5669  0.3014  0.3038
  135CHL1    H616186   8.095   3.072  11.006 -0.6153  2.7925  1.1824
  135CHL1    C716187   8.177   2.977  11.196  0.1632  0.3539  0.4893
  135CHL1   H7A16188   8.253   2.923  11.135 -0.5773 -0.6323  0.4218
  135CHL1   H7B16189   8.225   3.064  11.246 -2.6574  2.8901 -0.9418
  135CHL1    C816190   8.120   2.877  11.306 -0.3119 -0.5054  0.0934
  135CHL1    H816191   8.098   2.777  11.263  1.0173 -2.0556  2.7541
  135CHL1   C1416192   8.230   2.863  11.419 -0.2933  0.0106  1.0803
  135CHL1   H1416193   8.249   2.969  11.445 -1.8592  0.9468 -1.3197
  135CHL1   C1516194   8.370   2.817  11.373  0.2717 -0.5482  0.4855
  135CHL1  H15A16195   8.359   2.730  11.305  0.8386 -0.2997  0.0709
  135CHL1  H15B16196   8.420   2.904  11.326 -1.4250 -0.2044 -0.7766
  135CHL1   C1616197   8.427   2.766  11.510 -0.0912  0.2428 -0.1696
  135CHL1  H16A16198   8.433   2.656  11.499 -2.1900  0.0232  0.4240
  135CHL1  H16B16199   8.524   2.815  11.534  0.7199 -1.1927 -0.4719
  135CHL1   C1716200   8.312   2.789  11.615 -0.2448 -0.2382 -0.7674
  135CHL1   H1716201   8.320   2.891  11.656  1.9528 -0.6458 -0.0553
  135CHL1   C1316202   8.181   2.785  11.538 -0.2136  0.2692 -0.1835
  135CHL1   C1816203   8.143   2.636  11.508  0.3429 -0.3343 -0.5757
  135CHL1  H18A16204   8.089   2.601  11.599  0.2214  2.5008  0.5286
  135CHL1  H18B16205   8.084   2.628  11.414 -3.4358 -2.4090  1.6994
  135CHL1  H18C16206   8.237   2.581  11.489  1.6158  0.6896  2.2879
  135CHL1   C1216207   8.063   2.857  11.602 -0.0140 -0.0339 -0.2285
  135CHL1  H12A16208   8.019   2.797  11.684 -0.5624  0.2226 -0.3292
  135CHL1  H12B16209   8.096   2.948  11.655 -1.5065  0.1541  0.4155
  135CHL1   C1116210   7.956   2.878  11.498  0.5573 -0.3024  0.6542
  135CHL1  H11A16211   7.923   2.776  11.468  0.0713  0.2038 -0.6343
  135CHL1  H11B16212   7.879   2.940  11.549  0.8985  1.9704 -1.3920
  135CHL1    C916213   8.000   2.946  11.371 -0.0584  0.3333  0.7587
  135CHL1    H916214   8.037   3.050  11.382  0.8580  0.1659 -0.4589
  135CHL1   C1016215   7.889   2.960  11.261  0.3776 -0.2625  1.2912
  135CHL1   C1916216   7.825   2.826  11.223  0.4746 -0.2287 -0.0341
  135CHL1  H19A16217   7.731   2.846  11.167  0.8108  1.5265 -0.0302
  135CHL1  H19B16218   7.899   2.766  11.166  0.9157  0.6404 -0.3953
  135CHL1  H19C16219   7.796   2.770  11.314  0.1454  2.2979  1.4919
  135CHL1    C116220   7.784   3.055  11.316  0.3661 -0.0697  0.0638
  135CHL1   H1A16221   7.738   2.999  11.400  0.9251  0.5462  0.7924
  135CHL1   H1B16222   7.830   3.146  11.360 -0.5368  0.0873  0.7139
  135CHL1    C216223   7.680   3.109  11.225 -0.4201 -0.8763 -0.4434
  135CHL1   H2A16224   7.621   3.188  11.275  0.8812  1.0042 -1.7325
  135CHL1   H2B16225   7.604   3.036  11.189 -2.2480  0.1257  1.2012
  135CHL1   C2016226   8.337   2.706  11.745  0.3997  0.6968 -0.6075
  135CHL1   H2016227   8.356   2.601  11.712  0.8272  0.7956 -0.6888
  135CHL1   C2116228   8.224   2.712  11.849 -0.1616  0.4913 -0.3207
  135CHL1  H21A16229   8.266   2.681  11.946  1.3730  1.3087 -0.6865
  135CHL1  H21B16230   8.137   2.651  11.817  1.2114 -0.0514 -3.3657
  135CHL1  H21C16231   8.188   2.817  11.851  0.6634  0.8214 -1.4592
  135CHL1   C2216232   8.465   2.753  11.821  0.0324  0.0274  0.3562
  135CHL1  H22A16233   8.543   2.799  11.755 -0.3216  0.5775  0.3182
  135CHL1  H22B16234   8.422   2.822  11.896 -0.1134  0.1265  0.1846
  135CHL1   C2316235   8.539   2.650  11.905 -0.3286 -0.0554  0.0519
  135CHL1  H23A16236   8.476   2.565  11.939  1.8975 -1.2524  1.4374
  135CHL1  H23B16237   8.608   2.598  11.835  1.4053  2.6032 -0.3311
  135CHL1   C2416238   8.622   2.703  12.022  0.5357 -0.2848  0.2065
  135CHL1  H24A16239   8.690   2.779  11.978  2.4935 -1.6262  0.7757
  135CHL1  H24B16240   8.559   2.765  12.089  0.5492  2.3066 -2.0133
  135CHL1   C2516241   8.690   2.596  12.103 -0.0263 -0.3314  0.4988
  135CHL1   H2516242   8.747   2.533  12.031 -0.0860  0.2332 -0.0471
  135CHL1   C2616243   8.775   2.666  12.208  0.4696  0.6989  1.0175
  135CHL1  H26A16244   8.835   2.586  12.257 -1.2401 -1.9287 -0.8948
  135CHL1  H26B16245   8.847   2.723  12.146  1.0096 -0.1457  0.8409
  135CHL1  H26C16246   8.738   2.718  12.299 -0.4264 -1.9626  2.2836
  135CHL1   C2716247   8.587   2.506  12.176  0.1120 -1.0306  1.3528
  135CHL1  H27A16248   8.516   2.457  12.106  0.2216  0.8272 -0.1386
  135CHL1  H27B16249   8.632   2.423  12.234  2.1410 -1.0659 -0.1628
  135CHL1  H27C16250   8.533   2.573  12.247  2.1120 -1.8567  3.8094
  136CHL1    C316251   6.836   6.596  11.247  0.5629 -0.2308 -0.5080
  136CHL1    H316252   6.899   6.521  11.301 -0.9983 -2.1374 -1.2082
  136CHL1    O316253   6.824   6.535  11.119 -0.8250  0.1139  0.1493
  136CHL1   H3'16254   6.830   6.600  11.048  0.6327 -1.1438 -0.9493
  136CHL1    C416255   6.688   6.609  11.305 -0.3435 -0.2218  0.1465
  136CHL1   H4A16256   6.633   6.683  11.244  1.8480  1.2850 -0.1276
  136CHL1   H4B16257   6.627   6.516  11.307 -3.8071  1.8258 -1.0392
  136CHL1    C516258   6.699   6.663  11.455  0.2663 -0.4973  0.7588
  136CHL1    C616259   6.648   6.588  11.553  0.7195  0.2459 -0.3079
  136CHL1    H616260   6.595   6.497  11.522  0.4953 -0.2617  1.4798
  136CHL1    C716261   6.649   6.628  11.700 -0.5539  0.0931  0.1098
  136CHL1   H7A16262   6.548   6.626  11.746  0.1555  1.9148  1.8882
  136CHL1   H7B16263   6.709   6.557  11.761 -1.6943  2.0171  3.7817
  136CHL1    C816264   6.692   6.775  11.714 -0.1843  0.0137  0.1702
  136CHL1    H816265   6.606   6.834  11.674 -0.2401  0.3350  0.7557
  136CHL1   C1416266   6.710   6.815  11.861 -0.1839  0.5719 -0.0232
  136CHL1   H1416267   6.796   6.753  11.893 -1.1211  0.2713  2.1861
  136CHL1   C1516268   6.592   6.784  11.956 -1.0583 -0.1614  0.2469
  136CHL1  H15A16269   6.502   6.833  11.913 -0.7804  2.0118  2.0229
  136CHL1  H15B16270   6.586   6.675  11.977 -2.5817  0.0027  0.7980
  136CHL1   C1616271   6.641   6.859  12.084 -0.4535  0.0525  0.2826
  136CHL1  H16A16272   6.559   6.921  12.125  0.2430  0.6418  0.8025
  136CHL1  H16B16273   6.674   6.782  12.157 -2.4676 -1.1459  0.0234
  136CHL1   C1716274   6.764   6.948  12.048  0.3721  0.1231 -0.0887
  136CHL1   H1716275   6.850   6.883  12.074 -0.7268 -1.2207  0.3595
  136CHL1   C1316276   6.758   6.957  11.892  0.5102  0.1446 -0.4359
  136CHL1   C1816277   6.647   7.066  11.863  0.2790  0.6244  0.0348
  136CHL1  H18A16278   6.704   7.159  11.840  2.9591 -1.2990 -1.7403
  136CHL1  H18B16279   6.601   7.048  11.764  1.3473 -2.7778  0.0393
  136CHL1  H18C16280   6.577   7.076  11.949  1.9137 -1.0315  1.6453
  136CHL1   C1216281   6.892   6.982  11.819  0.4606 -0.0819 -0.0328
  136CHL1  H12A16282   6.928   7.087  11.829  1.2733 -0.4035  0.5433
  136CHL1  H12B16283   6.977   6.932  11.872  0.7490 -1.1839 -1.4829
  136CHL1   C1116284   6.889   6.938  11.669  0.0005 -0.2214 -0.2817
  136CHL1  H11A16285   6.846   7.029  11.623  2.9723  1.3318 -0.2580
  136CHL1  H11B16286   6.991   6.943  11.624  0.2902 -0.6481  0.3149
  136CHL1    C916287   6.819   6.806  11.632  0.1145 -1.1984  0.2781
  136CHL1    H916288   6.892   6.727  11.659 -0.8293 -1.9876  0.6074
  136CHL1   C1016289   6.781   6.790  11.478 -0.2254 -0.0913  0.6700
  136CHL1   C1916290   6.682   6.903  11.427 -0.2717  0.8050 -0.4790
  136CHL1  H19A16291   6.720   7.007  11.437 -1.6873  1.2955 -0.0206
  136CHL1  H19B16292   6.664   6.893  11.318  2.9331  0.7307 -1.1010
  136CHL1  H19C16293   6.586   6.908  11.482  0.5195  2.1861  0.8588
  136CHL1    C116294   6.916   6.781  11.389 -0.0526  0.0317  0.5136
  136CHL1   H1A16295   6.955   6.885  11.390 -0.9455  0.4129 -1.1537
  136CHL1   H1B16296   6.991   6.713  11.436  2.3756  1.3242 -1.2314
  136CHL1    C216297   6.891   6.736  11.241 -0.3762 -0.0045  0.0680
  136CHL1   H2A16298   6.992   6.738  11.195 -0.5013 -0.4834 -0.2364
  136CHL1   H2B16299   6.831   6.808  11.181  1.2070  1.5822  0.3071
  136CHL1   C2016300   6.787   7.089  12.119  1.0087 -0.4989  0.5704
  136CHL1   H2016301   6.730   7.170  12.069  1.6113 -1.1947 -1.3289
  136CHL1   C2116302   6.940   7.104  12.127  0.1129  0.1393  0.0365
  136CHL1  H21A16303   6.997   7.020  12.173 -0.1055 -0.1270 -0.1692
  136CHL1  H21B16304   6.959   7.197  12.185  1.9720  1.0462 -1.9211
  136CHL1  H21C16305   6.985   7.112  12.026 -2.7102 -2.7916 -1.6758
  136CHL1   C2216306   6.732   7.077  12.261  0.2962  0.1481  0.1817
  136CHL1  H22A16307   6.623   7.059  12.252 -0.1749  1.9843  1.5842
  136CHL1  H22B16308   6.788   6.999  12.317 -1.0137 -1.8068 -1.1097
  136CHL1   C2316309   6.727   7.209  12.326 -0.1855 -0.0060 -0.5125
  136CHL1  H23A16310   6.825   7.262  12.333 -0.5109  0.4210  1.6316
  136CHL1  H23B16311   6.672   7.292  12.277  2.5530  2.0765 -0.2855
  136CHL1   C2416312   6.692   7.197  12.471 -0.3596  0.3563  0.3219
  136CHL1  H24A16313   6.592   7.148  12.470 -0.9269  1.4842 -0.4624
  136CHL1  H24B16314   6.760   7.130  12.527  0.5203  0.4460 -0.6194
  136CHL1   C2516315   6.681   7.319  12.563 -0.4407 -0.2642  1.1021
  136CHL1   H2516316   6.779   7.370  12.552 -0.1303 -1.1211 -0.2645
  136CHL1   C2616317   6.577   7.416  12.502  0.4522 -0.0435  0.8452
  136CHL1  H26A16318   6.614   7.448  12.402  1.2432  1.9925  1.7424
  136CHL1  H26B16319   6.470   7.386  12.501  0.0713  1.2243  1.5639
  136CHL1  H26C16320   6.576   7.504  12.570 -1.4411 -0.0591  0.8988
  136CHL1   C2716321   6.643   7.281  12.706  0.3088  0.3235 -0.2357
  136CHL1  H27A16322   6.546   7.228  12.693 -0.2222  1.4065 -0.8425
  136CHL1  H27B16323   6.724   7.217  12.747 -1.2934 -3.1186 -2.0710
  136CHL1  H27C16324   6.629   7.371  12.770  0.4699 -0.8224  1.4925
  137CHL1    C316325   2.007   2.514  11.242  0.2112 -0.5342  0.2250
  137CHL1    H316326   2.038   2.414  11.280 -1.7579 -2.0338 -1.8647
  137CHL1    O316327   1.985   2.505  11.101 -0.6500  0.2391 -0.5994
  137CHL1   H3'16328   1.975   2.595  11.071  0.4465  1.3940  2.1802
  137CHL1    C416329   1.878   2.562  11.303 -0.0676  0.3555 -0.2673
  137CHL1   H4A16330   1.827   2.638  11.241 -3.1534  0.3283  2.0246
  137CHL1   H4B16331   1.797   2.486  11.296 -0.8851  1.1445  0.3800
  137CHL1    C516332   1.895   2.594  11.444 -0.2879  0.5592 -0.0495
  137CHL1    C616333   1.822   2.536  11.541 -0.0904 -0.1601 -0.3665
  137CHL1    H616334   1.741   2.470  11.507 -0.8673 -0.4944  1.9766
  137CHL1    C716335   1.817   2.581  11.689 -0.5295 -0.3508 -0.0918
  137CHL1   H7A16336   1.712   2.590  11.726 -0.2872 -2.5122  1.3256
  137CHL1   H7B16337   1.873   2.501  11.743 -2.7890 -2.5303 -0.7926
  137CHL1    C816338   1.896   2.713  11.704  0.2491 -0.2705 -0.1230
  137CHL1    H816339   1.833   2.799  11.671  0.9936 -0.0285 -0.9446
  137CHL1   C1416340   1.920   2.735  11.849 -0.6512  0.5423 -0.3727
  137CHL1   H1416341   2.001   2.663  11.874  1.0486  1.8049 -1.9764
  137CHL1   C1516342   1.805   2.714  11.948  0.0375  0.6381 -0.3937
  137CHL1  H15A16343   1.718   2.773  11.912 -0.4201  0.0218 -0.3347
  137CHL1  H15B16344   1.787   2.605  11.960  5.0347 -0.2487  1.4686
  137CHL1   C1616345   1.845   2.785  12.074  0.0447 -0.3350  0.3650
  137CHL1  H16A16346   1.770   2.860  12.106  0.1522  0.7421 -1.7163
  137CHL1  H16B16347   1.858   2.715  12.159 -2.1700  0.1401  1.1471
  137CHL1   C1716348   1.988   2.857  12.038 -0.2047  0.3317 -0.6056
  137CHL1   H1716349   2.070   2.788  12.068 -0.5303  0.5738  0.9164
  137CHL1   C1316350   1.980   2.873  11.886 -0.5363  0.7019 -0.0149
  137CHL1   C1816351   1.887   2.990  11.845  0.7079  0.4209  0.1339
  137CHL1  H18A16352   1.788   2.989  11.896  0.9052 -1.0011  0.5353
  137CHL1  H18B16353   1.934   3.089  11.860  0.2342  0.6373  0.2266
  137CHL1  H18C16354   1.846   2.986  11.742 -1.5493 -2.9202  0.9845
  137CHL1   C1216355   2.118   2.889  11.810 -0.2451 -0.0906  0.6663
  137CHL1  H12A16356   2.139   2.998  11.813  0.8436 -0.2003 -1.4583
  137CHL1  H12B16357   2.191   2.821  11.858 -0.8543 -0.8380  0.5470
  137CHL1   C1116358   2.104   2.860  11.662  0.0094  0.7863  0.1608
  137CHL1  H11A16359   2.043   2.944  11.622  0.9948  1.1719 -0.5545
  137CHL1  H11B16360   2.201   2.870  11.608  0.4907  0.8160  1.0196
  137CHL1    C916361   2.027   2.727  11.622  0.2453  0.0334 -0.8956
  137CHL1    H916362   2.098   2.651  11.659 -0.4292 -0.6150 -0.9149
  137CHL1   C1016363   2.002   2.697  11.472  0.0026 -0.4520 -0.3538
  137CHL1   C1916364   1.944   2.831  11.409  0.3972 -0.0975 -0.1255
  137CHL1  H19A16365   2.022   2.909  11.398 -0.1628  0.3738 -0.7985
  137CHL1  H19B16366   1.905   2.811  11.307 -0.8886  0.3051  0.2715
  137CHL1  H19C16367   1.860   2.882  11.460  3.0891  1.6828  2.9552
  137CHL1    C116368   2.138   2.658  11.406  0.6908 -0.4653 -0.0384
  137CHL1   H1A16369   2.211   2.736  11.435 -2.2541  3.0465 -1.3398
  137CHL1   H1B16370   2.165   2.567  11.464 -0.7669 -0.2514  1.0403
  137CHL1    C216371   2.122   2.614  11.261 -0.8102  0.3637  0.3341
  137CHL1   H2A16372   2.208   2.547  11.237 -1.6858 -0.2212 -1.3355
  137CHL1   H2B16373   2.116   2.696  11.187  2.6361 -0.6875 -1.3238
  137CHL1   C2016374   2.011   2.986  12.120 -0.3727  0.6094 -0.1304
  137CHL1   H2016375   1.949   3.070  12.080 -0.6850 -0.3186 -1.7032
  137CHL1   C2116376   2.163   3.022  12.111 -0.0004  0.0952  0.4733
  137CHL1  H21A16377   2.182   3.117  12.165  2.2423 -0.0721  0.0583
  137CHL1  H21B16378   2.200   3.029  12.007  1.3358  1.1276  0.9744
  137CHL1  H21C16379   2.225   2.943  12.158  2.2683  0.2524 -1.9948
  137CHL1   C2216380   1.963   2.968  12.265 -0.0207 -0.9880 -0.1603
  137CHL1  H22A16381   1.855   2.942  12.267 -0.2734  0.0351  0.2623
  137CHL1  H22B16382   2.021   2.880  12.303  0.6971 -2.3780 -4.0500
  137CHL1   C2316383   1.983   3.095  12.348 -0.4857 -0.2086 -1.1643
  137CHL1  H23A16384   2.093   3.114  12.345 -0.0376 -2.0654  0.7503
  137CHL1  H23B16385   1.938   3.182  12.296  0.5917  1.0680 -0.0527
  137CHL1   C2416386   1.938   3.078  12.496  0.6711  0.0084  0.4260
  137CHL1  H24A16387   1.830   3.052  12.484  1.3877 -3.9535  1.3334
  137CHL1  H24B16388   1.990   2.997  12.551 -1.4200 -1.2622  0.6723
  137CHL1   C2516389   1.950   3.199  12.584  0.9074  0.3874  0.5015
  137CHL1   H2516390   1.884   3.282  12.549  0.0885 -1.1973 -1.9837
  137CHL1   C2616391   1.887   3.161  12.719  0.1888 -0.4121 -0.4879
  137CHL1  H26A16392   1.787   3.114  12.710 -0.4268  0.8031 -0.2090
  137CHL1  H26B16393   1.959   3.091  12.768  2.7163  1.0285 -1.9094
  137CHL1  H26C16394   1.889   3.254  12.780 -1.3908 -1.2041  0.8321
  137CHL1   C2716395   2.088   3.247  12.598 -1.2265 -0.3353  1.0132
  137CHL1  H27A16396   2.142   3.273  12.505 -0.1421  0.0860  1.7402
  137CHL1  H27B16397   2.088   3.343  12.654 -1.7825 -0.4342  1.1850
  137CHL1  H27C16398   2.155   3.168  12.640  1.0692  0.2024 -1.3332
  138CHL1    C316399   7.250   0.499  11.384 -0.1091 -0.1561 -0.2392
  138CHL1    H316400   7.219   0.604  11.366  2.6557  0.4621 -1.9550
  138CHL1    O316401   7.259   0.429  11.265 -0.4509  0.3441 -0.0337
  138CHL1   H3'16402   7.172   0.393  11.248  0.3775 -1.8312  0.0070
  138CHL1    C416403   7.385   0.518  11.449 -0.4626  0.0607  0.0201
  138CHL1   H4A16404   7.436   0.421  11.459  0.0451  0.3509  0.2902
  138CHL1   H4B16405   7.447   0.578  11.379  1.4348  0.4422  1.9308
  138CHL1    C516406   7.362   0.590  11.576  0.4500 -0.2090  0.1836
  138CHL1    C616407   7.427   0.702  11.603  0.2473 -0.0505  0.2138
  138CHL1    H616408   7.495   0.744  11.527  0.2008  1.8971  1.1771
  138CHL1    C716409   7.396   0.796  11.719 -0.0807  0.2339 -0.2592
  138CHL1   H7A16410   7.488   0.851  11.746 -0.0064 -0.2178  0.4361
  138CHL1   H7B16411   7.316   0.862  11.679  2.1554  1.6630 -2.7137
  138CHL1    C816412   7.351   0.716  11.841  0.4898  0.2824 -0.2202
  138CHL1    H816413   7.433   0.649  11.874 -0.4793 -0.9279 -0.2141
  138CHL1   C1416414   7.308   0.812  11.949 -0.5568 -0.0550 -0.1120
  138CHL1   H1416415   7.219   0.867  11.914 -1.6140  0.0129  2.5091
  138CHL1   C1516416   7.398   0.925  11.986  1.2943  0.2592  0.4987
  138CHL1  H15A16417   7.508   0.909  11.978  1.1645 -0.3798 -0.1041
  138CHL1  H15B16418   7.379   1.013  11.922  0.8239  0.7514  1.3021
  138CHL1   C1616419   7.352   0.958  12.132  0.3571  0.2071  0.1593
  138CHL1  H16A16420   7.442   0.932  12.190  1.9819  2.5263 -1.1632
  138CHL1  H16B16421   7.335   1.066  12.154 -0.1823  0.3847 -1.0088
  138CHL1   C1716422   7.234   0.864  12.161  0.6334 -0.3074  0.7937
  138CHL1   H1716423   7.144   0.906  12.113  0.8550 -0.9669 -0.2339
  138CHL1   C1316424   7.261   0.738  12.074  0.1542  0.3111 -0.2201
  138CHL1   C1816425   7.376   0.655  12.140  0.3684 -0.3172 -0.1558
  138CHL1  H18A16426   7.342   0.614  12.237 -4.0780  1.7281 -0.5916
  138CHL1  H18B16427   7.407   0.573  12.071 -0.5170 -0.8175  0.0236
  138CHL1  H18C16428   7.468   0.715  12.150 -0.2828  0.5752  0.6081
  138CHL1   C1216429   7.132   0.664  12.030 -0.4983 -0.4359  0.7222
  138CHL1  H12A16430   7.096   0.611  12.120  1.0205 -1.4483  0.7733
  138CHL1  H12B16431   7.061   0.743  11.995 -0.9901 -0.3716  1.8198
  138CHL1   C1116432   7.149   0.563  11.914 -0.0170 -0.4347  0.1437
  138CHL1  H11A16433   7.202   0.477  11.959  0.3550 -0.1185  0.3180
  138CHL1  H11B16434   7.052   0.526  11.874 -0.1984  0.7903 -0.6151
  138CHL1    C916435   7.234   0.624  11.797 -0.2287 -0.3018 -0.6885
  138CHL1    H916436   7.164   0.694  11.747 -0.1042  0.0914 -0.3156
  138CHL1   C1016437   7.263   0.522  11.680 -0.1868  0.1690 -0.1260
  138CHL1   C1916438   7.339   0.401  11.748  0.4074  0.2174  0.1646
  138CHL1  H19A16439   7.266   0.343  11.808  0.4341  2.4407  2.5146
  138CHL1  H19B16440   7.395   0.330  11.683 -0.5695  0.1322 -0.6201
  138CHL1  H19C16441   7.406   0.449  11.821 -2.0823  0.9509  2.1233
  138CHL1    C116442   7.127   0.483  11.608 -0.7269 -0.5164  1.2015
  138CHL1   H1A16443   7.070   0.426  11.684  0.4078  1.0098  3.2728
  138CHL1   H1B16444   7.080   0.581  11.585 -1.6197 -0.9992  0.8932
  138CHL1    C216445   7.150   0.414  11.471 -1.3573 -0.2698  0.4913
  138CHL1   H2A16446   7.054   0.411  11.416 -0.9007 -1.8150 -0.2993
  138CHL1   H2B16447   7.184   0.309  11.488 -1.2493 -0.1119  1.2886
  138CHL1   C2016448   7.200   0.830  12.313 -0.1897  0.3359  0.1896
  138CHL1   H2016449   7.183   0.720  12.316  2.2262 -0.1866 -1.5992
  138CHL1   C2116450   7.064   0.897  12.360 -0.6299  0.6690 -0.1423
  138CHL1  H21A16451   6.975   0.860  12.305 -0.1675  1.3940 -1.4321
  138CHL1  H21B16452   7.079   1.007  12.354  0.0138  0.6225  0.4515
  138CHL1  H21C16453   7.054   0.876  12.468 -0.1412 -0.8799 -0.3742
  138CHL1   C2216454   7.318   0.859  12.407  0.2312 -0.8287  0.6909
  138CHL1  H22A16455   7.412   0.813  12.371  0.4527  0.0132  0.1753
  138CHL1  H22B16456   7.331   0.968  12.420  0.5267 -0.6345 -1.0802
  138CHL1   C2316457   7.291   0.798  12.539 -0.8428 -0.1136 -0.4889
  138CHL1  H23A16458   7.202   0.842  12.589 -0.3903  0.4917 -0.2154
  138CHL1  H23B16459   7.284   0.687  12.538  1.1265 -0.3506  1.8951
  138CHL1   C2416460   7.406   0.834  12.639  0.4627  0.2098  0.2917
  138CHL1  H24A16461   7.495   0.784  12.595 -1.1338 -1.3786 -1.2542
  138CHL1  H24B16462   7.425   0.943  12.631  1.2424  0.0578 -0.0552
  138CHL1   C2516463   7.392   0.799  12.786 -0.4686 -0.7203  0.2797
  138CHL1   H2516464   7.395   0.689  12.798  2.5804 -0.7813 -0.3022
  138CHL1   C2616465   7.501   0.842  12.892 -0.6638 -0.5033  0.3816
  138CHL1  H26A16466   7.507   0.953  12.896  2.3599 -0.5861  0.6548
  138CHL1  H26B16467   7.497   0.800  12.995  1.6800 -0.5098  0.5315
  138CHL1  H26C16468   7.597   0.807  12.849  0.1737  2.9610 -0.9693
  138CHL1   C2716469   7.261   0.858  12.841  0.8644  0.3732  0.0279
  138CHL1  H27A16470   7.173   0.816  12.789  0.1759  1.2557  0.4609
  138CHL1  H27B16471   7.254   0.842  12.951 -0.8225 -2.0068 -0.3472
  138CHL1  H27C16472   7.260   0.968  12.823  0.4733  0.4099  0.2602
  139CHL1    C316473   7.970   6.964  11.185  0.5459 -0.1734 -0.1199
  139CHL1    H316474   7.943   7.066  11.151 -0.9610 -0.3504  0.4899
  139CHL1    O316475   7.952   6.870  11.078  0.0077  0.6081  0.3363
  139CHL1   H3'16476   7.970   6.922  10.999  0.2733  1.2046  0.7749
  139CHL1    C416477   8.122   6.972  11.223 -0.3185 -0.1355 -0.9115
  139CHL1   H4A16478   8.171   6.873  11.238  1.5166  1.1163  2.0713
  139CHL1   H4B16479   8.175   7.017  11.136  0.3810  1.3804  0.2425
  139CHL1    C516480   8.151   7.060  11.339  0.2505 -0.2598 -0.0142
  139CHL1    C616481   8.243   7.159  11.332  0.3961 -0.0614 -0.0208
  139CHL1    H616482   8.301   7.174  11.240 -1.9321 -0.3265 -1.5896
  139CHL1    C716483   8.275   7.257  11.444 -0.5281 -0.5187  0.6315
  139CHL1   H7A16484   8.385   7.274  11.446 -0.5983  0.1276 -0.4298
  139CHL1   H7B16485   8.233   7.354  11.411  1.4453  0.0039 -0.4918
  139CHL1    C816486   8.211   7.217  11.588  0.0176  0.4349 -0.3424
  139CHL1    H816487   8.285   7.151  11.638  1.4869  2.5817  0.4555
  139CHL1   C1416488   8.189   7.337  11.680 -0.7026 -1.1418  0.5752
  139CHL1   H1416489   8.098   7.387  11.639  1.5389  2.3624 -0.6177
  139CHL1   C1516490   8.299   7.445  11.688 -0.3919  0.2638  0.3074
  139CHL1  H15A16491   8.398   7.396  11.697 -0.2978  0.5834  1.0582
  139CHL1  H15B16492   8.297   7.513  11.600  0.0973  1.7785  1.4079
  139CHL1   C1616493   8.275   7.511  11.823 -0.4426 -0.1992  0.2729
  139CHL1  H16A16494   8.362   7.483  11.886 -0.1496  0.2425  0.0694
  139CHL1  H16B16495   8.267   7.621  11.808 -0.7325 -0.6666 -5.3467
  139CHL1   C1716496   8.147   7.447  11.881  0.7597 -0.2336  0.4341
  139CHL1   H1716497   8.068   7.505  11.829  1.7046 -0.0124 -0.8265
  139CHL1   C1316498   8.139   7.303  11.818  0.7331 -0.1149 -0.7636
  139CHL1   C1816499   8.241   7.214  11.895 -0.5200 -0.0541 -0.8944
  139CHL1  H18A16500   8.186   7.168  11.980  1.0262  0.5606  0.4828
  139CHL1  H18B16501   8.275   7.130  11.830  0.1050 -1.3233  0.9884
  139CHL1  H18C16502   8.332   7.268  11.928 -0.9059 -1.3228  2.6776
  139CHL1   C1216503   7.998   7.231  11.807  0.0781 -0.0498  0.0321
  139CHL1  H12A16504   7.973   7.202  11.911  1.2215  0.6844  0.5222
  139CHL1  H12B16505   7.931   7.313  11.775 -0.4287 -0.7530 -0.7585
  139CHL1   C1116506   8.010   7.110  11.713 -0.2025 -0.7131 -0.7522
  139CHL1  H11A16507   8.059   7.025  11.766 -2.4373 -1.7576 -0.1938
  139CHL1  H11B16508   7.902   7.080  11.710 -0.6306  0.5058  1.0681
  139CHL1    C916509   8.075   7.147  11.572  0.2617 -0.5681  0.4411
  139CHL1    H916510   8.008   7.225  11.531  0.3349 -0.1715  1.0580
  139CHL1   C1016511   8.067   7.029  11.466  0.1424 -0.9605 -0.2562
  139CHL1   C1916512   8.131   6.909  11.523  0.2843  0.4424  0.3145
  139CHL1  H19A16513   8.141   6.832  11.444  2.8881  1.1891 -0.1991
  139CHL1  H19B16514   8.230   6.936  11.567  0.6202  0.2957 -0.3393
  139CHL1  H19C16515   8.075   6.870  11.611 -0.1091  1.3445  0.4728
  139CHL1    C116516   7.917   7.004  11.435 -0.3241  0.5704 -0.3213
  139CHL1   H1A16517   7.858   6.956  11.516 -1.4401  1.0427 -0.8283
  139CHL1   H1B16518   7.852   7.093  11.419  0.8378  1.1768 -1.8254
  139CHL1    C216519   7.887   6.923  11.308 -0.4495  0.6621 -0.1021
  139CHL1   H2A16520   7.780   6.914  11.279 -0.3394  0.7414 -0.5382
  139CHL1   H2B16521   7.910   6.822  11.348  0.5676  0.1325 -1.9653
  139CHL1   C2016522   8.122   7.465  12.030  0.7533 -0.3403 -0.4331
  139CHL1   H2016523   8.201   7.405  12.079 -0.8376  0.5534  3.6918
  139CHL1   C2116524   7.982   7.413  12.086  0.4843  0.3305  0.4906
  139CHL1  H21A16525   7.890   7.444  12.030  0.5390  0.9268  0.7252
  139CHL1  H21B16526   7.975   7.441  12.193  1.1602  0.7874  0.4168
  139CHL1  H21C16527   7.978   7.302  12.082  4.1189  0.1037  0.3097
  139CHL1   C2216528   8.136   7.613  12.069 -0.9082 -0.5868 -0.0430
  139CHL1  H22A16529   8.235   7.650  12.034  0.3830 -0.0061  3.7358
  139CHL1  H22B16530   8.046   7.663  12.027 -0.6232  0.2180  0.2733
  139CHL1   C2316531   8.150   7.632  12.219 -0.0976  0.0095 -0.9006
  139CHL1  H23A16532   8.052   7.602  12.263  1.5152 -0.4847  2.7114
  139CHL1  H23B16533   8.235   7.565  12.241 -1.0608 -1.0020 -0.1608
  139CHL1   C2416534   8.199   7.780  12.250 -0.0009 -0.4107  0.4100
  139CHL1  H24A16535   8.275   7.793  12.170 -0.1441 -1.7185  0.0504
  139CHL1  H24B16536   8.120   7.851  12.216  0.2173 -0.6316 -0.5857
  139CHL1   C2516537   8.255   7.816  12.385  0.5122 -0.2106  0.0292
  139CHL1   H2516538   8.344   7.753  12.404  1.8771  1.1462 -1.5634
  139CHL1   C2616539   8.318   7.956  12.366 -0.4868  1.0425  0.2865
  139CHL1  H26A16540   8.398   7.956  12.289  0.0213  0.9392  0.7989
  139CHL1  H26B16541   8.252   8.040  12.339  0.7166  1.9951  0.2218
  139CHL1  H26C16542   8.368   7.977  12.463  0.9604 -1.4358  0.1779
  139CHL1   C2716543   8.147   7.794  12.493 -0.4367 -0.1905 -0.6640
  139CHL1  H27A16544   8.046   7.832  12.465 -0.1484  2.6287  1.5729
  139CHL1  H27B16545   8.140   7.691  12.534  0.2379  0.1373  0.3251
  139CHL1  H27C16546   8.171   7.866  12.574  3.5650  0.8133 -2.4921
  140CHL1    C316547   7.505   7.747  11.273  0.7350  0.1203  0.6510
  140CHL1    H316548   7.519   7.676  11.358 -1.3818 -0.7120  0.3743
  140CHL1    O316549   7.454   7.676  11.155 -0.3163  0.2100  0.3349
  140CHL1   H3'16550   7.435   7.752  11.100 -0.5763 -0.0801  0.0196
  140CHL1    C416551   7.394   7.840  11.334  0.1602  0.1500 -0.2485
  140CHL1   H4A16552   7.364   7.918  11.259  0.1555  0.6970  0.3131
  140CHL1   H4B16553   7.300   7.782  11.346 -0.1207  0.4070 -1.1150
  140CHL1    C516554   7.449   7.896  11.466 -0.0703  0.6114 -0.5941
  140CHL1    C616555   7.387   7.876  11.583  0.2567  0.5358 -1.2181
  140CHL1    H616556   7.305   7.803  11.593  1.3390 -0.4549  1.1817
  140CHL1    C716557   7.432   7.947  11.710 -0.2850 -0.0804  0.8221
  140CHL1   H7A16558   7.350   7.980  11.778 -0.9211 -1.1517  0.6049
  140CHL1   H7B16559   7.498   7.875  11.762  0.8443  0.4241  0.1140
  140CHL1    C816560   7.520   8.068  11.681 -0.2041  0.3865  0.6230
  140CHL1    H816561   7.459   8.155  11.648  0.4645  1.2585  1.6309
  140CHL1   C1416562   7.586   8.116  11.805  0.6735 -0.3304  0.2737
  140CHL1   H1416563   7.649   8.031  11.841  0.6846 -0.9164 -1.0637
  140CHL1   C1516564   7.491   8.145  11.928 -0.6941  0.1499 -0.0812
  140CHL1  H15A16565   7.404   8.203  11.890 -2.5954 -2.3845  0.0682
  140CHL1  H15B16566   7.463   8.047  11.974  1.8743 -0.3018  0.6516
  140CHL1   C1616567   7.580   8.237  12.016  0.3894  0.0621  0.3055
  140CHL1  H16A16568   7.529   8.334  12.035  2.0400  0.6307  2.1373
  140CHL1  H16B16569   7.585   8.182  12.113  2.5331 -3.8968 -1.7704
  140CHL1   C1716570   7.715   8.248  11.942 -0.2143 -0.3549 -0.2087
  140CHL1   H1716571   7.777   8.160  11.973 -1.2584 -0.5639  1.3827
  140CHL1   C1316572   7.681   8.235  11.796  0.0053 -0.5208  0.2763
  140CHL1   C1816573   7.617   8.368  11.752  0.1804 -0.9147 -0.2908
  140CHL1  H18A16574   7.554   8.346  11.664  0.6542 -0.9530 -0.6280
  140CHL1  H18B16575   7.550   8.405  11.832  0.5469 -2.2200  0.6544
  140CHL1  H18C16576   7.687   8.446  11.715  0.9419 -0.3869  2.0625
  140CHL1   C1216577   7.796   8.194  11.706 -0.7551 -0.1286 -0.3849
  140CHL1  H12A16578   7.873   8.272  11.687 -1.3063  2.0365  4.7245
  140CHL1  H12B16579   7.843   8.108  11.756 -1.0162 -0.2728 -0.3831
  140CHL1   C1116580   7.742   8.148  11.572  0.9537  0.0808  0.0255
  140CHL1  H11A16581   7.708   8.232  11.509 -1.5460  0.8870  2.2634
  140CHL1  H11B16582   7.828   8.104  11.516  1.7035  1.4585  0.0694
  140CHL1    C916583   7.627   8.038  11.585  0.0938  0.5339  0.5327
  140CHL1    H916584   7.678   7.946  11.621 -1.3701 -0.1313  0.9458
  140CHL1   C1016585   7.569   7.991  11.442  0.2262  0.5805  0.3198
  140CHL1   C1916586   7.517   8.116  11.356  0.7106  0.3748 -1.0009
  140CHL1  H19A16587   7.612   8.167  11.328  1.0964  0.2512  0.0077
  140CHL1  H19B16588   7.455   8.093  11.268 -0.5673 -1.3429  0.2794
  140CHL1  H19C16589   7.457   8.182  11.423  2.4815  1.9277 -0.8568
  140CHL1    C116590   7.679   7.901  11.372  0.1278  0.2002  0.2224
  140CHL1   H1A16591   7.770   7.960  11.347  0.1856  0.3531  0.7756
  140CHL1   H1B16592   7.720   7.810  11.423 -2.0603 -1.3747 -0.6709
  140CHL1    C216593   7.632   7.832  11.244  0.4709 -0.4471  0.1502
  140CHL1   H2A16594   7.727   7.779  11.219  0.2570 -0.2852 -1.0534
  140CHL1   H2B16595   7.616   7.900  11.158 -1.8452  0.1320  0.9675
  140CHL1   C2016596   7.795   8.374  11.990  0.2527 -0.2951 -0.0771
  140CHL1   H2016597   7.750   8.470  11.958  0.0202 -0.1294  0.7376
  140CHL1   C2116598   7.937   8.380  11.933  0.3926 -0.2787 -1.0343
  140CHL1  H21A16599   7.923   8.406  11.826 -3.6266  0.6109 -0.4763
  140CHL1  H21B16600   7.977   8.276  11.939  1.0106  0.0188  0.2828
  140CHL1  H21C16601   8.006   8.447  11.989 -1.9688  0.8343  0.7318
  140CHL1   C2216602   7.798   8.374  12.145  0.3611 -0.0358  0.7019
  140CHL1  H22A16603   7.843   8.470  12.178  1.5874 -0.5250  0.5046
  140CHL1  H22B16604   7.693   8.377  12.180 -0.6378  1.1368 -2.0952
  140CHL1   C2316605   7.886   8.260  12.200 -0.5564 -0.2851  1.1468
  140CHL1  H23A16606   7.855   8.162  12.156  0.9962 -0.0429 -0.6128
  140CHL1  H23B16607   7.992   8.267  12.167 -0.8986 -0.4867 -0.0227
  140CHL1   C2416608   7.879   8.242  12.350 -0.3024 -0.2420  0.4082
  140CHL1  H24A16609   7.782   8.266  12.400 -0.2567  0.4155  0.1854
  140CHL1  H24B16610   7.896   8.134  12.370  2.2073 -0.0323 -0.2828
  140CHL1   C2516611   7.992   8.320  12.432 -0.3554 -0.2614  0.5185
  140CHL1   H2516612   8.088   8.307  12.377 -2.1273 -0.0068 -2.8805
  140CHL1   C2616613   7.996   8.270  12.576 -0.5470 -0.6225  0.0654
  140CHL1  H26A16614   8.017   8.162  12.586 -0.0861 -0.7031 -1.5246
  140CHL1  H26B16615   8.070   8.328  12.635 -2.1084  1.8357 -0.2191
  140CHL1  H26C16616   7.901   8.297  12.627 -0.2693 -1.3299  0.9783
  140CHL1   C2716617   7.978   8.471  12.435  0.8359  0.4156  0.4369
  140CHL1  H27A16618   7.986   8.526  12.339 -1.5508  1.4100  0.7281
  140CHL1  H27B16619   7.876   8.486  12.477  0.9579 -0.2083  0.9730
  140CHL1  H27C16620   8.047   8.503  12.516  1.1971 -1.1866  0.7890
  141DOPC     N16621   6.285   3.562  14.113  0.1317  0.2527  0.2812
  141DOPC   C1216622   6.188   3.510  14.213 -0.2346 -0.0792 -0.1153
  141DOPC  H12A16623   6.204   3.563  14.305 -1.5604 -0.2283  0.2181
  141DOPC  H12B16624   6.212   3.405  14.227  1.3443  0.1846 -0.6230
  141DOPC   C1316625   6.277   3.492  13.988  0.2913  0.0042 -0.2282
  141DOPC  H13A16626   6.308   3.389  13.992 -1.0027 -0.3728  1.5152
  141DOPC  H13B16627   6.178   3.482  13.946  0.3041  0.0832 -0.2775
  141DOPC  H13C16628   6.333   3.536  13.908 -2.5303  0.0380 -2.3358
  141DOPC   C1416629   6.421   3.544  14.167 -0.2467  0.3712  0.4255
  141DOPC  H14A16630   6.437   3.601  14.258  1.1796 -0.2522  0.5888
  141DOPC  H14B16631   6.446   3.443  14.194 -0.5313  0.4681  1.0719
  141DOPC  H14C16632   6.483   3.589  14.091 -1.1609 -1.0164 -1.1984
  141DOPC   C1516633   6.257   3.707  14.090  0.4010 -0.0050  0.3022
  141DOPC  H15A16634   6.323   3.748  14.015 -3.1674 -0.4944 -3.4644
  141DOPC  H15B16635   6.271   3.764  14.180  4.3150 -0.4467  0.1593
  141DOPC  H15C16636   6.163   3.711  14.038 -0.4361 -0.2181  1.7452
  141DOPC   C1116637   6.041   3.521  14.173 -0.5344 -0.1304  0.2306
  141DOPC  H11A16638   5.981   3.467  14.249  0.8532  1.2089  2.3921
  141DOPC  H11B16639   6.010   3.628  14.164 -1.6286 -0.5425 -1.4848
  141DOPC     P16640   5.947   3.325  14.016  0.2791 -0.1781 -0.0268
  141DOPC   O1316641   5.972   3.233  14.133 -0.1949  0.1419 -0.0580
  141DOPC   O1416642   5.987   3.282  13.883  0.3337 -0.1500 -0.5577
  141DOPC   O1216643   6.007   3.470  14.042  0.1676  0.4667 -0.1703
  141DOPC   O1116644   5.789   3.348  14.024  0.2726 -0.2064 -0.6205
  141DOPC    C116645   5.732   3.470  13.969  0.6361 -0.3858 -0.1487
  141DOPC    HA16646   5.644   3.425  13.917  2.2711 -2.6070 -1.1464
  141DOPC    HB16647   5.796   3.514  13.890 -0.6872  1.6212 -0.1601
  141DOPC    C216648   5.690   3.565  14.077  0.4228 -1.1350 -0.0989
  141DOPC    HS16649   5.754   3.554  14.168  1.0667 -1.0498 -0.5338
  141DOPC   O2116650   5.556   3.532  14.113 -0.3131 -0.4221 -0.0782
  141DOPC   C2116651   5.500   3.590  14.218 -0.3480 -1.1679  0.4949
  141DOPC   O2216652   5.555   3.672  14.291 -0.7586 -0.1591 -0.1439
  141DOPC   C2216653   5.355   3.567  14.222  0.8959  0.3664 -0.1956
  141DOPC   H2R16654   5.317   3.609  14.317  1.2582 -0.6993  0.4403
  141DOPC   H2S16655   5.327   3.460  14.210 -0.5700  0.7142 -0.0732
  141DOPC    C316656   5.700   3.710  14.018 -0.1577  0.7610 -0.1358
  141DOPC    HX16657   5.809   3.733  14.012  0.3995 -1.7261 -0.5354
  141DOPC    HY16658   5.653   3.775  14.095  0.6447 -0.9644  1.9047
  141DOPC   O3116659   5.644   3.713  13.885  0.2739 -0.1007  0.2149
  141DOPC   C3116660   5.651   3.832  13.833  0.7512 -0.1365  0.3212
  141DOPC   O3216661   5.696   3.933  13.881  0.2766 -0.2749  0.2328
  141DOPC   C3216662   5.561   3.823  13.710 -0.1395  0.4805 -0.3867
  141DOPC   H2X16663   5.593   3.762  13.623 -0.6198 -2.9292  1.6405
  141DOPC   H2Y16664   5.471   3.774  13.754  0.1236 -0.8918 -1.3284
  141DOPC   C2316665   5.281   3.647  14.112  0.2204 -0.4182 -0.0388
  141DOPC   H3R16666   5.187   3.594  14.086 -0.6749  1.4166 -0.7303
  141DOPC   H3S16667   5.345   3.646  14.021  1.4530  0.0198  0.8058
  141DOPC   C2416668   5.243   3.789  14.161 -0.5510 -0.7239  0.6257
  141DOPC   H4R16669   5.329   3.847  14.200 -1.8479  0.7006  1.4486
  141DOPC   H4S16670   5.169   3.792  14.244  1.9147  0.4239  2.9120
  141DOPC   C2516671   5.182   3.886  14.053 -0.5344 -0.1569  0.4882
  141DOPC   H5R16672   5.162   3.984  14.103 -2.0849 -0.1954 -0.0068
  141DOPC   H5S16673   5.087   3.848  14.012 -0.7643 -2.2522  2.7548
  141DOPC   C2616674   5.274   3.907  13.932  0.6072 -0.1591  0.1321
  141DOPC   H6R16675   5.282   3.814  13.873  1.0153 -0.6980  1.0184
  141DOPC   H6S16676   5.379   3.937  13.954  0.7054 -0.8189  0.6022
  141DOPC   C2716677   5.205   4.019  13.850  0.2092 -0.4978  0.5363
  141DOPC   H7R16678   5.276   4.060  13.776 -0.4073 -1.3802 -0.5741
  141DOPC   H7S16679   5.172   4.097  13.921 -1.4015 -0.0931 -0.5967
  141DOPC   C2816680   5.080   3.963  13.767  0.0940 -0.2112  0.0095
  141DOPC   H8R16681   5.039   4.053  13.716  0.4121 -0.0794 -0.0103
  141DOPC   H8S16682   5.006   3.951  13.849 -0.5995  4.2730  0.2749
  141DOPC   C2916683   5.092   3.847  13.662 -0.2927  0.0688  0.0463
  141DOPC   H9R16684   5.098   3.747  13.706 -0.7838  0.1149  0.2281
  141DOPC  C21016685   5.114   3.857  13.529  0.4165 -0.3119  0.0598
  141DOPC  H10R16686   5.148   3.771  13.469 -0.2270 -0.6329  0.1537
  141DOPC  C21116687   5.121   3.976  13.443  0.4372 -0.1559  0.6886
  141DOPC  H11R16688   5.212   3.978  13.379 -1.1883  0.1649 -1.7662
  141DOPC  H11S16689   5.122   4.063  13.511  1.6459 -0.8751  1.6133
  141DOPC  C21216690   5.004   3.992  13.346  0.3296 -0.2495  0.2399
  141DOPC  H12R16691   4.977   3.897  13.294 -0.0643 -0.2057  0.3595
  141DOPC  H12S16692   5.035   4.062  13.265 -0.7500  0.2722  0.2475
  141DOPC  C21316693   4.877   4.054  13.412  0.0753  0.5188  0.1933
  141DOPC  H13R16694   4.929   4.133  13.470  1.8320  0.3283 -1.0300
  141DOPC  H13S16695   4.818   3.987  13.478 -0.5040 -0.1920 -1.0100
  141DOPC  C21416696   4.792   4.118  13.304  0.4093 -0.7069 -0.1748
  141DOPC  H14R16697   4.834   4.209  13.257  0.6910  0.3562  2.0414
  141DOPC  H14S16698   4.698   4.151  13.352 -0.5809 -0.1023 -2.4004
  141DOPC  C21516699   4.750   4.023  13.193 -0.0328  0.0549 -0.3070
  141DOPC  H15R16700   4.725   3.924  13.237  0.9111  0.5175  1.3216
  141DOPC  H15S16701   4.839   4.003  13.129 -0.1863 -0.3719 -0.3972
  141DOPC  C21616702   4.630   4.066  13.111 -0.1043 -0.5704 -0.3293
  141DOPC  H16R16703   4.650   4.171  13.081 -1.6322 -0.4626 -1.0422
  141DOPC  H16S16704   4.544   4.053  13.179  0.5890  2.0066  1.1841
  141DOPC  C21716705   4.602   3.990  12.982 -0.3617 -0.0984 -0.1615
  141DOPC  H17R16706   4.591   3.886  13.016 -1.7208 -0.2389 -0.9432
  141DOPC  H17S16707   4.686   4.013  12.911 -0.2591  0.6734  0.1950
  141DOPC  C21816708   4.468   4.032  12.906  0.4985 -0.6369  0.8718
  141DOPC  H18R16709   4.387   4.043  12.981  0.5669  3.6116  0.5819
  141DOPC  H18S16710   4.439   3.976  12.815 -1.1985  0.4591  0.6869
  141DOPC  H18T16711   4.481   4.135  12.867  0.9419 -0.6029  1.0957
  141DOPC   C3316712   5.515   3.953  13.647 -0.0607 -1.0586  0.5015
  141DOPC   H3X16713   5.507   4.029  13.727 -0.3963 -2.3180  1.6999
  141DOPC   H3Y16714   5.410   3.949  13.611 -0.4466  0.2087  1.4444
  141DOPC   C3416715   5.614   4.004  13.542 -0.2544  0.2644 -0.8251
  141DOPC   H4X16716   5.586   3.952  13.448 -1.8769  0.2579 -0.3684
  141DOPC   H4Y16717   5.720   3.987  13.571 -0.4838 -0.2948 -0.2936
  141DOPC   C3516718   5.587   4.152  13.508  0.1182  0.3092 -0.6343
  141DOPC   H5X16719   5.612   4.209  13.600  0.4685 -0.9087  0.0509
  141DOPC   H5Y16720   5.488   4.169  13.461  0.0394  0.1998 -0.5063
  141DOPC   C3616721   5.696   4.196  13.402 -0.1930  0.2564 -0.0162
  141DOPC   H6X16722   5.800   4.176  13.437 -0.2492  1.2615  0.7836
  141DOPC   H6Y16723   5.689   4.123  13.319 -1.1110 -1.0007  1.1199
  141DOPC   C3716724   5.673   4.340  13.354 -0.0679  0.8672  0.8319
  141DOPC   H7X16725   5.731   4.358  13.261 -0.2025 -0.8504  0.3788
  141DOPC   H7Y16726   5.567   4.352  13.324 -0.9541 -2.1477  2.3269
  141DOPC   C3816727   5.705   4.441  13.469  0.1035 -0.5626  0.1146
  141DOPC   H8X16728   5.779   4.402  13.542  0.7722  0.6885  0.1299
  141DOPC   H8Y16729   5.609   4.463  13.521 -0.7298 -0.1783 -1.4854
  141DOPC   C3916730   5.768   4.567  13.421 -0.2874  0.2208 -0.1997
  141DOPC   H9X16731   5.875   4.542  13.408 -0.1267  0.0883  1.2268
  141DOPC  C31016732   5.727   4.692  13.398  0.4328 -0.1365 -0.3181
  141DOPC  H10X16733   5.807   4.757  13.361  2.2711  0.0125  3.5159
  141DOPC  C31116734   5.582   4.750  13.410 -0.1669 -0.0923  0.7165
  141DOPC  H11X16735   5.582   4.840  13.475 -0.2154  0.7605 -0.4386
  141DOPC  H11Y16736   5.522   4.673  13.463  0.2102  1.5958  3.8918
  141DOPC  C31216737   5.523   4.795  13.269  0.3932  0.3481  0.2576
  141DOPC  H12X16738   5.420   4.825  13.297  0.3996 -0.9046  1.7467
  141DOPC  H12Y16739   5.511   4.707  13.203 -3.6777 -1.4530  2.9685
  141DOPC  C31316740   5.600   4.901  13.199 -0.3692 -0.2232 -0.7690
  141DOPC  H13X16741   5.636   4.978  13.270 -0.7650 -0.4625 -0.3087
  141DOPC  H13Y16742   5.689   4.857  13.148 -0.4350 -2.5956  1.0051
  141DOPC  C31416743   5.511   4.977  13.097 -0.0007 -0.7277 -0.0032
  141DOPC  H14X16744   5.446   4.900  13.050 -2.9066 -0.3086  2.9632
  141DOPC  H14Y16745   5.452   5.057  13.147  1.4677  0.4540 -0.0745
  141DOPC  C31516746   5.581   5.052  12.981 -0.3221 -0.1947 -0.2513
  141DOPC  H15X16747   5.643   5.129  13.030 -0.4899 -0.9239  1.1735
  141DOPC  H15Y16748   5.510   5.103  12.913  0.3734 -0.8895 -1.5389
  141DOPC  C31616749   5.669   4.960  12.890 -0.6225 -0.0541  0.0780
  141DOPC  H16X16750   5.707   5.028  12.810 -1.8805  1.0527  0.3792
  141DOPC  H16Y16751   5.751   4.914  12.950  1.3481  0.9482 -1.6749
  141DOPC  C31716752   5.604   4.838  12.817 -0.4493 -0.5067  0.3004
  141DOPC  H17X16753   5.578   4.759  12.890 -0.2898 -2.3318 -1.5493
  141DOPC  H17Y16754   5.514   4.865  12.759 -0.5123 -1.2696  0.0397
  141DOPC  C31816755   5.699   4.773  12.719 -0.0980  0.3048 -0.5512
  141DOPC  H18X16756   5.659   4.678  12.678  0.9609  0.1811 -1.3550
  141DOPC  H18Y16757   5.720   4.833  12.628 -2.0150  2.0015  0.0506
  141DOPC  H18Z16758   5.804   4.757  12.754 -0.4486  1.3211  1.1098
  142DOPC     N16759   6.720   4.467  14.297  0.1866 -0.4350  0.7826
  142DOPC   C1216760   6.662   4.335  14.250  0.5403 -0.4582 -0.0776
  142DOPC  H12A16761   6.589   4.299  14.321 -1.6267  1.5740 -1.1177
  142DOPC  H12B16762   6.745   4.266  14.252 -1.6617 -3.2693  1.9044
  142DOPC   C1316763   6.613   4.563  14.332 -0.0762  0.0650 -0.0839
  142DOPC  H13A16764   6.651   4.642  14.394  0.7550 -0.8652  0.6281
  142DOPC  H13B16765   6.560   4.594  14.244 -1.4363  0.6477  0.9004
  142DOPC  H13C16766   6.540   4.506  14.389 -0.9519 -0.9752 -2.1435
  142DOPC   C1416767   6.813   4.533  14.195  0.1704  0.0393 -0.3258
  142DOPC  H14A16768   6.762   4.536  14.100  0.2487 -4.0312 -0.6618
  142DOPC  H14B16769   6.843   4.628  14.236  0.7548 -0.5289  0.6045
  142DOPC  H14C16770   6.901   4.474  14.174  2.0673  2.4698  0.3411
  142DOPC   C1516771   6.801   4.442  14.426 -0.2344  0.6748 -0.0704
  142DOPC  H15A16772   6.884   4.377  14.402 -1.0191 -0.1495 -0.5945
  142DOPC  H15B16773   6.740   4.387  14.496  0.5670 -1.9772 -1.3358
  142DOPC  H15C16774   6.839   4.537  14.462 -0.2992  0.4230  0.6716
  142DOPC   C1116775   6.585   4.342  14.119  0.1282  0.4522 -0.3081
  142DOPC  H11A16776   6.647   4.398  14.046  3.2823 -1.4779  0.6574
  142DOPC  H11B16777   6.577   4.239  14.080  1.1885 -0.0906  0.8080
  142DOPC     P16778   6.332   4.322  14.171 -0.0253 -0.3868  0.1608
  142DOPC   O1316779   6.218   4.412  14.204  0.3278  0.0235 -0.0425
  142DOPC   O1416780   6.370   4.206  14.262 -0.3317 -0.5097  0.3478
  142DOPC   O1216781   6.460   4.410  14.140 -0.0658 -0.2367 -0.6682
  142DOPC   O1116782   6.308   4.256  14.029 -0.0935  0.7250  0.2835
  142DOPC    C116783   6.316   4.320  13.903 -0.3696 -0.4889 -0.2683
  142DOPC    HA16784   6.375   4.261  13.828  1.1649  2.0053 -1.1487
  142DOPC    HB16785   6.371   4.415  13.919 -0.1825 -0.9100  1.8502
  142DOPC    C216786   6.176   4.351  13.849  0.0068  0.0236 -0.3492
  142DOPC    HS16787   6.118   4.387  13.937 -0.3012 -1.7756  0.2251
  142DOPC   O2116788   6.126   4.224  13.795  0.0960  0.2745 -0.2119
  142DOPC   C2116789   6.057   4.140  13.866 -0.5250  0.4289  0.5612
  142DOPC   O2216790   5.999   4.160  13.970 -0.9597 -0.1487  0.1307
  142DOPC   C2216791   6.073   4.001  13.792  0.6173 -1.0865  0.2552
  142DOPC   H2R16792   6.179   3.976  13.774  0.1406 -2.9570 -0.1162
  142DOPC   H2S16793   6.019   4.020  13.697  1.3913  0.7069  0.1358
  142DOPC    C316794   6.170   4.461  13.740  0.6229 -0.4905 -0.2269
  142DOPC    HX16795   6.197   4.419  13.641 -2.5269  4.4781 -3.5888
  142DOPC    HY16796   6.255   4.525  13.770 -0.9139  1.0732  0.9725
  142DOPC   O3116797   6.039   4.514  13.717 -0.2201 -0.6755  0.0268
  142DOPC   C3116798   6.026   4.624  13.805 -0.6065 -0.4338  0.7463
  142DOPC   O3216799   6.105   4.658  13.890  0.7656 -1.0757 -0.3082
  142DOPC   C3216800   5.892   4.695  13.769  0.2701 -0.1654  0.1959
  142DOPC   H2X16801   5.855   4.670  13.667 -0.0203 -1.4823  0.6088
  142DOPC   H2Y16802   5.822   4.662  13.849 -1.1597  1.2274 -0.4138
  142DOPC   C2316803   6.012   3.874  13.867 -0.0135  0.2088 -0.4874
  142DOPC   H3R16804   5.905   3.889  13.892 -0.3112  0.0960 -1.6126
  142DOPC   H3S16805   6.067   3.864  13.963  0.6504 -1.1657 -0.9719
  142DOPC   C2416806   6.028   3.745  13.784 -0.4418 -0.3640  0.5780
  142DOPC   H4R16807   6.028   3.656  13.851  1.6788 -0.1456  0.9320
  142DOPC   H4S16808   6.130   3.749  13.740 -0.5548 -0.8313  0.2585
  142DOPC   C2516809   5.919   3.708  13.680 -0.2554 -0.7815  0.4221
  142DOPC   H5R16810   5.894   3.797  13.619  0.2931 -0.8338  0.1158
  142DOPC   H5S16811   5.830   3.675  13.737 -1.1118  0.9681  0.1831
  142DOPC   C2616812   5.972   3.583  13.598  0.2392  0.7454 -0.7742
  142DOPC   H6R16813   5.988   3.505  13.676 -3.0988  1.9735  1.3750
  142DOPC   H6S16814   6.068   3.607  13.549  0.1848  0.3545 -1.0763
  142DOPC   C2716815   5.869   3.542  13.492 -0.5677 -0.6407 -0.7081
  142DOPC   H7R16816   5.839   3.623  13.423 -2.0132 -1.1206 -0.6812
  142DOPC   H7S16817   5.779   3.514  13.550 -0.8036  0.5444 -0.4825
  142DOPC   C2816818   5.923   3.431  13.396  0.3009  0.1061 -0.7040
  142DOPC   H8R16819   5.986   3.369  13.463  1.5639  0.7578 -1.2564
  142DOPC   H8S16820   6.002   3.471  13.329 -0.0967 -0.1165 -1.3191
  142DOPC   C2916821   5.809   3.352  13.333  0.1515  0.1206 -0.1731
  142DOPC   H9R16822   5.762   3.278  13.401  0.6197  0.0126  0.0367
  142DOPC  C21016823   5.762   3.363  13.206  0.3351 -0.0465 -0.0330
  142DOPC  H10R16824   5.704   3.277  13.171  2.1553 -1.4211  0.1553
  142DOPC  C21116825   5.808   3.460  13.095  0.9108  0.0247 -0.4847
  142DOPC  H11R16826   5.846   3.555  13.139 -1.0204  0.4114  0.4217
  142DOPC  H11S16827   5.715   3.494  13.044  0.9002  0.9067  0.0966
  142DOPC  C21216828   5.887   3.378  12.990 -0.1963 -0.2918  0.2017
  142DOPC  H12R16829   5.821   3.294  12.959 -2.1471  1.4499 -0.6022
  142DOPC  H12S16830   5.979   3.338  13.038 -0.3490 -0.6243  0.2179
  142DOPC  C21316831   5.914   3.452  12.857 -0.0357  0.0405 -0.2574
  142DOPC  H13R16832   5.994   3.526  12.879  0.4645 -0.4722 -0.3346
  142DOPC  H13S16833   5.819   3.505  12.834 -0.7451 -1.0307  0.1482
  142DOPC  C21416834   5.961   3.367  12.742 -0.5427  0.1087 -0.1893
  142DOPC  H14R16835   5.878   3.299  12.712 -0.6747  0.1939 -0.0184
  142DOPC  H14S16836   6.044   3.311  12.790 -0.9943 -0.2053  0.2457
  142DOPC  C21516837   6.025   3.453  12.630 -0.0719 -0.1052  0.0849
  142DOPC  H15R16838   6.134   3.460  12.651 -0.4218  0.3751  1.9429
  142DOPC  H15S16839   5.993   3.559  12.637  0.4941  0.2723 -2.1625
  142DOPC  C21616840   5.989   3.399  12.486  0.0432  0.0016 -0.2566
  142DOPC  H16R16841   5.878   3.409  12.480  0.1030  0.1614 -1.5683
  142DOPC  H16S16842   6.008   3.290  12.476  0.1969  0.0217 -0.1905
  142DOPC  C21716843   6.044   3.483  12.372  0.4057 -0.4358 -0.0519
  142DOPC  H17R16844   5.982   3.457  12.283  0.0520 -0.1819  0.1187
  142DOPC  H17S16845   6.153   3.465  12.361  0.8137  2.8564 -4.1266
  142DOPC  C21816846   6.022   3.639  12.385 -0.1192  0.7418  0.0576
  142DOPC  H18R16847   5.920   3.659  12.424 -0.5033 -0.0762 -0.4801
  142DOPC  H18S16848   6.043   3.689  12.289  1.7087 -1.2505 -0.6690
  142DOPC  H18T16849   6.090   3.680  12.462  0.1280 -1.0724  0.8674
  142DOPC   C3316850   5.897   4.849  13.778  0.0247 -0.3413  0.4968
  142DOPC   H3X16851   5.988   4.888  13.727 -0.4506  0.9540  0.6089
  142DOPC   H3Y16852   5.909   4.880  13.884 -1.1501 -1.2134  0.9119
  142DOPC   C3416853   5.781   4.917  13.709 -0.2575 -0.2174  0.1542
  142DOPC   H4X16854   5.782   4.913  13.598 -0.3133 -0.0347  0.1470
  142DOPC   H4Y16855   5.788   5.027  13.727 -1.6410 -0.1980  0.7283
  142DOPC   C3516856   5.646   4.859  13.753  0.3628  0.6171  0.5825
  142DOPC   H5X16857   5.648   4.839  13.863  0.5861  1.3784  0.7240
  142DOPC   H5Y16858   5.628   4.764  13.699 -1.2121  1.0579  0.2943
  142DOPC   C3616859   5.534   4.957  13.715  0.1793 -0.3066 -0.9036
  142DOPC   H6X16860   5.527   5.025  13.803  0.1960 -0.3318 -0.8829
  142DOPC   H6Y16861   5.553   5.019  13.625  1.7739 -1.2324 -1.2475
  142DOPC   C3716862   5.404   4.889  13.713 -0.3017  0.3651  0.7263
  142DOPC   H7X16863   5.408   4.781  13.688  0.9487  0.1871  1.6010
  142DOPC   H7Y16864   5.357   4.889  13.813 -2.4031  1.6848 -0.1890
  142DOPC   C3816865   5.304   4.949  13.612 -0.1846 -1.4512 -0.1268
  142DOPC   H8X16866   5.207   4.896  13.623  0.7478 -3.0090  0.8886
  142DOPC   H8Y16867   5.342   4.925  13.510 -0.1004 -1.7432 -0.0249
  142DOPC   C3916868   5.280   5.096  13.646 -0.0498  0.2682  0.3889
  142DOPC   H9X16869   5.256   5.109  13.752  1.6270 -0.7118  0.9142
  142DOPC  C31016870   5.275   5.202  13.564  0.7135 -0.1513  0.3984
  142DOPC  H10X16871   5.223   5.288  13.606 -2.1509 -2.1793  1.2729
  142DOPC  C31116872   5.283   5.190  13.412 -0.4032  0.0914 -0.7166
  142DOPC  H11X16873   5.350   5.106  13.385  0.3023  0.6064 -0.5812
  142DOPC  H11Y16874   5.326   5.284  13.371  0.3806  0.6492  1.2585
  142DOPC  C31216875   5.137   5.161  13.355 -0.8478  0.3816 -0.4024
  142DOPC  H12X16876   5.100   5.061  13.385 -1.3419  0.6158 -0.2089
  142DOPC  H12Y16877   5.146   5.160  13.244 -2.6778  0.9927 -0.5851
  142DOPC  C31316878   5.036   5.270  13.394  0.2996 -0.3066  0.4021
  142DOPC  H13X16879   4.999   5.263  13.498  2.1175  1.1138  1.1946
  142DOPC  H13Y16880   5.102   5.357  13.415  1.1887 -0.9101  0.1531
  142DOPC  C31416881   4.949   5.330  13.282  0.5048  0.4925 -0.2136
  142DOPC  H14X16882   4.874   5.395  13.330 -0.4412 -1.5987  1.3166
  142DOPC  H14Y16883   5.001   5.400  13.213  1.9671 -0.4836 -0.1453
  142DOPC  C31516884   4.886   5.224  13.186  0.1884  0.0272 -0.5455
  142DOPC  H15X16885   4.793   5.188  13.235 -1.5642  0.6054 -3.2412
  142DOPC  H15Y16886   4.957   5.142  13.163  0.3658 -0.9773  3.0063
  142DOPC  C31616887   4.826   5.279  13.058 -0.3963 -0.8473  0.0912
  142DOPC  H16X16888   4.912   5.294  12.989 -0.2961  0.6519  0.5023
  142DOPC  H16Y16889   4.758   5.206  13.009 -1.7399 -0.2370  1.0022
  142DOPC  C31716890   4.746   5.415  13.069  0.3369 -0.0222 -0.7259
  142DOPC  H17X16891   4.654   5.380  13.121  2.0840 -2.2673  1.0432
  142DOPC  H17Y16892   4.794   5.496  13.129 -1.0129  1.8836 -2.0874
  142DOPC  C31816893   4.695   5.482  12.942 -0.5195  0.2257  0.5633
  142DOPC  H18X16894   4.600   5.533  12.968 -2.7319 -3.4042  0.3051
  142DOPC  H18Y16895   4.773   5.547  12.896  0.4859  0.4592  2.5264
  142DOPC  H18Z16896   4.657   5.411  12.865  0.5591 -1.0673  1.1796
  143DOPC     N16897   2.626   3.149  14.145 -0.3274  0.7428  0.1771
  143DOPC   C1216898   2.483   3.181  14.104  0.6317  0.1586  0.6431
  143DOPC  H12A16899   2.470   3.145  14.003  1.2677  1.7015 -0.0229
  143DOPC  H12B16900   2.465   3.287  14.096 -0.0059 -0.0723 -1.5090
  143DOPC   C1316901   2.667   3.010  14.122 -0.7980  0.7026 -0.7108
  143DOPC  H13A16902   2.641   2.966  14.026  2.3719  1.9868 -2.3054
  143DOPC  H13B16903   2.774   3.002  14.127 -0.6167  2.3393 -1.4980
  143DOPC  H13C16904   2.620   2.950  14.198 -1.3165  1.4996 -0.3866
  143DOPC   C1416905   2.639   3.178  14.291 -0.7859  0.2149 -0.2818
  143DOPC  H14A16906   2.737   3.150  14.326 -0.7280 -0.0895 -0.6852
  143DOPC  H14B16907   2.632   3.283  14.313 -0.4763  0.3466 -0.7989
  143DOPC  H14C16908   2.567   3.121  14.349  1.5507  0.3049  2.9799
  143DOPC   C1516909   2.710   3.238  14.064 -0.9978 -0.6754 -0.3279
  143DOPC  H15A16910   2.813   3.214  14.087 -0.6612  0.5599 -0.4570
  143DOPC  H15B16911   2.690   3.341  14.088 -0.7127 -0.7896  0.4259
  143DOPC  H15C16912   2.699   3.221  13.958  0.2184 -2.7497 -0.1815
  143DOPC   C1116913   2.371   3.116  14.185 -0.3102  0.1065 -0.5403
  143DOPC  H11A16914   2.366   3.163  14.286 -0.4765  1.3410 -1.1108
  143DOPC  H11B16915   2.268   3.137  14.148 -1.0507  0.8000  1.7041
  143DOPC     P16916   2.328   2.871  14.099 -0.0837  0.1119 -0.3830
  143DOPC   O1316917   2.182   2.886  14.091 -0.3917  0.4456 -0.5272
  143DOPC   O1416918   2.375   2.737  14.140  0.9033 -0.2418  0.1642
  143DOPC   O1216919   2.381   2.976  14.204 -0.9615  0.5542 -0.1888
  143DOPC   O1116920   2.393   2.916  13.966 -0.6943 -0.3763  0.1008
  143DOPC    C116921   2.322   2.984  13.868 -0.1855 -0.2562 -0.5903
  143DOPC    HA16922   2.396   3.034  13.803  0.7751 -1.3094 -0.3494
  143DOPC    HB16923   2.258   3.065  13.908 -1.9670 -1.5727 -0.6504
  143DOPC    C216924   2.246   2.883  13.778  0.1810  0.0916 -0.1407
  143DOPC    HS16925   2.166   2.846  13.845  1.0137  1.6350  1.8104
  143DOPC   O2116926   2.331   2.787  13.723 -0.1119 -0.4425  0.4725
  143DOPC   C2116927   2.284   2.667  13.688  0.0370 -0.0211 -0.0250
  143DOPC   O2216928   2.167   2.635  13.704  0.8515  0.2376 -0.3846
  143DOPC   C2216929   2.381   2.573  13.623 -0.1125 -0.2216  0.0388
  143DOPC   H2R16930   2.329   2.476  13.617 -1.5892  0.5417  0.0567
  143DOPC   H2S16931   2.460   2.551  13.698 -0.9811 -0.4401  0.8960
  143DOPC    C316932   2.169   2.970  13.671 -0.2615  0.1141 -0.7232
  143DOPC    HX16933   2.107   3.048  13.722 -1.2140 -1.3623  0.4625
  143DOPC    HY16934   2.094   2.908  13.616 -0.6897 -0.7505  0.7850
  143DOPC   O3116935   2.263   3.033  13.589 -0.1579 -1.1860  0.2002
  143DOPC   C3116936   2.285   2.988  13.465 -0.0518  0.0851 -0.0862
  143DOPC   O3216937   2.214   2.909  13.405 -0.5298 -0.0381  0.5028
  143DOPC   C3216938   2.414   3.049  13.401  1.2472 -0.3524  0.1787
  143DOPC   H2X16939   2.484   3.078  13.482  1.2253  2.0577 -0.5786
  143DOPC   H2Y16940   2.467   2.991  13.323  0.9092  1.8379 -1.8216
  143DOPC   C2316941   2.436   2.600  13.479 -0.1617  0.1156  0.1272
  143DOPC   H3R16942   2.363   2.662  13.422 -1.3436 -0.3070  1.1171
  143DOPC   H3S16943   2.459   2.501  13.433 -0.4775 -1.2017  2.6191
  143DOPC   C2416944   2.565   2.678  13.483 -0.3784  0.9629 -0.2886
  143DOPC   H4R16945   2.641   2.618  13.538 -1.9743  0.4091  1.4079
  143DOPC   H4S16946   2.553   2.759  13.558 -0.4248  0.4518  0.2759
  143DOPC   C2516947   2.623   2.725  13.353  0.0801 -0.3765 -0.6664
  143DOPC   H5R16948   2.551   2.801  13.314 -1.9203 -0.6587  2.1609
  143DOPC   H5S16949   2.627   2.636  13.286 -0.7022  0.2628 -1.6000
  143DOPC   C2616950   2.763   2.794  13.367 -0.1171  0.2287 -0.9467
  143DOPC   H6R16951   2.824   2.709  13.403 -1.4578 -0.7552 -0.9445
  143DOPC   H6S16952   2.755   2.866  13.452  1.4169  0.0869 -0.6631
  143DOPC   C2716953   2.815   2.845  13.234  0.6110 -0.2776 -0.4046
  143DOPC   H7R16954   2.831   2.769  13.155 -1.9642  0.3553 -1.6319
  143DOPC   H7S16955   2.915   2.884  13.262  0.4043  1.2872 -1.7112
  143DOPC   C2816956   2.731   2.963  13.176 -0.2660  0.0727 -0.1442
  143DOPC   H8R16957   2.705   3.031  13.260 -1.2106  1.4052 -1.4491
  143DOPC   H8S16958   2.633   2.918  13.151 -2.0023  1.1649  3.9101
  143DOPC   C2916959   2.797   3.038  13.061 -0.0108  0.8188 -0.3678
  143DOPC   H9R16960   2.899   3.001  13.040 -0.3471  0.8525 -2.2593
  143DOPC  C21016961   2.749   3.118  12.963  0.0924 -0.4669 -0.4127
  143DOPC  H10R16962   2.816   3.156  12.885  1.0306 -1.6652 -0.2127
  143DOPC  C21116963   2.609   3.171  12.954  0.3340 -0.2005 -0.3747
  143DOPC  H11R16964   2.604   3.273  12.998  1.3432  0.1891 -1.1346
  143DOPC  H11S16965   2.539   3.111  13.016 -2.3118  0.2813 -2.6637
  143DOPC  C21216966   2.544   3.171  12.816  0.0012  0.2631  0.4188
  143DOPC  H12R16967   2.608   3.215  12.737 -0.1156 -0.8892 -0.3545
  143DOPC  H12S16968   2.443   3.217  12.815 -1.2691 -2.3067  0.1980
  143DOPC  C21316969   2.528   3.024  12.766  0.3260  0.2998 -0.6503
  143DOPC  H13R16970   2.490   2.960  12.848  0.4964  0.8789 -0.1137
  143DOPC  H13S16971   2.619   2.984  12.717  1.0717 -0.2459  1.0970
  143DOPC  C21416972   2.422   3.001  12.654  0.3297  0.2375 -0.3151
  143DOPC  H14R16973   2.446   3.040  12.553  2.1897 -1.7184 -0.6751
  143DOPC  H14S16974   2.331   3.059  12.684  0.9563  1.6396 -1.0208
  143DOPC  C21516975   2.381   2.850  12.639 -1.0503  0.3299  0.2990
  143DOPC  H15R16976   2.379   2.794  12.735 -2.3807  0.0542  0.1360
  143DOPC  H15S16977   2.469   2.804  12.589  1.4008  4.0732  0.7911
  143DOPC  C21616978   2.248   2.815  12.563  0.5779 -0.5442 -0.1591
  143DOPC  H16R16979   2.247   2.877  12.472 -0.7355  0.0533  0.2474
  143DOPC  H16S16980   2.160   2.838  12.627  1.3743  0.3547  0.6393
  143DOPC  C21716981   2.246   2.673  12.506  0.3194 -0.5508 -0.2977
  143DOPC  H17R16982   2.339   2.670  12.446 -0.1573 -0.8715 -1.0414
  143DOPC  H17S16983   2.156   2.674  12.440 -0.4111 -0.9684  0.6632
  143DOPC  C21816984   2.237   2.552  12.602 -0.2596 -0.2460  0.1352
  143DOPC  H18R16985   2.164   2.582  12.681 -1.4160  0.4918 -1.1510
  143DOPC  H18S16986   2.334   2.521  12.644 -0.6251 -1.8670 -0.1615
  143DOPC  H18T16987   2.205   2.463  12.543 -0.6241 -0.6357  0.9175
  143DOPC   C3316988   2.394   3.185  13.330 -0.2499 -0.3745 -0.1530
  143DOPC   H3X16989   2.318   3.180  13.250  2.0307 -2.7963 -2.3808
  143DOPC   H3Y16990   2.488   3.206  13.274  0.2130  2.2886  1.4319
  143DOPC   C3416991   2.392   3.304  13.435  0.3719 -0.0638 -0.3547
  143DOPC   H4X16992   2.475   3.290  13.508 -0.5767  0.9901  0.9840
  143DOPC   H4Y16993   2.295   3.301  13.490  0.6473  0.8256  0.2042
  143DOPC   C3516994   2.408   3.445  13.365  0.2848 -0.2409 -0.3035
  143DOPC   H5X16995   2.407   3.520  13.448 -1.1414 -0.5751  0.0037
  143DOPC   H5Y16996   2.323   3.469  13.298  0.5634  2.0834  0.1001
  143DOPC   C3616997   2.540   3.464  13.284 -0.1822  0.5045 -0.6317
  143DOPC   H6X16998   2.529   3.398  13.195 -2.1022 -1.2741  0.8336
  143DOPC   H6Y16999   2.540   3.568  13.244 -1.0071  0.7857  0.0850
  143DOPC   C3717000   2.662   3.423  13.363 -0.6419 -0.0990 -0.4047
  143DOPC   H7X17001   2.665   3.462  13.467 -0.7842 -0.8571 -0.1138
  143DOPC   H7Y17002   2.643   3.316  13.383 -1.0046  0.2647  1.3837
  143DOPC   C3817003   2.788   3.454  13.281  0.2374 -0.3843  0.0191
  143DOPC   H8X17004   2.773   3.550  13.227 -3.0384 -0.8850 -0.1438
  143DOPC   H8Y17005   2.790   3.374  13.204  2.8913 -2.4191  1.9877
  143DOPC   C3917006   2.917   3.436  13.357 -0.0560 -0.2713 -0.3720
  143DOPC   H9X17007   2.931   3.337  13.402 -1.4107  0.3919  1.6686
  143DOPC  C31017008   2.998   3.536  13.390 -0.6946  0.4047  0.1180
  143DOPC  H10X17009   3.074   3.511  13.466 -1.6467 -0.1605  0.9098
  143DOPC  C31117010   3.001   3.673  13.332  0.9573  0.2836 -0.4262
  143DOPC  H11X17011   2.941   3.683  13.238  0.8620 -1.9430 -0.6563
  143DOPC  H11Y17012   3.100   3.699  13.290 -0.5223  0.8759 -3.9429
  143DOPC  C31217013   2.964   3.776  13.434  0.4309 -0.1991 -0.0866
  143DOPC  H12X17014   2.979   3.873  13.382 -1.5378 -1.4493 -3.2433
  143DOPC  H12Y17015   3.030   3.766  13.523 -0.4681  1.2363  0.7883
  143DOPC  C31317016   2.825   3.783  13.500 -0.1490 -0.7555  0.5944
  143DOPC  H13X17017   2.809   3.685  13.550  2.1163 -1.2621  0.4475
  143DOPC  H13Y17018   2.828   3.852  13.587  0.1963  0.6210 -0.4839
  143DOPC  C31417019   2.702   3.813  13.409  0.1709  0.0342 -0.5204
  143DOPC  H14X17020   2.713   3.904  13.346 -2.0864 -0.0240 -1.0767
  143DOPC  H14Y17021   2.696   3.733  13.333 -0.9278  0.0534 -0.4683
  143DOPC  C31517022   2.574   3.811  13.489 -0.1527  0.0743  0.2938
  143DOPC  H15X17023   2.589   3.889  13.567 -0.9183  1.6065 -1.0193
  143DOPC  H15Y17024   2.553   3.719  13.547 -1.0500  2.0588  3.3730
  143DOPC  C31617025   2.459   3.844  13.401 -0.0888  0.1508  0.2600
  143DOPC  H16X17026   2.482   3.927  13.330  0.4554  0.4761  0.8079
  143DOPC  H16Y17027   2.439   3.759  13.333 -0.7899 -0.5678  1.3436
  143DOPC  C31717028   2.317   3.844  13.465  0.0762  0.2234 -0.1993
  143DOPC  H17X17029   2.295   3.741  13.501 -0.1768 -0.1626 -1.3761
  143DOPC  H17Y17030   2.308   3.903  13.558  0.3803  0.9038 -0.5914
  143DOPC  C31817031   2.202   3.879  13.372  0.4424 -0.4618 -0.3216
  143DOPC  H18X17032   2.114   3.843  13.430  0.7596 -1.0583 -0.2031
  143DOPC  H18Y17033   2.187   3.987  13.352 -2.5997 -0.6486  0.4987
  143DOPC  H18Z17034   2.207   3.821  13.278 -0.9687  1.1723 -1.4709
  144DOPC     N17035   3.475   3.907  14.358 -0.8874  0.5307  0.1967
  144DOPC   C1217036   3.322   3.889  14.353 -0.1188  0.1790  0.5804
  144DOPC  H12A17037   3.277   3.962  14.287 -0.2592  0.0461  0.5290
  144DOPC  H12B17038   3.289   3.904  14.455  0.4922 -2.3139  1.1949
  144DOPC   C1317039   3.543   3.796  14.431  0.3866 -0.1415 -0.5151
  144DOPC  H13A17040   3.497   3.700  14.408 -0.5329 -0.8438  3.5241
  144DOPC  H13B17041   3.650   3.788  14.422  0.3291 -0.3077 -1.1371
  144DOPC  H13C17042   3.535   3.817  14.536  4.6500 -0.7858  0.1026
  144DOPC   C1417043   3.513   4.027  14.447  0.0348 -0.2990  0.6876
  144DOPC  H14A17044   3.619   4.047  14.442  0.0266 -0.4552 -0.0980
  144DOPC  H14B17045   3.463   4.112  14.404 -1.2293 -1.4222 -0.1507
  144DOPC  H14C17046   3.484   4.008  14.550  0.6591  0.4091  1.0033
  144DOPC   C1517047   3.533   3.926  14.218  0.1864 -0.6369  0.1832
  144DOPC  H15A17048   3.477   4.002  14.166 -1.6032 -1.0837  1.3612
  144DOPC  H15B17049   3.526   3.838  14.155 -0.9073  1.2650 -2.5833
  144DOPC  H15C17050   3.636   3.953  14.228 -0.1512  0.7092  0.1867
  144DOPC   C1117051   3.268   3.749  14.312  0.4635  0.1788  0.2504
  144DOPC  H11A17052   3.285   3.666  14.384 -1.7082 -1.3943 -0.9349
  144DOPC  H11B17053   3.159   3.767  14.303  0.8511  1.6359 -3.0900
  144DOPC     P17054   3.254   3.763  14.057 -0.3380  0.4813 -0.0803
  144DOPC   O1317055   3.261   3.910  14.060  0.0906 -0.5274  0.0139
  144DOPC   O1417056   3.125   3.697  14.024  0.0622 -0.2488  0.4434
  144DOPC   O1217057   3.323   3.702  14.187 -0.1921 -0.2761 -0.7774
  144DOPC   O1117058   3.370   3.721  13.957  0.0980 -0.0275  0.0407
  144DOPC    C117059   3.404   3.581  13.947 -0.3677  0.2785 -1.0927
  144DOPC    HA17060   3.319   3.514  13.924 -1.5055  2.0692 -2.4153
  144DOPC    HB17061   3.458   3.545  14.037 -1.7566  0.1195 -0.3018
  144DOPC    C217062   3.508   3.555  13.834 -1.1189  0.3636  0.5476
  144DOPC    HS17063   3.567   3.461  13.837  0.5513  1.3872  0.7561
  144DOPC   O2117064   3.600   3.663  13.826 -0.6043  0.0431 -0.6800
  144DOPC   C2117065   3.696   3.669  13.910 -0.0806 -0.8960 -1.0216
  144DOPC   O2217066   3.715   3.603  14.014 -0.0826  0.9579 -0.3924
  144DOPC   C2217067   3.783   3.792  13.871 -0.1070  0.9744 -0.0093
  144DOPC   H2R17068   3.795   3.856  13.961  1.0125  0.1908  0.4238
  144DOPC   H2S17069   3.730   3.857  13.798 -1.7330  0.7208  0.9152
  144DOPC    C317070   3.435   3.547  13.699  0.3321  0.8083  0.8622
  144DOPC    HX17071   3.521   3.550  13.629 -0.1600  0.1296  0.2043
  144DOPC    HY17072   3.380   3.643  13.694  1.9910  1.7306 -1.1846
  144DOPC   O3117073   3.343   3.432  13.684  0.6183 -0.1450 -0.7288
  144DOPC   C3117074   3.387   3.332  13.618 -0.6593 -0.3451 -0.4055
  144DOPC   O3217075   3.496   3.326  13.559 -0.7119  0.2741  0.2152
  144DOPC   C3217076   3.293   3.215  13.625  0.1671 -0.5081  0.3086
  144DOPC   H2X17077   3.276   3.181  13.730  0.9996 -1.1663  0.2366
  144DOPC   H2Y17078   3.203   3.258  13.577  0.8185  0.6456  0.0842
  144DOPC   C2317079   3.921   3.750  13.819 -0.5651 -0.3489 -0.0312
  144DOPC   H3R17080   3.966   3.678  13.891 -1.7906 -0.5875  0.5317
  144DOPC   H3S17081   3.982   3.843  13.821 -0.8312 -0.1853  1.2382
  144DOPC   C2417082   3.918   3.687  13.675 -0.8198 -0.4880 -0.2043
  144DOPC   H4R17083   3.883   3.761  13.601  1.0807 -0.2676 -0.9383
  144DOPC   H4S17084   3.854   3.596  13.679 -2.3424  0.4981 -1.2359
  144DOPC   C2517085   4.059   3.633  13.636  0.5988 -0.9576 -0.6433
  144DOPC   H5R17086   4.111   3.608  13.730 -0.1736 -0.7199 -0.1488
  144DOPC   H5S17087   4.126   3.708  13.589  0.8093  0.3996  1.7033
  144DOPC   C2617088   4.058   3.508  13.543  0.0673  0.0529 -0.5634
  144DOPC   H6R17089   3.991   3.431  13.589 -0.8033  0.8959 -0.3896
  144DOPC   H6S17090   4.164   3.474  13.546 -0.0638 -0.4151 -1.1103
  144DOPC   C2717091   4.017   3.525  13.397 -0.8123  0.6954  0.4122
  144DOPC   H7R17092   4.083   3.602  13.352 -0.4304  0.0869 -0.0869
  144DOPC   H7S17093   3.914   3.567  13.405 -0.7618  1.0444 -0.6211
  144DOPC   C2817094   4.048   3.405  13.310 -0.7086  0.2609 -0.1554
  144DOPC   H8R17095   4.144   3.353  13.327 -0.2494  0.6961 -1.2554
  144DOPC   H8S17096   4.067   3.439  13.205  1.5487  1.3186  0.5293
  144DOPC   C2917097   3.941   3.302  13.327 -0.2753 -0.5427 -0.0181
  144DOPC   H9R17098   3.927   3.268  13.431 -1.4113  1.7456  0.6527
  144DOPC  C21017099   3.862   3.238  13.233  1.0105 -0.0387 -0.3243
  144DOPC  H10R17100   3.797   3.153  13.260  1.5319 -0.8258 -1.4722
  144DOPC  C21117101   3.852   3.275  13.089  0.8894 -0.2511 -0.4479
  144DOPC  H11R17102   3.803   3.197  13.026  1.1886  1.2148 -2.6352
  144DOPC  H11S17103   3.951   3.293  13.042  1.6492 -0.8686  0.8787
  144DOPC  C21217104   3.761   3.406  13.083  0.2418  0.5983  0.2322
  144DOPC  H12R17105   3.763   3.449  12.980  1.0177 -0.1450 -0.0733
  144DOPC  H12S17106   3.802   3.486  13.147  0.0561  0.3823  0.6236
  144DOPC  C21317107   3.615   3.365  13.104  0.7020 -0.2647 -1.1926
  144DOPC  H13R17108   3.603   3.342  13.212 -2.4512  3.2102 -0.5983
  144DOPC  H13S17109   3.589   3.271  13.050  0.4746 -0.3978 -0.8551
  144DOPC  C21417110   3.519   3.480  13.072  0.1958  0.3032  0.0852
  144DOPC  H14R17111   3.550   3.533  12.980  0.3708  3.0382  1.6037
  144DOPC  H14S17112   3.529   3.556  13.153 -1.3168  0.9261 -0.2738
  144DOPC  C21517113   3.369   3.434  13.056 -0.9574 -0.2941 -0.8232
  144DOPC  H15R17114   3.370   3.371  12.964 -0.7114 -2.4742  0.6156
  144DOPC  H15S17115   3.307   3.527  13.053 -0.5450  0.0047 -0.1414
  144DOPC  C21617116   3.322   3.336  13.157  0.5535 -0.2605  0.1385
  144DOPC  H16R17117   3.327   3.394  13.252  0.4405  2.0324 -1.1908
  144DOPC  H16S17118   3.383   3.243  13.157 -1.9001 -1.9829 -0.8626
  144DOPC  C21717119   3.178   3.285  13.136 -0.2276  0.0467  0.5815
  144DOPC  H17R17120   3.183   3.241  13.034 -0.5791  1.7541 -0.1989
  144DOPC  H17S17121   3.104   3.366  13.152 -1.2349 -1.4102  4.2138
  144DOPC  C21817122   3.141   3.169  13.230 -0.3456 -0.2623 -0.6430
  144DOPC  H18R17123   3.214   3.086  13.216 -0.9050 -0.8944  0.1268
  144DOPC  H18S17124   3.038   3.139  13.203 -0.4137 -1.0681  0.4398
  144DOPC  H18T17125   3.149   3.211  13.332 -0.7941  1.9670 -1.4790
  144DOPC   C3317126   3.365   3.091  13.553  0.4911 -0.1176  0.0464
  144DOPC   H3X17127   3.454   3.056  13.610  0.1191  2.3717  2.3815
  144DOPC   H3Y17128   3.390   3.119  13.448 -0.6962 -0.1804 -0.2663
  144DOPC   C3417129   3.263   2.979  13.534 -0.3228 -0.4532 -1.0378
  144DOPC   H4X17130   3.178   3.022  13.476 -0.4596  0.7118 -0.0127
  144DOPC   H4Y17131   3.222   2.948  13.632  0.9480  1.5293  0.1935
  144DOPC   C3517132   3.321   2.874  13.442 -0.2302 -0.2979  0.1553
  144DOPC   H5X17133   3.371   2.790  13.495 -0.0188 -0.4738 -0.3200
  144DOPC   H5Y17134   3.387   2.920  13.365 -1.2111 -0.3716 -0.7460
  144DOPC   C3617135   3.206   2.810  13.364 -0.6534 -0.3579 -1.0055
  144DOPC   H6X17136   3.130   2.786  13.440 -1.6756  0.2862 -1.7991
  144DOPC   H6Y17137   3.153   2.885  13.301 -0.8806 -1.0766 -1.6798
  144DOPC   C3717138   3.245   2.688  13.275 -0.0473 -0.0172  0.2366
  144DOPC   H7X17139   3.277   2.602  13.338  0.2808  0.0125  0.1126
  144DOPC   H7Y17140   3.155   2.640  13.231  0.0938  0.3851 -0.5006
  144DOPC   C3817141   3.357   2.727  13.175 -0.4706 -0.3579  0.8411
  144DOPC   H8X17142   3.378   2.653  13.095  0.6603  1.4890 -0.6454
  144DOPC   H8Y17143   3.453   2.745  13.228  0.7627 -2.0196 -0.6932
  144DOPC   C3917144   3.307   2.846  13.102 -0.0623  0.1287 -0.2951
  144DOPC   H9X17145   3.337   2.941  13.149 -0.3169  0.5481 -0.9707
  144DOPC  C31017146   3.224   2.850  13.001 -0.4956  0.3419 -0.2263
  144DOPC  H10X17147   3.203   2.951  12.963 -2.7795  0.4004  1.0193
  144DOPC  C31117148   3.160   2.732  12.930  0.3459  0.2217  0.2863
  144DOPC  H11X17149   3.124   2.654  13.001  1.0377 -0.2537  0.1257
  144DOPC  H11Y17150   3.226   2.681  12.857  0.6102  3.1948 -1.7398
  144DOPC  C31217151   3.039   2.788  12.855  0.1723 -0.6083 -0.3751
  144DOPC  H12X17152   3.079   2.830  12.760  1.6171  0.7894  0.8068
  144DOPC  H12Y17153   2.987   2.866  12.914  1.9024  0.9703 -0.8674
  144DOPC  C31317154   2.939   2.677  12.815  0.0850 -0.6828  0.3091
  144DOPC  H13X17155   2.986   2.592  12.760 -1.4756 -1.6896  0.4531
  144DOPC  H13Y17156   2.913   2.632  12.913 -0.0203  1.0400  1.0976
  144DOPC  C31417157   2.822   2.718  12.744 -0.5192 -0.6718  0.0928
  144DOPC  H14X17158   2.787   2.809  12.798  4.4925  1.8395 -0.2678
  144DOPC  H14Y17159   2.838   2.750  12.638  1.1118  1.4600  0.9086
  144DOPC  C31517160   2.708   2.614  12.755  0.3502  0.3656  0.2765
  144DOPC  H15X17161   2.621   2.664  12.708 -1.0695 -0.3529  2.0137
  144DOPC  H15Y17162   2.677   2.603  12.862 -1.9004  2.2222 -0.0825
  144DOPC  C31617163   2.746   2.483  12.681 -0.1922  0.1157 -0.1643
  144DOPC  H16X17164   2.817   2.522  12.605 -1.2051  0.8582 -0.7508
  144DOPC  H16Y17165   2.796   2.409  12.746 -0.1093 -0.5228 -0.9475
  144DOPC  C31717166   2.630   2.414  12.613 -0.3806 -0.1150  0.9192
  144DOPC  H17X17167   2.569   2.490  12.561 -0.8521 -1.2303 -0.2052
  144DOPC  H17Y17168   2.683   2.348  12.541 -2.0215 -1.2823  0.7155
  144DOPC  C31817169   2.533   2.320  12.687 -0.3199 -0.0919  0.0852
  144DOPC  H18X17170   2.449   2.280  12.627 -1.8374  0.5519  1.6870
  144DOPC  H18Y17171   2.590   2.235  12.731  2.1947  1.4512  0.0001
  144DOPC  H18Z17172   2.487   2.371  12.774  2.7532  0.1895  1.6589
  145DOPC     N17173   3.568   6.263  14.335  0.6757  0.0146  0.5927
  145DOPC   C1217174   3.447   6.325  14.265  0.2537 -0.1753 -0.1886
  145DOPC  H12A17175   3.436   6.431  14.284 -2.2867 -0.1996 -1.0911
  145DOPC  H12B17176   3.356   6.276  14.297  0.0037 -0.2669 -1.0134
  145DOPC   C1317177   3.688   6.348  14.304  0.6228 -0.4110 -0.3267
  145DOPC  H13A17178   3.675   6.455  14.311 -1.2198 -0.6439  0.4448
  145DOPC  H13B17179   3.766   6.318  14.372 -0.6923 -0.4848  1.1944
  145DOPC  H13C17180   3.713   6.327  14.201  2.4575  0.5655 -0.1277
  145DOPC   C1417181   3.584   6.125  14.277  0.0675  0.4855 -0.4314
  145DOPC  H14A17182   3.529   6.042  14.319  1.6555 -1.7028 -2.4005
  145DOPC  H14B17183   3.565   6.130  14.171 -0.1251  0.0717 -0.4187
  145DOPC  H14C17184   3.689   6.102  14.291  0.4310  1.7812 -0.8526
  145DOPC   C1517185   3.559   6.255  14.484 -0.0582  0.2732  0.3315
  145DOPC  H15A17186   3.562   6.352  14.532 -0.4511 -0.0371  1.0007
  145DOPC  H15B17187   3.642   6.201  14.529  0.0282  1.9181  2.3010
  145DOPC  H15C17188   3.465   6.210  14.510  0.4362 -1.9197 -1.4033
  145DOPC   C1117189   3.446   6.324  14.113  0.3594  0.4926  0.0047
  145DOPC  H11A17190   3.424   6.221  14.078  0.6057  0.9270 -1.5208
  145DOPC  H11B17191   3.359   6.382  14.075  0.2925 -1.0593 -2.4415
  145DOPC     P17192   3.630   6.329  13.920  0.5389 -0.2889  0.3947
  145DOPC   O1317193   3.646   6.185  13.895  0.1243 -0.2580 -0.4375
  145DOPC   O1417194   3.746   6.414  13.893 -0.0436 -0.3052  0.3209
  145DOPC   O1217195   3.570   6.372  14.057 -0.0741  0.1977  0.0879
  145DOPC   O1117196   3.506   6.375  13.834 -0.5041 -0.3324  0.0177
  145DOPC    C117197   3.460   6.514  13.839  0.5373  0.2428 -0.3485
  145DOPC    HA17198   3.501   6.574  13.923 -2.2856  0.8165  0.7290
  145DOPC    HB17199   3.353   6.518  13.870  0.1252 -2.5828 -1.1289
  145DOPC    C217200   3.476   6.595  13.697 -0.3419 -0.3522 -0.2165
  145DOPC    HS17201   3.435   6.697  13.711 -1.6612 -0.8111 -0.5363
  145DOPC   O2117202   3.417   6.527  13.590 -0.0982 -0.7191  0.4043
  145DOPC   C2117203   3.290   6.515  13.593  0.5364  0.2993  0.7523
  145DOPC   O2217204   3.214   6.575  13.675  0.0564 -0.2322 -0.1156
  145DOPC   C2217205   3.250   6.423  13.477  0.2726  0.3446 -0.4990
  145DOPC   H2R17206   3.173   6.352  13.515 -0.4489  1.0909 -0.5420
  145DOPC   H2S17207   3.338   6.368  13.437  0.9814  1.0565  0.0423
  145DOPC    C317208   3.624   6.611  13.663 -0.7968  0.6832 -0.3779
  145DOPC    HX17209   3.665   6.511  13.638  0.8000  1.9711 -3.7023
  145DOPC    HY17210   3.685   6.654  13.745 -0.3535  0.1232 -0.4072
  145DOPC   O3117211   3.642   6.689  13.544 -0.0113 -0.5848 -0.1247
  145DOPC   C3117212   3.762   6.709  13.506 -0.1853  0.2276 -0.4768
  145DOPC   O3217213   3.859   6.653  13.559  0.1873 -0.0644  0.1512
  145DOPC   C3217214   3.774   6.801  13.386  0.1773 -0.5870  0.1429
  145DOPC   H2X17215   3.676   6.847  13.363  0.7348  1.9246  2.2403
  145DOPC   H2Y17216   3.848   6.878  13.417  1.2910 -0.8533 -1.7248
  145DOPC   C2317217   3.192   6.502  13.354 -0.0613  0.4861 -0.3993
  145DOPC   H3R17218   3.092   6.540  13.386 -1.5857 -3.8566  0.7558
  145DOPC   H3S17219   3.165   6.418  13.286 -0.3942  1.2423 -1.2206
  145DOPC   C2417220   3.289   6.588  13.275 -0.5591  0.5226 -0.3449
  145DOPC   H4R17221   3.337   6.671  13.331 -0.9206  1.3333 -1.2062
  145DOPC   H4S17222   3.229   6.650  13.205 -0.2798 -0.0413 -1.0860
  145DOPC   C2517223   3.394   6.511  13.198 -0.3016  0.2415  0.2055
  145DOPC   H5R17224   3.335   6.445  13.131 -0.8845  0.4220  0.5408
  145DOPC   H5S17225   3.461   6.457  13.269 -1.5098 -0.4782  0.8245
  145DOPC   C2617226   3.483   6.600  13.105  0.4324  0.3274 -0.9022
  145DOPC   H6R17227   3.570   6.536  13.081 -0.1764 -2.3280  2.9715
  145DOPC   H6S17228   3.526   6.681  13.168  1.6507  0.2717 -1.6314
  145DOPC   C2717229   3.419   6.658  12.980  0.0060  0.7061  0.0512
  145DOPC   H7R17230   3.495   6.706  12.914  1.9788  0.0703  1.7664
  145DOPC   H7S17231   3.352   6.740  13.014 -1.6578 -0.1632 -0.9851
  145DOPC   C2817232   3.349   6.556  12.891  0.1473  0.0537 -0.5633
  145DOPC   H8R17233   3.251   6.525  12.932 -0.0022 -1.4410 -1.9438
  145DOPC   H8S17234   3.414   6.466  12.895  1.5406  1.0474  2.1272
  145DOPC   C2917235   3.311   6.607  12.755 -0.4125  0.8287  0.2843
  145DOPC   H9R17236   3.238   6.688  12.770  0.0417  1.4358 -0.7326
  145DOPC  C21017237   3.369   6.591  12.637 -0.2080 -0.3065  0.0450
  145DOPC  H10R17238   3.317   6.624  12.546 -0.5280 -2.3029 -0.5449
  145DOPC  C21117239   3.503   6.526  12.610  0.2798  0.1064  0.0660
  145DOPC  H11R17240   3.543   6.494  12.709 -0.7584 -0.5090  0.3046
  145DOPC  H11S17241   3.569   6.595  12.554 -2.3664  2.7615 -0.0871
  145DOPC  C21217242   3.494   6.395  12.533 -0.0968  0.8187  0.1529
  145DOPC  H12R17243   3.469   6.413  12.427  1.4642  0.7828 -0.2386
  145DOPC  H12S17244   3.421   6.320  12.569  2.1436 -1.2827  0.5998
  145DOPC  C21317245   3.621   6.313  12.527  0.4345  1.1788  0.0600
  145DOPC  H13R17246   3.608   6.230  12.454 -1.3561  2.5297 -1.2316
  145DOPC  H13S17247   3.634   6.268  12.628 -0.0326 -0.0624 -0.4059
  145DOPC  C21417248   3.751   6.381  12.479  0.6245 -1.0360  0.5985
  145DOPC  H14R17249   3.780   6.446  12.564 -0.8342  1.6616 -0.8004
  145DOPC  H14S17250   3.723   6.444  12.391 -1.3156  0.8737  2.4913
  145DOPC  C21517251   3.864   6.292  12.435 -0.2589  0.2482  0.2501
  145DOPC  H15R17252   3.819   6.234  12.351 -0.3480  1.6215 -0.6889
  145DOPC  H15S17253   3.900   6.219  12.511  0.8690  0.1778 -0.3308
  145DOPC  C21617254   3.983   6.372  12.375  0.2792 -0.0664  0.1156
  145DOPC  H16R17255   4.012   6.451  12.448  0.9062  1.1236 -1.3775
  145DOPC  H16S17256   3.953   6.414  12.277  0.8804 -1.3519 -0.6475
  145DOPC  C21717257   4.114   6.293  12.364  0.2108  0.1019  1.1643
  145DOPC  H17R17258   4.092   6.202  12.304 -1.2684 -0.4292  2.4712
  145DOPC  H17S17259   4.132   6.258  12.468 -0.2328 -1.6075  0.6989
  145DOPC  C21817260   4.244   6.366  12.310 -0.5761 -0.6507 -0.2692
  145DOPC  H18R17261   4.235   6.399  12.205 -1.0837 -0.2264 -0.1024
  145DOPC  H18S17262   4.321   6.287  12.316 -0.1801 -0.2128  0.7254
  145DOPC  H18T17263   4.267   6.455  12.372  0.6741 -1.9922  1.2932
  145DOPC   C3317264   3.837   6.730  13.261 -0.6448  0.5250  0.0716
  145DOPC   H3X17265   3.770   6.645  13.237 -0.7640  0.8942 -0.9277
  145DOPC   H3Y17266   3.940   6.692  13.278 -1.0719 -1.0016 -0.5525
  145DOPC   C3417267   3.832   6.816  13.129  0.4462  0.3498 -0.7464
  145DOPC   H4X17268   3.901   6.903  13.125 -0.3257  0.9692 -0.7904
  145DOPC   H4Y17269   3.725   6.846  13.121  0.3724  0.0775 -0.8155
  145DOPC   C3517270   3.874   6.729  13.017  0.6493 -0.2210  0.0718
  145DOPC   H5X17271   3.827   6.629  13.022 -0.1130  0.1748  1.1096
  145DOPC   H5Y17272   3.980   6.698  13.033  1.2080  1.5052 -0.0281
  145DOPC   C3617273   3.849   6.797  12.885 -0.6032  0.4370 -0.2719
  145DOPC   H6X17274   3.745   6.836  12.890 -1.7174 -2.4565  3.5002
  145DOPC   H6Y17275   3.921   6.882  12.888  1.1996 -0.9608 -1.5171
  145DOPC   C3717276   3.884   6.715  12.763  0.0518 -0.2800 -0.0151
  145DOPC   H7X17277   3.991   6.685  12.775  0.0442 -0.1318  0.4151
  145DOPC   H7Y17278   3.832   6.618  12.753 -1.2038  0.0203  2.7700
  145DOPC   C3817279   3.850   6.804  12.639 -0.7285 -0.9891 -0.1026
  145DOPC   H8X17280   3.910   6.896  12.656 -3.1994  0.6202  0.4102
  145DOPC   H8Y17281   3.742   6.829  12.645 -1.0653 -1.3955 -3.0141
  145DOPC   C3917282   3.888   6.744  12.508  0.2192  0.5418  0.3024
  145DOPC   H9X17283   3.800   6.706  12.455  0.4284  0.6390 -0.1144
  145DOPC  C31017284   3.997   6.752  12.429 -0.5326  1.0670 -0.4444
  145DOPC  H10X17285   4.002   6.700  12.332  0.5073  1.7631 -0.7712
  145DOPC  C31117286   4.128   6.815  12.477 -0.7895 -0.3890  0.3014
  145DOPC  H11X17287   4.143   6.823  12.586  0.7416  1.3377  0.0192
  145DOPC  H11Y17288   4.126   6.919  12.439 -3.0781 -0.7757 -0.8467
  145DOPC  C31217289   4.241   6.739  12.413  1.0963 -0.1159 -0.3964
  145DOPC  H12X17290   4.231   6.741  12.302 -0.3057 -1.9657 -0.3491
  145DOPC  H12Y17291   4.230   6.637  12.454 -2.1543  0.2484 -0.0849
  145DOPC  C31317292   4.384   6.793  12.450  0.1982 -0.0340 -0.4112
  145DOPC  H13X17293   4.402   6.884  12.390 -1.5463 -0.6809 -1.9850
  145DOPC  H13Y17294   4.388   6.827  12.556 -0.0233 -0.2749 -0.3219
  145DOPC  C31417295   4.489   6.694  12.420 -0.2793 -0.1919 -0.3020
  145DOPC  H14X17296   4.471   6.598  12.472 -4.7097 -0.2347 -1.5899
  145DOPC  H14Y17297   4.497   6.672  12.311 -0.3571  2.7759 -1.0053
  145DOPC  C31517298   4.621   6.740  12.474 -0.0693  0.0804  0.0700
  145DOPC  H15X17299   4.630   6.734  12.584  0.4105 -3.5990 -0.0509
  145DOPC  H15Y17300   4.628   6.850  12.461 -1.9598  0.2408  0.1148
  145DOPC  C31617301   4.737   6.664  12.421  0.4679 -0.1129  0.5629
  145DOPC  H16X17302   4.716   6.555  12.424 -0.3888  0.0234 -0.1449
  145DOPC  H16Y17303   4.763   6.683  12.315  1.4835 -1.5685  0.5238
  145DOPC  C31717304   4.871   6.703  12.486  0.5054 -0.4901 -1.0116
  145DOPC  H17X17305   4.907   6.802  12.451 -0.1010  0.9035  1.9583
  145DOPC  H17Y17306   4.840   6.709  12.593 -0.2960 -1.3814 -1.1817
  145DOPC  C31817307   4.977   6.596  12.463  0.7978  0.1899 -0.3228
  145DOPC  H18X17308   5.075   6.636  12.495 -0.3283  1.0832  2.2634
  145DOPC  H18Y17309   4.964   6.505  12.525 -0.0322  0.9672  0.6748
  145DOPC  H18Z17310   4.972   6.578  12.353 -2.0969 -0.4991 -0.1507
  146DOPC     N17311   5.247   2.761  14.599  0.4231  0.4631  0.2558
  146DOPC   C1217312   5.116   2.819  14.530 -0.2337  0.0179 -0.8690
  146DOPC  H12A17313   5.086   2.905  14.589  2.0634 -1.1261  2.2573
  146DOPC  H12B17314   5.034   2.750  14.544 -0.7370  0.3711 -1.9422
  146DOPC   C1317315   5.227   2.749  14.746  0.5185 -0.5273  0.6048
  146DOPC  H13A17316   5.247   2.842  14.798 -0.7260 -0.3307  0.7611
  146DOPC  H13B17317   5.127   2.712  14.763 -0.3057  1.5377  0.5524
  146DOPC  H13C17318   5.302   2.679  14.782 -0.2147 -1.3411  0.5745
  146DOPC   C1417319   5.374   2.844  14.573 -0.5610  0.4003 -0.0342
  146DOPC  H14A17320   5.383   2.886  14.474 -1.2777  0.2133 -0.1851
  146DOPC  H14B17321   5.379   2.927  14.642  2.2370 -0.2216  0.6444
  146DOPC  H14C17322   5.465   2.790  14.593  0.1032  0.9765 -1.3631
  146DOPC   C1517323   5.267   2.623  14.545 -0.2798  0.1394  0.1189
  146DOPC  H15A17324   5.358   2.578  14.583  1.3484  2.2496 -1.0548
  146DOPC  H15B17325   5.261   2.610  14.438 -2.7272 -1.3797  0.3617
  146DOPC  H15C17326   5.178   2.572  14.578  0.2089 -1.0458 -0.3413
  146DOPC   C1117327   5.136   2.848  14.379  0.6172 -0.2981 -0.4260
  146DOPC  H11A17328   5.198   2.940  14.378 -0.6160  0.6953  2.8178
  146DOPC  H11B17329   5.191   2.768  14.324  1.0985  0.0646 -0.4823
  146DOPC     P17330   4.957   3.021  14.293  0.2150 -0.3701 -0.2358
  146DOPC   O1317331   4.977   3.102  14.414  0.2203  0.6105  0.1240
  146DOPC   O1417332   4.817   3.009  14.249  0.7823 -0.1580  0.3992
  146DOPC   O1217333   5.014   2.877  14.315 -0.2933  0.2742  0.1735
  146DOPC   O1117334   5.056   3.074  14.175  0.3902  0.7796  0.4153
  146DOPC    C117335   5.108   2.991  14.067 -0.3582  0.3507  0.5472
  146DOPC    HA17336   5.019   2.966  14.005 -1.1515 -0.7677  2.0775
  146DOPC    HB17337   5.145   2.892  14.100 -0.5415 -0.1093 -0.5588
  146DOPC    C217338   5.222   3.078  14.001  0.2463 -0.2046 -0.1176
  146DOPC    HS17339   5.286   3.085  14.092 -1.6189 -1.8539  1.4261
  146DOPC   O2117340   5.178   3.193  13.928  0.6778 -0.0956 -0.5287
  146DOPC   C2117341   5.270   3.288  13.929  0.2073 -0.4109  0.4466
  146DOPC   O2217342   5.378   3.286  13.980  0.3225 -0.3819  0.0079
  146DOPC   C2217343   5.221   3.399  13.837  0.0304 -0.5982  0.5520
  146DOPC   H2R17344   5.163   3.471  13.898  1.4287  2.3840 -1.3960
  146DOPC   H2S17345   5.159   3.351  13.758 -0.1208  0.2331  0.1523
  146DOPC    C317346   5.309   2.987  13.907  0.2225 -0.1179 -0.3801
  146DOPC    HX17347   5.243   2.982  13.817  0.4731 -0.6317 -0.5418
  146DOPC    HY17348   5.330   2.888  13.952  0.5203  0.7200  1.3800
  146DOPC   O3117349   5.430   3.049  13.860 -0.9403 -0.2587  0.6567
  146DOPC   C3117350   5.553   3.006  13.897  0.3926  0.2784  0.5967
  146DOPC   O3217351   5.573   2.913  13.975  0.0614  0.0127 -0.0941
  146DOPC   C3217352   5.663   3.096  13.839  0.1951 -0.0480  0.5782
  146DOPC   H2X17353   5.625   3.193  13.800 -1.0358 -1.1600 -1.1216
  146DOPC   H2Y17354   5.736   3.121  13.919  0.4719 -0.5834  0.4960
  146DOPC   C2317355   5.333   3.481  13.766 -0.2805  0.6881 -0.0366
  146DOPC   H3R17356   5.413   3.505  13.839  0.4393 -0.5796 -0.3851
  146DOPC   H3S17357   5.289   3.575  13.726 -0.2556 -0.0680 -1.9477
  146DOPC   C2417358   5.403   3.402  13.646 -0.3878  0.5359 -0.4152
  146DOPC   H4R17359   5.330   3.353  13.578 -1.5597  0.8731  0.5769
  146DOPC   H4S17360   5.452   3.320  13.703  1.1482  0.9248 -1.1245
  146DOPC   C2517361   5.505   3.481  13.557  0.0378 -0.2343  0.3790
  146DOPC   H5R17362   5.573   3.409  13.508 -1.9159 -1.2684 -0.9310
  146DOPC   H5S17363   5.573   3.552  13.610 -0.1139 -0.4659  0.8950
  146DOPC   C2617364   5.437   3.554  13.439  0.2606  0.7969 -0.0431
  146DOPC   H6R17365   5.370   3.637  13.470  1.4610  1.7215  0.1787
  146DOPC   H6S17366   5.370   3.482  13.388 -1.0650  0.5248  1.9725
  146DOPC   C2717367   5.539   3.614  13.347  0.0024 -0.1619  0.0450
  146DOPC   H7R17368   5.619   3.540  13.325 -0.6783 -0.4314 -1.6558
  146DOPC   H7S17369   5.581   3.702  13.400  1.4203 -1.8015  1.7924
  146DOPC   C2817370   5.461   3.666  13.222  0.3301 -0.0353  0.4254
  146DOPC   H8R17371   5.376   3.729  13.257 -0.4266 -0.4973 -0.5002
  146DOPC   H8S17372   5.408   3.587  13.164 -1.8339  1.0332  0.8408
  146DOPC   C2917373   5.552   3.746  13.128 -0.2747  0.3810  0.2404
  146DOPC   H9R17374   5.644   3.699  13.089 -1.2008 -0.4572 -1.0463
  146DOPC  C21017375   5.533   3.868  13.080  0.1455  0.0526 -1.0566
  146DOPC  H10R17376   5.594   3.884  12.990 -0.5206  0.0276 -1.5229
  146DOPC  C21117377   5.411   3.954  13.105  0.3260  0.2146 -0.1763
  146DOPC  H11R17378   5.439   4.042  13.166 -0.9148  0.1522  0.5172
  146DOPC  H11S17379   5.340   3.900  13.171  0.6546  0.1169  0.1026
  146DOPC  C21217380   5.349   4.009  12.981  0.2930  0.3292 -0.1323
  146DOPC  H12R17381   5.330   3.930  12.905  0.5782  1.3021 -1.2320
  146DOPC  H12S17382   5.403   4.097  12.940  2.2599 -0.8643 -0.2333
  146DOPC  C21317383   5.203   4.054  13.009 -0.0960 -0.1723  0.0775
  146DOPC  H13R17384   5.202   4.133  13.087 -1.3693  0.1555 -0.2510
  146DOPC  H13S17385   5.132   3.975  13.039  0.8532 -1.4195 -0.8460
  146DOPC  C21417386   5.143   4.119  12.882 -0.3657  0.2466 -0.1324
  146DOPC  H14R17387   5.121   4.040  12.807  0.7272  0.2157 -0.4338
  146DOPC  H14S17388   5.220   4.190  12.846 -1.1077  1.0746 -0.1103
  146DOPC  C21517389   5.008   4.185  12.908 -0.2329  0.1762 -0.1772
  146DOPC  H15R17390   5.000   4.265  12.984  0.0827  1.6501 -1.6477
  146DOPC  H15S17391   4.942   4.102  12.941  0.7263 -1.4931 -2.2165
  146DOPC  C21617392   4.936   4.249  12.791 -0.1533 -0.7948  0.3919
  146DOPC  H16R17393   4.941   4.179  12.705 -0.4043  0.7657 -0.9245
  146DOPC  H16S17394   4.993   4.339  12.761 -1.0746  0.8881  3.2515
  146DOPC  C21717395   4.799   4.294  12.839  0.7953  1.0838  0.2799
  146DOPC  H17R17396   4.806   4.352  12.933 -3.5265  2.9145 -0.3061
  146DOPC  H17S17397   4.732   4.207  12.861 -0.7629  2.1739  0.0290
  146DOPC  C21817398   4.716   4.371  12.741 -0.3014 -0.1977 -0.2177
  146DOPC  H18R17399   4.704   4.313  12.647  2.5027 -0.1853 -0.6683
  146DOPC  H18S17400   4.791   4.450  12.717  1.5233 -1.7301  0.2367
  146DOPC  H18T17401   4.623   4.413  12.784  1.2901  2.0713  1.2236
  146DOPC   C3317402   5.733   3.018  13.726 -0.1700 -0.2741 -0.4187
  146DOPC   H3X17403   5.769   2.918  13.757  0.6218 -0.1150 -0.8040
  146DOPC   H3Y17404   5.820   3.086  13.714  0.1770 -0.6898 -0.2564
  146DOPC   C3417405   5.654   3.019  13.597  0.9329  0.4018 -0.3913
  146DOPC   H4X17406   5.620   3.121  13.571 -2.6492  0.4009  3.2996
  146DOPC   H4Y17407   5.559   2.964  13.608  1.6907 -0.3507  4.3369
  146DOPC   C3517408   5.734   2.961  13.481 -0.2017 -0.3644  0.1207
  146DOPC   H5X17409   5.764   2.861  13.519 -1.2472 -0.6042  0.3344
  146DOPC   H5Y17410   5.826   3.021  13.466 -0.3467 -0.4462 -1.2005
  146DOPC   C3617411   5.655   2.925  13.355 -0.0971  0.0136  0.4694
  146DOPC   H6X17412   5.577   2.852  13.384  1.2473 -1.0893  1.4769
  146DOPC   H6Y17413   5.596   3.015  13.328  0.8924  0.5384  0.0096
  146DOPC   C3717414   5.747   2.882  13.240 -0.9650 -0.1174 -0.1200
  146DOPC   H7X17415   5.820   2.965  13.227 -0.6418 -0.3916 -0.0481
  146DOPC   H7Y17416   5.800   2.786  13.260 -1.3952 -1.1386 -3.2932
  146DOPC   C3817417   5.677   2.856  13.104  0.3687 -0.0329  1.0529
  146DOPC   H8X17418   5.758   2.835  13.032 -0.4235 -1.8613  0.6365
  146DOPC   H8Y17419   5.616   2.939  13.062  0.5408  0.9582  2.6602
  146DOPC   C3917420   5.593   2.732  13.099 -0.1260  0.1889  0.4936
  146DOPC   H9X17421   5.637   2.647  13.154 -1.7742 -0.4802  0.8365
  146DOPC  C31017422   5.476   2.710  13.033  0.3778 -0.4229 -0.4771
  146DOPC  H10X17423   5.430   2.610  13.041 -2.3765  0.8651  0.9723
  146DOPC  C31117424   5.402   2.792  12.933  0.2710  0.6127 -0.1571
  146DOPC  H11X17425   5.415   2.902  12.935 -1.5002  0.8837 -1.6585
  146DOPC  H11Y17426   5.294   2.785  12.958 -0.0303  0.2391 -1.4577
  146DOPC  C31217427   5.429   2.753  12.783  0.3188  0.1649  0.4414
  146DOPC  H12X17428   5.376   2.830  12.723 -3.1766 -1.7988  0.6860
  146DOPC  H12Y17429   5.391   2.651  12.760  0.2429  0.0165  1.1940
  146DOPC  C31317430   5.575   2.761  12.746  0.1469 -0.0808 -0.6259
  146DOPC  H13X17431   5.609   2.863  12.776 -3.4861  1.2390 -0.4775
  146DOPC  H13Y17432   5.635   2.689  12.806  2.4962  1.6783 -0.7266
  146DOPC  C31417433   5.605   2.729  12.596 -0.1295 -0.3124  0.0444
  146DOPC  H14X17434   5.559   2.635  12.558  0.2036 -0.8547  0.9554
  146DOPC  H14Y17435   5.579   2.816  12.532 -0.7858 -0.4912  0.0613
  146DOPC  C31517436   5.761   2.696  12.598  0.9941  0.0914  0.8307
  146DOPC  H15X17437   5.778   2.619  12.676 -3.6190 -0.5258  1.5077
  146DOPC  H15Y17438   5.825   2.776  12.641  4.6655 -2.4685  0.5340
  146DOPC  C31617439   5.805   2.656  12.449  0.1026 -0.4443  0.6440
  146DOPC  H16X17440   5.739   2.580  12.402  1.1114 -1.2201  0.4682
  146DOPC  H16Y17441   5.781   2.745  12.387  0.5775 -1.2214 -0.6805
  146DOPC  C31717442   5.949   2.622  12.446 -0.7480 -0.3509  0.2884
  146DOPC  H17X17443   5.997   2.689  12.521 -0.9573  3.0429 -2.3936
  146DOPC  H17Y17444   5.950   2.519  12.488 -1.8692 -0.8403 -0.8419
  146DOPC  C31817445   6.010   2.619  12.304 -0.4371  0.0172  0.1298
  146DOPC  H18X17446   6.008   2.717  12.252 -0.9838  1.2788  2.3649
  146DOPC  H18Y17447   6.119   2.601  12.316  0.3742  4.3078  0.9919
  146DOPC  H18Z17448   5.984   2.527  12.247 -2.5513 -0.3232  1.5303
  147DOPC     N17449   3.396   2.046  14.113  0.0927 -0.4013  0.6833
  147DOPC   C1217450   3.471   2.084  13.981  0.3407  0.6031 -0.2398
  147DOPC  H12A17451   3.431   2.177  13.945  1.7999  1.1571 -0.4885
  147DOPC  H12B17452   3.448   2.005  13.911  0.7459 -0.1361  0.4363
  147DOPC   C1317453   3.446   2.147  14.209 -0.0799 -0.6109  0.5354
  147DOPC  H13A17454   3.404   2.144  14.308  1.7673  1.7927  1.4873
  147DOPC  H13B17455   3.551   2.134  14.228  0.7039  1.3478 -1.8541
  147DOPC  H13C17456   3.424   2.246  14.170 -0.2202 -1.8283 -2.8184
  147DOPC   C1417457   3.429   1.908  14.166 -0.3811 -0.2116 -0.7221
  147DOPC  H14A17458   3.532   1.919  14.197 -0.4967 -0.2428 -0.3228
  147DOPC  H14B17459   3.372   1.877  14.252  0.9761 -0.2856  0.1739
  147DOPC  H14C17460   3.433   1.835  14.087  0.7908 -0.4079 -0.5040
  147DOPC   C1517461   3.248   2.052  14.098 -0.2310  0.0621  0.1851
  147DOPC  H15A17462   3.211   2.142  14.050 -2.2942 -1.2420 -0.8114
  147DOPC  H15B17463   3.206   2.039  14.197  2.2703  0.6070  1.3975
  147DOPC  H15C17464   3.211   1.972  14.036 -0.4962  0.5508 -0.2970
  147DOPC   C1117465   3.624   2.102  13.986 -0.6889  0.0367 -0.5343
  147DOPC  H11A17466   3.651   2.139  13.885 -0.7787 -0.5319 -0.7661
  147DOPC  H11B17467   3.646   2.183  14.059 -0.1674  1.3635 -2.0997
  147DOPC     P17468   3.800   1.961  14.112  0.4140 -0.2712  0.1638
  147DOPC   O1317469   3.811   1.810  14.119  0.0944 -0.7493  0.2430
  147DOPC   O1417470   3.785   2.038  14.235  0.1527  0.1177 -1.4131
  147DOPC   O1217471   3.686   1.985  14.014 -0.2085  0.8678  0.4718
  147DOPC   O1117472   3.928   2.010  14.037 -0.4860  0.4525 -0.4017
  147DOPC    C117473   3.974   1.960  13.913  0.2503  0.1451 -0.5783
  147DOPC    HA17474   3.901   1.883  13.878 -0.5520 -0.3849  2.0531
  147DOPC    HB17475   4.070   1.904  13.920 -1.2457 -2.6838 -1.0621
  147DOPC    C217476   3.979   2.079  13.818 -0.4016  1.5343 -0.2543
  147DOPC    HS17477   4.020   2.163  13.878  0.6169  1.2726 -0.5662
  147DOPC   O2117478   3.858   2.103  13.744 -0.2502  0.4262  0.3310
  147DOPC   C2117479   3.842   2.230  13.707 -0.7671 -0.2133 -0.2453
  147DOPC   O2217480   3.923   2.323  13.723  0.4239 -0.0924  0.1991
  147DOPC   C2217481   3.711   2.241  13.621  0.2479  0.0212 -0.0965
  147DOPC   H2R17482   3.631   2.252  13.697  0.5510  1.7541  0.0284
  147DOPC   H2S17483   3.701   2.150  13.559 -0.5026  0.6662 -0.9535
  147DOPC    C317484   4.093   2.040  13.718  0.0850  0.5055  0.0033
  147DOPC    HX17485   4.051   1.944  13.682  2.1909 -1.3289  2.1168
  147DOPC    HY17486   4.187   2.010  13.768  0.5952 -2.3792 -2.4085
  147DOPC   O3117487   4.120   2.130  13.613 -0.4015 -0.1598  0.0808
  147DOPC   C3117488   4.194   2.237  13.641  0.2763 -0.0756  0.2055
  147DOPC   O3217489   4.227   2.271  13.751 -0.5629  0.1841  0.5955
  147DOPC   C3217490   4.237   2.302  13.512  0.6322 -0.2351 -0.8393
  147DOPC   H2X17491   4.311   2.240  13.457  0.5568 -1.2137  0.1405
  147DOPC   H2Y17492   4.148   2.317  13.447  0.1456  1.7852  0.2213
  147DOPC   C2317493   3.723   2.360  13.528 -0.3644 -0.3079 -0.2756
  147DOPC   H3R17494   3.747   2.450  13.588  0.0995 -0.5973 -0.0196
  147DOPC   H3S17495   3.625   2.386  13.481 -0.1010  2.2365  0.4380
  147DOPC   C2417496   3.828   2.345  13.417 -0.2341  0.0218 -0.4741
  147DOPC   H4R17497   3.841   2.239  13.385 -1.5455 -0.7425  1.3647
  147DOPC   H4S17498   3.924   2.389  13.453 -0.2040  1.6065 -2.3568
  147DOPC   C2517499   3.802   2.423  13.291 -0.4588 -0.3681  0.2207
  147DOPC   H5R17500   3.709   2.381  13.247  1.1875 -4.4672  0.2198
  147DOPC   H5S17501   3.889   2.402  13.224 -1.0324 -0.0830 -0.6408
  147DOPC   C2617502   3.794   2.573  13.308  0.3389  0.0697 -0.8029
  147DOPC   H6R17503   3.896   2.611  13.331 -0.0894  0.3712  0.7228
  147DOPC   H6S17504   3.723   2.597  13.390  1.6014  2.0556 -0.2193
  147DOPC   C2717505   3.755   2.627  13.173 -0.4091  0.2277 -0.5109
  147DOPC   H7R17506   3.659   2.582  13.143  0.3207 -2.0196  0.3274
  147DOPC   H7S17507   3.836   2.590  13.106  0.5486  1.6249 -0.1841
  147DOPC   C2817508   3.753   2.778  13.164 -0.1769 -0.2513 -0.1952
  147DOPC   H8R17509   3.668   2.802  13.232  1.0486 -0.9596  1.6346
  147DOPC   H8S17510   3.723   2.816  13.063 -1.2204 -1.2568 -0.2924
  147DOPC   C2917511   3.877   2.849  13.218 -0.1541  0.8004  0.6302
  147DOPC   H9R17512   3.879   2.880  13.323  2.0062  1.9262  0.3210
  147DOPC  C21017513   3.990   2.878  13.140  0.9303  0.5711  0.3851
  147DOPC  H10R17514   4.063   2.954  13.171  0.5917  1.2589 -0.4674
  147DOPC  C21117515   4.010   2.829  12.998 -0.2030  0.1889 -0.4474
  147DOPC  H11R17516   3.962   2.902  12.928  0.4217 -0.1592 -1.2567
  147DOPC  H11S17517   3.964   2.729  12.988 -0.8564  0.6291 -2.3037
  147DOPC  C21217518   4.158   2.820  12.963  0.1982  0.9271 -0.6134
  147DOPC  H12R17519   4.169   2.746  12.882 -2.4850  0.6068 -0.7796
  147DOPC  H12S17520   4.216   2.784  13.050  0.4471 -0.1248 -1.1968
  147DOPC  C21317521   4.215   2.957  12.919  0.0737 -0.2568 -0.4400
  147DOPC  H13R17522   4.209   3.033  13.001 -1.1329 -0.3134 -0.4716
  147DOPC  H13S17523   4.153   2.988  12.832  1.7054  0.1768 -1.5072
  147DOPC  C21417524   4.357   2.944  12.873 -0.0866 -0.0378  0.5835
  147DOPC  H14R17525   4.358   2.852  12.810  0.6979  0.0745  0.4192
  147DOPC  H14S17526   4.434   2.917  12.949  1.7883 -1.0722 -1.5616
  147DOPC  C21517527   4.414   3.068  12.800  1.0984  0.4916 -0.0254
  147DOPC  H15R17528   4.401   3.156  12.866  0.6599  0.3843  0.0378
  147DOPC  H15S17529   4.351   3.103  12.716 -2.3085  1.0348  2.5374
  147DOPC  C21617530   4.552   3.055  12.746  0.5858  0.1446 -0.4931
  147DOPC  H16R17531   4.543   2.956  12.697 -1.3983 -0.0931  0.2843
  147DOPC  H16S17532   4.628   3.055  12.828 -1.1935  0.3833  1.2295
  147DOPC  C21717533   4.593   3.166  12.648 -0.5062  0.1495  0.7042
  147DOPC  H17R17534   4.700   3.188  12.664  0.1187 -2.0584 -0.0891
  147DOPC  H17S17535   4.554   3.263  12.686  1.3596 -0.2186  3.9340
  147DOPC  C21817536   4.546   3.146  12.505 -0.1316 -0.6356 -0.1627
  147DOPC  H18R17537   4.435   3.144  12.502 -0.1954  1.4524 -1.6313
  147DOPC  H18S17538   4.595   3.073  12.437  0.9358  0.6899 -0.8767
  147DOPC  H18T17539   4.569   3.242  12.453  1.2555 -0.3529  0.8991
  147DOPC   C3317540   4.272   2.448  13.544 -0.3775 -0.1948 -0.7333
  147DOPC   H3X17541   4.374   2.444  13.587 -0.1881  1.2203 -0.9942
  147DOPC   H3Y17542   4.201   2.486  13.620  0.2998 -0.5445  0.0961
  147DOPC   C3417543   4.259   2.552  13.429 -0.2406  1.1189 -0.0735
  147DOPC   H4X17544   4.153   2.569  13.400  0.0787  0.0046 -2.0406
  147DOPC   H4Y17545   4.304   2.502  13.341  1.0130 -0.5786  1.4704
  147DOPC   C3517546   4.322   2.686  13.465 -0.3445  0.0683  0.9207
  147DOPC   H5X17547   4.430   2.668  13.481 -0.4370 -0.6489  0.7804
  147DOPC   H5Y17548   4.285   2.733  13.559 -1.6817 -1.1402  1.0338
  147DOPC   C3617549   4.300   2.792  13.350  0.0275  0.0657  0.4488
  147DOPC   H6X17550   4.345   2.772  13.251 -0.6905  0.9492 -0.0747
  147DOPC   H6Y17551   4.190   2.800  13.332  0.3612  0.8847 -1.4666
  147DOPC   C3717552   4.351   2.924  13.397  0.0616 -0.5783  0.2822
  147DOPC   H7X17553   4.326   2.944  13.503  1.5344  3.8253  0.0132
  147DOPC   H7Y17554   4.461   2.906  13.396  0.4180  1.3862  0.0054
  147DOPC   C3817555   4.322   3.044  13.300  0.5848 -0.2580 -0.4918
  147DOPC   H8X17556   4.214   3.068  13.309  0.6402  1.0513 -2.4907
  147DOPC   H8Y17557   4.336   3.003  13.197 -2.4296 -0.1156 -1.0297
  147DOPC   C3917558   4.418   3.155  13.337  0.3063  0.3696 -0.3248
  147DOPC   H9X17559   4.382   3.228  13.410 -1.6556  0.4990 -1.3375
  147DOPC  C31017560   4.546   3.167  13.297  0.2004 -0.0937  0.1694
  147DOPC  H10X17561   4.602   3.259  13.320 -0.2501  0.3565 -0.4905
  147DOPC  C31117562   4.609   3.098  13.182 -0.6831 -0.0141  0.4998
  147DOPC  H11X17563   4.604   3.148  13.084 -2.2602 -0.8963  0.0964
  147DOPC  H11Y17564   4.551   3.006  13.159 -0.5010 -0.1615  0.6252
  147DOPC  C31217565   4.754   3.050  13.204  0.7388 -0.2296  0.6265
  147DOPC  H12X17566   4.748   2.975  13.286 -0.8846 -2.1080 -1.0954
  147DOPC  H12Y17567   4.822   3.132  13.236  2.9888 -1.7432 -0.0061
  147DOPC  C31317568   4.804   2.974  13.083  0.3287  0.5331  0.3587
  147DOPC  H13X17569   4.879   2.902  13.122 -0.4204 -0.4945 -0.0520
  147DOPC  H13Y17570   4.728   2.901  13.047  1.1665 -0.8726  1.3768
  147DOPC  C31417571   4.869   3.077  12.992 -0.2528  0.3686 -0.7328
  147DOPC  H14X17572   4.794   3.156  12.966 -0.1997  0.7686  0.2715
  147DOPC  H14Y17573   4.952   3.108  13.060 -0.6313 -0.8762  0.3268
  147DOPC  C31517574   4.942   3.023  12.873 -0.1188  0.5047 -0.3104
  147DOPC  H15X17575   4.860   2.963  12.829  1.4606 -1.1116 -1.1928
  147DOPC  H15Y17576   5.025   2.957  12.907 -1.3164 -0.8260  0.1137
  147DOPC  C31617577   5.000   3.124  12.773 -0.2770 -0.6442 -0.4409
  147DOPC  H16X17578   4.923   3.204  12.768 -1.3168 -1.5914  0.0201
  147DOPC  H16Y17579   5.088   3.164  12.828 -2.0069  1.3405  1.0804
  147DOPC  C31717580   5.039   3.066  12.635  0.3000  0.3510 -0.0118
  147DOPC  H17X17581   4.954   3.030  12.572 -0.2481 -0.2230  1.0301
  147DOPC  H17Y17582   5.093   3.143  12.575 -0.6238 -0.9304 -2.6629
  147DOPC  C31817583   5.122   2.932  12.664  0.3411  0.2063  0.4214
  147DOPC  H18X17584   5.204   2.960  12.734 -0.3236 -4.0536  3.3766
  147DOPC  H18Y17585   5.069   2.851  12.720 -1.3607 -2.1978 -4.1335
  147DOPC  H18Z17586   5.166   2.887  12.573 -0.5911  0.0554  0.0391
  148DOPC     N17587   3.054   5.717  14.658 -0.2899 -0.1936 -0.1569
  148DOPC   C1217588   3.067   5.665  14.515  0.3531  0.2269  0.2959
  148DOPC  H12A17589   3.063   5.557  14.510  0.1147  0.2623 -0.5830
  148DOPC  H12B17590   3.169   5.686  14.485  0.4256 -1.1461 -0.4889
  148DOPC   C1317591   3.147   5.635  14.734 -0.2467 -0.0364  0.3888
  148DOPC  H13A17592   3.243   5.618  14.688  0.6912 -2.8899  2.9922
  148DOPC  H13B17593   3.170   5.691  14.824 -2.1181 -0.1275  0.9743
  148DOPC  H13C17594   3.106   5.541  14.767  0.9549 -0.3735  0.9929
  148DOPC   C1417595   2.923   5.708  14.720 -0.3123 -0.2854  0.1014
  148DOPC  H14A17596   2.850   5.762  14.662 -0.0757 -0.9027 -0.7932
  148DOPC  H14B17597   2.897   5.604  14.708  1.5888 -0.6670 -1.0265
  148DOPC  H14C17598   2.924   5.734  14.825  0.5615  0.0959  0.0032
  148DOPC   C1517599   3.102   5.858  14.664  1.1463  0.6880 -0.1750
  148DOPC  H15A17600   3.199   5.871  14.619  0.4112 -1.8212 -2.7907
  148DOPC  H15B17601   3.104   5.888  14.768 -2.7146 -1.6201  0.7513
  148DOPC  H15C17602   3.026   5.917  14.614 -0.3825 -0.8515  0.2442
  148DOPC   C1117603   2.966   5.721  14.414 -0.0147 -0.1653 -0.3312
  148DOPC  H11A17604   2.974   5.831  14.418  1.6534 -0.1945 -1.6164
  148DOPC  H11B17605   2.987   5.688  14.310 -0.6751  2.7939 -1.5006
  148DOPC     P17606   2.783   5.544  14.450 -0.1991  0.3009 -0.2456
  148DOPC   O1317607   2.711   5.517  14.573  0.1198 -0.1241  0.4944
  148DOPC   O1417608   2.894   5.449  14.423  0.6304  0.5437  0.3269
  148DOPC   O1217609   2.833   5.695  14.449  0.2734  0.3558  0.4055
  148DOPC   O1117610   2.685   5.538  14.322  0.2913 -0.0933  0.1555
  148DOPC    C117611   2.625   5.662  14.280  0.4719 -0.2022  0.2210
  148DOPC    HA17612   2.694   5.749  14.286  1.2848 -0.6798 -1.4472
  148DOPC    HB17613   2.538   5.677  14.347  0.6290 -0.3313  0.4545
  148DOPC    C217614   2.570   5.648  14.133  0.3059  1.2726  0.2420
  148DOPC    HS17615   2.503   5.560  14.119  0.4044  1.5422 -2.4424
  148DOPC   O2117616   2.675   5.653  14.038  0.4613 -0.5048  0.4808
  148DOPC   C2117617   2.656   5.583  13.922  0.1699 -0.4507 -0.4047
  148DOPC   O2217618   2.562   5.504  13.904 -0.5784 -0.1619  0.2975
  148DOPC   C2217619   2.761   5.606  13.821 -0.3586 -0.1044  1.1585
  148DOPC   H2R17620   2.799   5.504  13.798 -1.3943 -0.6066  1.6548
  148DOPC   H2S17621   2.849   5.655  13.867  0.9607 -1.9600  0.7532
  148DOPC    C317622   2.474   5.765  14.101  0.5174 -0.3272 -1.2646
  148DOPC    HX17623   2.542   5.852  14.099  0.7671 -0.0962  3.7415
  148DOPC    HY17624   2.391   5.766  14.175  1.2190 -1.4450 -0.4230
  148DOPC   O3117625   2.418   5.748  13.964 -0.1605 -0.2853 -0.2915
  148DOPC   C3117626   2.287   5.707  13.955 -0.2072  0.3470 -0.5045
  148DOPC   O3217627   2.219   5.667  14.048 -0.0372  0.0270 -0.1461
  148DOPC   C3217628   2.227   5.730  13.808  0.9956 -0.2460 -0.1268
  148DOPC   H2X17629   2.226   5.629  13.763  2.7221 -0.1157 -0.5406
  148DOPC   H2Y17630   2.125   5.762  13.839  0.3250 -0.2540 -2.1745
  148DOPC   C2317631   2.710   5.686  13.701 -0.3431 -1.2742  0.0817
  148DOPC   H3R17632   2.606   5.656  13.676 -1.4077 -0.5338  3.1814
  148DOPC   H3S17633   2.778   5.666  13.615 -0.0799  2.3328 -0.6962
  148DOPC   C2417634   2.712   5.842  13.729  0.8805  0.0048  1.2740
  148DOPC   H4R17635   2.821   5.858  13.743  0.9902 -0.3780  0.8726
  148DOPC   H4S17636   2.662   5.858  13.827 -0.3739  0.6092  0.5513
  148DOPC   C2517637   2.661   5.922  13.605  0.1121 -0.4818 -0.1276
  148DOPC   H5R17638   2.684   6.029  13.624 -2.5009 -0.0150  0.7486
  148DOPC   H5S17639   2.550   5.921  13.603  0.0756  1.3246 -0.6366
  148DOPC   C2617640   2.723   5.872  13.470 -0.6104 -0.2429 -0.3225
  148DOPC   H6R17641   2.674   5.774  13.450  1.5103 -1.6112  0.8567
  148DOPC   H6S17642   2.830   5.854  13.490 -0.3765 -0.7928 -1.9542
  148DOPC   C2717643   2.694   5.971  13.352 -0.0826  0.2197  1.3662
  148DOPC   H7R17644   2.753   6.064  13.357 -0.9309  1.0775 -2.2181
  148DOPC   H7S17645   2.586   5.995  13.363 -0.2937  0.3629 -0.7193
  148DOPC   C2817646   2.713   5.911  13.213  0.5404 -0.7417  1.3101
  148DOPC   H8R17647   2.648   5.821  13.222 -0.6155 -0.4266 -2.2665
  148DOPC   H8S17648   2.819   5.880  13.213  0.7585 -0.0248  1.1067
  148DOPC   C2917649   2.682   5.997  13.093 -0.0110 -0.1841 -0.1497
  148DOPC   H9R17650   2.731   6.095  13.086  0.8420 -0.7168 -2.7905
  148DOPC  C21017651   2.580   5.970  13.010 -0.0607 -0.1106 -0.3494
  148DOPC  H10R17652   2.568   6.036  12.922  1.5975  0.7033 -0.0060
  148DOPC  C21117653   2.499   5.847  13.011  0.6586 -0.0408  0.1734
  148DOPC  H11R17654   2.411   5.859  13.078  0.2605 -0.6215 -0.2404
  148DOPC  H11S17655   2.554   5.762  13.056  1.4414  1.1412  1.5400
  148DOPC  C21217656   2.444   5.790  12.873  0.5337  0.0663  0.2625
  148DOPC  H12R17657   2.539   5.770  12.817  0.1844 -2.6298  0.4745
  148DOPC  H12S17658   2.369   5.861  12.833  0.8434  0.1526 -0.1742
  148DOPC  C21317659   2.371   5.656  12.892 -0.2624 -0.1136  0.2429
  148DOPC  H13R17660   2.314   5.656  12.987  0.6214  0.2294  0.7887
  148DOPC  H13S17661   2.448   5.576  12.896  1.9512  1.9682  2.2645
  148DOPC  C21417662   2.272   5.638  12.774 -0.3116  0.4531  0.1917
  148DOPC  H14R17663   2.250   5.529  12.772 -1.8657  0.7539 -0.0947
  148DOPC  H14S17664   2.310   5.668  12.675 -3.1932  0.9568 -0.8472
  148DOPC  C21517665   2.143   5.703  12.784 -0.2433 -0.3978 -0.3749
  148DOPC  H15R17666   2.153   5.814  12.780 -0.2160 -0.4267 -2.2215
  148DOPC  H15S17667   2.102   5.675  12.883 -0.8544  0.6634 -0.3130
  148DOPC  C21617668   2.051   5.674  12.668  0.3670  0.8161  0.2794
  148DOPC  H16R17669   2.057   5.563  12.664 -1.2575  0.5566  2.5190
  148DOPC  H16S17670   2.081   5.720  12.572 -1.9576  1.3162 -0.2715
  148DOPC  C21717671   1.905   5.697  12.703 -0.2377 -0.1916 -0.7107
  148DOPC  H17R17672   1.903   5.804  12.733  1.4450 -0.0039 -1.1610
  148DOPC  H17S17673   1.862   5.641  12.788  0.5878 -0.1607 -0.2541
  148DOPC  C21817674   1.806   5.684  12.588  0.2723  0.4304 -0.7261
  148DOPC  H18R17675   1.804   5.579  12.552 -0.3507  0.6700 -1.4213
  148DOPC  H18S17676   1.834   5.752  12.505  0.6265 -1.2863 -2.0908
  148DOPC  H18T17677   1.706   5.723  12.619  0.1985 -1.5748  1.9748
  148DOPC   C3317678   2.299   5.830  13.722  0.4627 -0.3536 -0.2941
  148DOPC   H3X17679   2.386   5.772  13.683 -0.1731 -0.8625 -0.9876
  148DOPC   H3Y17680   2.331   5.918  13.781  0.0109 -1.9015  2.4141
  148DOPC   C3417681   2.209   5.887  13.611 -0.2523  0.2460 -0.3001
  148DOPC   H4X17682   2.274   5.955  13.551 -1.9391  1.1677 -1.1741
  148DOPC   H4Y17683   2.123   5.942  13.656 -0.4578 -1.3422  1.3706
  148DOPC   C3517684   2.163   5.767  13.528 -0.6574  0.5881  0.2724
  148DOPC   H5X17685   2.098   5.692  13.577  0.9474 -1.6076 -0.8062
  148DOPC   H5Y17686   2.255   5.714  13.493 -1.0498 -0.0501  0.1947
  148DOPC   C3617687   2.087   5.805  13.399 -0.2328 -0.6350  0.1589
  148DOPC   H6X17688   2.026   5.715  13.374 -0.2242 -0.3953 -0.7272
  148DOPC   H6Y17689   2.023   5.891  13.428 -0.2800 -1.2812  2.1576
  148DOPC   C3717690   2.187   5.840  13.282  0.4299 -0.1606  0.1041
  148DOPC   H7X17691   2.239   5.936  13.302 -1.8610  1.3218 -0.6646
  148DOPC   H7Y17692   2.249   5.749  13.266  1.1569  0.6808 -2.2574
  148DOPC   C3817693   2.116   5.857  13.145 -0.1143  0.0886 -0.1356
  148DOPC   H8X17694   2.061   5.761  13.130  0.5288  0.0105 -2.4472
  148DOPC   H8Y17695   2.183   5.842  13.058  0.3798 -1.1644  0.4282
  148DOPC   C3917696   2.029   5.973  13.128  0.1096 -0.9082  0.2967
  148DOPC   H9X17697   1.932   5.971  13.179  0.1759 -2.3685  0.4111
  148DOPC  C31017698   2.065   6.078  13.052 -0.2285 -0.2814  0.3555
  148DOPC  H10X17699   1.997   6.164  13.040  1.0418  1.0941  2.4653
  148DOPC  C31117700   2.201   6.103  12.988 -0.2460  0.7478 -0.1955
  148DOPC  H11X17701   2.216   6.031  12.904  2.7700 -0.4308  1.2206
  148DOPC  H11Y17702   2.280   6.079  13.062  0.2131  1.0968 -0.5629
  148DOPC  C31217703   2.208   6.245  12.935 -0.1873 -1.0861 -0.9176
  148DOPC  H12X17704   2.306   6.278  12.896  0.1593  0.3308  1.0196
  148DOPC  H12Y17705   2.189   6.324  13.010  1.6562 -1.2511 -0.2453
  148DOPC  C31317706   2.116   6.261  12.806 -0.1665 -0.9780 -0.2735
  148DOPC  H13X17707   2.150   6.180  12.738  1.1345  0.3270 -1.2442
  148DOPC  H13Y17708   2.007   6.255  12.826 -0.8880  1.7437 -2.7625
  148DOPC  C31417709   2.142   6.403  12.739  0.2431  0.6200  0.5622
  148DOPC  H14X17710   2.252   6.415  12.727  0.3689 -0.9120  0.1161
  148DOPC  H14Y17711   2.102   6.396  12.636  0.1626  0.3815  0.6107
  148DOPC  C31517712   2.067   6.522  12.806 -0.3087  0.3386  0.0643
  148DOPC  H15X17713   2.106   6.515  12.910  0.5400  0.5520 -0.2354
  148DOPC  H15Y17714   1.956   6.510  12.807 -0.2780  0.0177  1.4923
  148DOPC  C31617715   2.115   6.652  12.744 -0.5640 -0.0741  0.1622
  148DOPC  H16X17716   2.225   6.645  12.734 -0.3532  1.7906  0.7940
  148DOPC  H16Y17717   2.079   6.666  12.640  0.4697  1.8547  0.0204
  148DOPC  C31717718   2.069   6.767  12.839 -0.4525  0.2539 -0.4111
  148DOPC  H17X17719   1.961   6.744  12.847 -0.7154  1.8134  1.1295
  148DOPC  H17Y17720   2.117   6.774  12.939 -0.5108  1.1159 -0.4305
  148DOPC  C31817721   2.088   6.903  12.761 -0.8921 -0.5552  0.2491
  148DOPC  H18X17722   2.054   6.991  12.819 -0.5477 -0.3768  0.1843
  148DOPC  H18Y17723   2.195   6.903  12.730 -0.8018 -0.8422  0.5505
  148DOPC  H18Z17724   2.032   6.903  12.665  1.0624  2.1576 -1.0223
  149DOPC     N17725   1.933   2.612  14.069 -0.0770  0.0833 -0.3106
  149DOPC   C1217726   1.961   2.717  13.967  0.2939 -0.0173 -0.0192
  149DOPC  H12A17727   2.062   2.705  13.933  0.9598 -0.3888  1.9481
  149DOPC  H12B17728   1.944   2.810  14.021  1.3783  0.0372  0.2447
  149DOPC   C1317729   1.790   2.603  14.098  0.1484  0.2323 -0.2308
  149DOPC  H13A17730   1.781   2.513  14.158  2.3173  0.8731  1.1769
  149DOPC  H13B17731   1.755   2.676  14.170  2.5332  0.5195  0.7124
  149DOPC  H13C17732   1.715   2.590  14.022 -2.2215 -1.4273  2.1871
  149DOPC   C1417733   2.000   2.633  14.194 -0.6313 -0.1933 -0.0471
  149DOPC  H14A17734   1.948   2.705  14.255 -1.7676 -0.4482 -0.6660
  149DOPC  H14B17735   2.017   2.540  14.246 -1.4807 -1.0551 -1.2377
  149DOPC  H14C17736   2.097   2.678  14.181 -0.8170  0.7419  1.5235
  149DOPC   C1517737   1.977   2.483  14.007  0.2143 -0.5322  0.3795
  149DOPC  H15A17738   1.937   2.398  14.060  2.5084 -2.9403 -1.4479
  149DOPC  H15B17739   2.085   2.488  14.010  0.2827  1.5576 -1.9795
  149DOPC  H15C17740   1.948   2.479  13.903  1.2635 -1.1658  0.0970
  149DOPC   C1117741   1.872   2.742  13.832  0.2003 -0.5213  0.5016
  149DOPC  H11A17742   1.926   2.817  13.772  1.3486 -1.2722  0.5542
  149DOPC  H11B17743   1.859   2.643  13.782  0.3959  0.2758 -1.1894
  149DOPC     P17744   1.707   2.931  13.909  0.1247 -0.1139 -0.2328
  149DOPC   O1317745   1.799   2.959  14.020  0.1934  0.4470  0.4144
  149DOPC   O1417746   1.562   2.941  13.932 -0.7575  0.5318 -0.2207
  149DOPC   O1217747   1.735   2.782  13.860 -0.3806 -0.2152  0.1523
  149DOPC   O1117748   1.738   3.032  13.789  0.4007 -0.2850  0.0239
  149DOPC    C117749   1.665   3.011  13.663  0.3840 -0.0329  0.1564
  149DOPC    HA17750   1.576   3.077  13.673  0.7609  0.4600  0.3478
  149DOPC    HB17751   1.645   2.904  13.645  0.9391 -0.4500  1.8961
  149DOPC    C217752   1.746   3.066  13.546  0.2311  0.5868  0.0834
  149DOPC    HS17753   1.685   3.078  13.454 -0.4520 -1.5298  0.2060
  149DOPC   O2117754   1.849   2.971  13.502 -0.3109 -0.3739  0.4008
  149DOPC   C2117755   1.811   2.861  13.443 -0.6396  0.2645 -0.0379
  149DOPC   O2217756   1.694   2.833  13.409 -0.1255 -0.1472 -0.3750
  149DOPC   C2217757   1.930   2.772  13.413 -0.2010  0.3424  0.3773
  149DOPC   H2R17758   1.995   2.756  13.501 -1.0503  0.3625  1.0230
  149DOPC   H2S17759   1.984   2.817  13.327 -0.5611  0.4686  0.2124
  149DOPC    C317760   1.808   3.202  13.576 -0.1729 -0.4164  0.2227
  149DOPC    HX17761   1.893   3.185  13.645 -0.5208 -2.5356  0.1990
  149DOPC    HY17762   1.728   3.260  13.628 -0.2343 -1.1771  0.9842
  149DOPC   O3117763   1.837   3.272  13.449  0.3711 -0.1870 -0.3207
  149DOPC   C3117764   1.957   3.330  13.434  0.5061 -0.2972  0.1982
  149DOPC   O3217765   2.031   3.365  13.521  0.1394 -0.3011 -0.0228
  149DOPC   C3217766   1.972   3.363  13.280 -0.1360 -0.0076 -0.7921
  149DOPC   H2X17767   2.054   3.299  13.240 -1.9658 -1.1321 -2.9809
  149DOPC   H2Y17768   1.879   3.351  13.220  1.1645 -0.2680 -2.8643
  149DOPC   C2317769   1.894   2.627  13.381  1.2493  0.2470 -0.0627
  149DOPC   H3R17770   1.826   2.627  13.293  2.1250  2.9052 -0.8202
  149DOPC   H3S17771   1.843   2.572  13.464  4.7264 -0.2512  1.9387
  149DOPC   C2417772   2.019   2.545  13.342 -0.1970 -0.3799 -0.4722
  149DOPC   H4R17773   2.082   2.552  13.433 -1.6624 -1.5139  0.6882
  149DOPC   H4S17774   2.070   2.596  13.258 -0.6292  0.0580 -0.4757
  149DOPC   C2517775   2.005   2.405  13.305  0.3686  0.4800 -0.1483
  149DOPC   H5R17776   1.960   2.402  13.203 -0.7176  1.0141  0.3002
  149DOPC   H5S17777   1.939   2.355  13.379  1.5947 -1.3374 -0.2241
  149DOPC   C2617778   2.132   2.326  13.287 -0.3350  0.8339  0.2345
  149DOPC   H6R17779   2.185   2.335  13.384 -1.0511  0.8304  0.6329
  149DOPC   H6S17780   2.196   2.368  13.206 -0.7322  0.1546 -0.4477
  149DOPC   C2717781   2.119   2.174  13.268  0.5039  0.3521 -0.2413
  149DOPC   H7R17782   2.045   2.132  13.196  0.2839 -0.9336  0.6995
  149DOPC   H7S17783   2.066   2.148  13.362 -0.2384  2.1956 -0.1134
  149DOPC   C2817784   2.253   2.103  13.251  0.3203 -0.3310  0.0185
  149DOPC   H8R17785   2.228   1.998  13.276 -0.3099 -0.2993 -0.4596
  149DOPC   H8S17786   2.321   2.139  13.330 -0.4723  0.2987  0.4288
  149DOPC   C2917787   2.311   2.107  13.113 -0.0925 -0.0652  0.5192
  149DOPC   H9R17788   2.267   2.039  13.038 -2.3211  1.7699  0.0143
  149DOPC  C21017789   2.419   2.174  13.056  0.6765  0.0389  0.1544
  149DOPC  H10R17790   2.442   2.153  12.951  1.1891  0.5333  0.1652
  149DOPC  C21117791   2.498   2.281  13.131 -0.3714 -0.3571 -0.3274
  149DOPC  H11R17792   2.441   2.317  13.220  1.4018 -0.0630  0.7224
  149DOPC  H11S17793   2.511   2.372  13.069 -2.2715  0.7697  0.8080
  149DOPC  C21217794   2.632   2.236  13.187 -0.1290  0.3665 -0.3633
  149DOPC  H12R17795   2.699   2.209  13.103  1.9001  0.0975  1.2601
  149DOPC  H12S17796   2.609   2.145  13.246  0.1259  2.2199  2.8412
  149DOPC  C21317797   2.695   2.347  13.276  0.8426  0.2209  0.0856
  149DOPC  H13R17798   2.632   2.368  13.365 -0.8812  1.9543 -1.4540
  149DOPC  H13S17799   2.696   2.438  13.211 -1.1378 -1.9367 -3.2359
  149DOPC  C21417800   2.840   2.304  13.315  0.7257 -0.9711 -0.4765
  149DOPC  H14R17801   2.850   2.202  13.359  1.6263 -0.5385  0.3759
  149DOPC  H14S17802   2.867   2.385  13.386 -1.2172 -0.0775 -0.7015
  149DOPC  C21517803   2.944   2.321  13.201 -0.0306 -0.2011 -0.4993
  149DOPC  H15R17804   2.924   2.416  13.148  0.9331  0.7378  0.7461
  149DOPC  H15S17805   2.927   2.238  13.129  1.1883 -2.4482  1.6788
  149DOPC  C21617806   3.093   2.329  13.244 -0.1252  0.8573  0.4395
  149DOPC  H16R17807   3.101   2.252  13.324  1.1530  1.2037  0.6647
  149DOPC  H16S17808   3.103   2.423  13.304 -1.3627 -0.3200  2.6338
  149DOPC  C21717809   3.189   2.304  13.134  0.2934  0.0126  0.3146
  149DOPC  H17R17810   3.182   2.384  13.058 -0.4236  0.1037  0.4731
  149DOPC  H17S17811   3.170   2.211  13.076  0.1790  0.7636 -0.8744
  149DOPC  C21817812   3.339   2.312  13.175  0.6322 -0.2507  0.0592
  149DOPC  H18R17813   3.399   2.296  13.082 -0.5676 -2.1420 -0.4393
  149DOPC  H18S17814   3.356   2.233  13.251 -1.5222 -0.5727  0.2748
  149DOPC  H18T17815   3.360   2.413  13.217  0.0973 -0.0667 -0.1073
  149DOPC   C3317816   2.020   3.509  13.267 -0.2988  0.2098 -0.0981
  149DOPC   H3X17817   2.113   3.515  13.327 -0.2466 -0.4913 -0.1020
  149DOPC   H3Y17818   1.946   3.582  13.308 -3.0706 -2.4314 -0.0235
  149DOPC   C3417819   2.041   3.554  13.111  0.0982  0.9453 -0.2849
  149DOPC   H4X17820   1.937   3.548  13.071 -1.5442 -2.4486  3.6488
  149DOPC   H4Y17821   2.098   3.465  13.077 -2.6355 -0.1374 -2.4600
  149DOPC   C3517822   2.130   3.675  13.087 -0.1322 -0.5099  0.0908
  149DOPC   H5X17823   2.214   3.662  13.158  0.4653 -0.0931 -0.5264
  149DOPC   H5Y17824   2.063   3.761  13.110 -1.3385 -1.2400 -0.5685
  149DOPC   C3617825   2.187   3.699  12.943 -0.5885 -0.4127 -0.1564
  149DOPC   H6X17826   2.242   3.605  12.921  0.7589  0.6423 -1.4296
  149DOPC   H6Y17827   2.093   3.711  12.884 -2.3987  0.9034  2.7723
  149DOPC   C3717828   2.288   3.813  12.931  0.6086 -0.0299  0.4143
  149DOPC   H7X17829   2.355   3.781  12.849 -0.8188 -2.7823  0.2126
  149DOPC   H7Y17830   2.231   3.902  12.897  0.5785 -0.4133 -0.5736
  149DOPC   C3817831   2.383   3.838  13.054 -0.2593 -0.4918  1.4060
  149DOPC   H8X17832   2.407   3.737  13.095  1.8844  0.2223  2.0017
  149DOPC   H8Y17833   2.322   3.897  13.124  0.2259 -1.4795  2.6982
  149DOPC   C3917834   2.508   3.915  13.012  0.3630 -0.3556  0.4621
  149DOPC   H9X17835   2.483   4.021  12.996 -0.5697 -0.7250 -0.6897
  149DOPC  C31017836   2.637   3.878  13.001  0.0774  0.3818 -0.5348
  149DOPC  H10X17837   2.715   3.955  12.990  0.5399  0.4092  2.1276
  149DOPC  C31117838   2.696   3.742  13.028 -0.0853  0.3376  0.0436
  149DOPC  H11X17839   2.635   3.689  13.104 -1.7678  0.0902 -1.3926
  149DOPC  H11Y17840   2.801   3.747  13.064  0.4260 -0.5301 -1.2463
  149DOPC  C31217841   2.701   3.648  12.903  0.3533 -0.0244 -0.2480
  149DOPC  H12X17842   2.609   3.651  12.840 -0.6502 -2.7416  0.9396
  149DOPC  H12Y17843   2.710   3.544  12.940  1.1831  0.0113 -0.3307
  149DOPC  C31317844   2.824   3.668  12.810 -0.1477  0.2119  0.2560
  149DOPC  H13X17845   2.803   3.763  12.756 -0.8369 -1.2401 -2.1718
  149DOPC  H13Y17846   2.916   3.688  12.869 -0.8293  1.6506  0.8919
  149DOPC  C31417847   2.848   3.567  12.694  0.1687 -0.3405  0.1826
  149DOPC  H14X17848   2.757   3.557  12.631 -1.7325  0.6405  2.6113
  149DOPC  H14Y17849   2.924   3.608  12.624 -0.6577 -0.1605 -0.6210
  149DOPC  C31517850   2.882   3.418  12.723  0.4291  0.8775  0.2041
  149DOPC  H15X17851   2.853   3.357  12.635  2.7108  0.9255 -0.6463
  149DOPC  H15Y17852   2.830   3.372  12.809 -2.1276  2.2586 -0.4809
  149DOPC  C31617853   3.031   3.395  12.735 -0.2610  0.4783  0.6201
  149DOPC  H16X17854   3.064   3.417  12.631  0.9746 -2.2122  0.3546
  149DOPC  H16Y17855   3.085   3.465  12.802  0.8040  0.2604  0.0131
  149DOPC  C31717856   3.065   3.255  12.782 -0.6395  0.1718  0.1648
  149DOPC  H17X17857   3.175   3.270  12.776 -0.8356  2.1502  0.8502
  149DOPC  H17Y17858   3.022   3.254  12.885 -1.5168 -3.3550 -0.0925
  149DOPC  C31817859   3.019   3.137  12.701 -0.2525 -0.1627 -0.2908
  149DOPC  H18X17860   2.908   3.128  12.702 -0.2424 -0.2579  0.4380
  149DOPC  H18Y17861   3.057   3.147  12.597 -1.3393  0.7371 -0.6229
  149DOPC  H18Z17862   3.061   3.045  12.746 -0.6736 -1.0579 -1.6706
  150DOPC     N17863   5.361   8.004  14.299  0.4845 -0.1858 -0.0584
  150DOPC   C1217864   5.331   7.871  14.229  0.0304 -0.0271  0.4180
  150DOPC  H12A17865   5.359   7.877  14.125 -1.2510  1.3226  0.1314
  150DOPC  H12B17866   5.225   7.853  14.228  0.3740 -2.4803  0.5396
  150DOPC   C1317867   5.510   8.035  14.320  0.0400  0.4026 -0.1536
  150DOPC  H13A17868   5.561   8.052  14.226  0.5985 -0.6801 -0.0650
  150DOPC  H13B17869   5.517   8.120  14.385  3.4713  1.2299 -1.4209
  150DOPC  H13C17870   5.544   7.951  14.380 -2.4224  0.1440  1.0191
  150DOPC   C1417871   5.293   8.010  14.438  0.2766  0.0670  0.1660
  150DOPC  H14A17872   5.334   8.093  14.494 -0.9361 -1.0804  2.9154
  150DOPC  H14B17873   5.187   8.031  14.432  0.3183  0.1752 -0.2146
  150DOPC  H14C17874   5.310   7.923  14.500  0.3121  2.2545  3.4748
  150DOPC   C1517875   5.306   8.114  14.212 -0.4246  0.8353  0.2357
  150DOPC  H15A17876   5.203   8.094  14.186 -0.7668  1.1930  1.2548
  150DOPC  H15B17877   5.358   8.113  14.117 -0.2254  1.3153  0.3389
  150DOPC  H15C17878   5.300   8.215  14.250 -0.3319  0.9182  0.0304
  150DOPC   C1117879   5.387   7.739  14.301  0.0196  0.1351  0.3906
  150DOPC  H11A17880   5.339   7.731  14.401  0.9398  0.0855  0.8308
  150DOPC  H11B17881   5.344   7.660  14.235  0.9021 -1.2873  1.4740
  150DOPC     P17882   5.626   7.698  14.200 -0.3201 -0.2869  0.2021
  150DOPC   O1317883   5.695   7.562  14.217 -0.4371 -0.1416 -0.2003
  150DOPC   O1417884   5.717   7.816  14.182  0.7920  0.2104  0.1458
  150DOPC   O1217885   5.531   7.729  14.320 -0.6519 -0.6665 -0.3334
  150DOPC   O1117886   5.531   7.694  14.075  0.2970 -0.6980  0.3160
  150DOPC    C117887   5.487   7.577  14.008  0.2441  0.6292 -0.0771
  150DOPC    HA17888   5.384   7.601  13.973  0.8064  0.1240 -2.2135
  150DOPC    HB17889   5.468   7.500  14.087  0.8437  0.0718 -0.4645
  150DOPC    C217890   5.585   7.530  13.897 -0.3648  0.3955 -0.3738
  150DOPC    HS17891   5.668   7.473  13.945 -0.8551  0.4600  0.5785
  150DOPC   O2117892   5.623   7.645  13.827 -0.1624  0.5919 -0.0962
  150DOPC   C2117893   5.753   7.626  13.785 -0.0109 -0.2185  0.2243
  150DOPC   O2217894   5.829   7.530  13.801  0.3608 -0.1204 -0.1733
  150DOPC   C2217895   5.803   7.765  13.735  0.4325 -0.1575 -0.4785
  150DOPC   H2R17896   5.882   7.800  13.804  0.0359  0.9129 -0.5486
  150DOPC   H2S17897   5.721   7.840  13.746  0.0478 -0.6459 -0.0060
  150DOPC    C317898   5.504   7.438  13.810  0.1753  0.2174 -0.1232
  150DOPC    HX17899   5.411   7.486  13.774 -0.6144 -0.4117  0.9981
  150DOPC    HY17900   5.469   7.360  13.881 -0.9339  0.7952 -0.0106
  150DOPC   O3117901   5.586   7.391  13.702  0.1319  0.5976 -0.0645
  150DOPC   C3117902   5.642   7.267  13.720  0.0748 -0.3667  0.1989
  150DOPC   O3217903   5.620   7.196  13.817 -0.7141  0.0756  0.6464
  150DOPC   C3217904   5.734   7.237  13.607  0.0010  0.2802  0.0880
  150DOPC   H2X17905   5.729   7.305  13.519  0.6938 -0.7531 -0.7743
  150DOPC   H2Y17906   5.836   7.251  13.648  1.9649 -3.3955 -2.8666
  150DOPC   C2317907   5.837   7.764  13.585 -0.0774  0.1938 -0.3902
  150DOPC   H3R17908   5.837   7.871  13.557 -2.6787  0.0472 -1.2116
  150DOPC   H3S17909   5.764   7.712  13.520 -0.3511  1.1082 -0.8293
  150DOPC   C2417910   5.976   7.694  13.554  0.0120  0.6098  0.6161
  150DOPC   H4R17911   5.972   7.592  13.599 -0.5623  0.2780 -0.1616
  150DOPC   H4S17912   6.053   7.755  13.604  2.3260 -3.2713  2.2063
  150DOPC   C2517913   5.996   7.680  13.404 -0.3233  0.2852 -0.0123
  150DOPC   H5R17914   5.979   7.783  13.368  1.0638  1.2076  1.8174
  150DOPC   H5S17915   5.928   7.605  13.358 -0.6988  0.7613 -0.2383
  150DOPC   C2617916   6.140   7.646  13.374 -0.6131  0.3743  0.0572
  150DOPC   H6R17917   6.160   7.547  13.420 -0.3958 -0.6466 -2.1334
  150DOPC   H6S17918   6.204   7.722  13.424  1.7667 -0.7181 -1.1645
  150DOPC   C2717919   6.168   7.614  13.226 -0.3924 -0.4363 -0.0616
  150DOPC   H7R17920   6.157   7.711  13.173  0.4071 -0.7814 -0.8774
  150DOPC   H7S17921   6.094   7.538  13.194 -0.1756 -0.8969  0.5022
  150DOPC   C2817922   6.303   7.556  13.195  0.4077 -0.1852 -1.0756
  150DOPC   H8R17923   6.302   7.537  13.085 -1.6923  1.0892 -1.3252
  150DOPC   H8S17924   6.317   7.459  13.247 -1.4213  1.2118  2.3536
  150DOPC   C2917925   6.407   7.658  13.234 -0.3442 -0.4401 -0.1464
  150DOPC   H9R17926   6.409   7.675  13.342 -0.1735 -2.4892  0.2266
  150DOPC  C21017927   6.496   7.718  13.155 -0.0796  0.3788  0.2900
  150DOPC  H10R17928   6.582   7.773  13.197 -1.8687  1.3565  2.9084
  150DOPC  C21117929   6.515   7.687  13.006  0.0673 -0.1407 -0.7055
  150DOPC  H11R17930   6.461   7.592  12.983 -1.8866  0.4831  0.9136
  150DOPC  H11S17931   6.622   7.683  12.976  0.1171 -0.1650 -0.5259
  150DOPC  C21217932   6.461   7.799  12.916  0.5937  0.0478  0.4931
  150DOPC  H12R17933   6.522   7.889  12.938  1.4872 -1.1381  3.3896
  150DOPC  H12S17934   6.354   7.807  12.946  0.3923 -1.6399  0.3581
  150DOPC  C21317935   6.471   7.771  12.765 -0.1586  0.0291  0.4720
  150DOPC  H13R17936   6.403   7.687  12.741  0.2639  0.1694 -1.3293
  150DOPC  H13S17937   6.575   7.735  12.750  0.4806  1.8493  0.2837
  150DOPC  C21417938   6.448   7.893  12.679 -0.3282 -0.2261  0.3905
  150DOPC  H14R17939   6.484   7.982  12.735 -1.9335  1.1705 -0.6839
  150DOPC  H14S17940   6.339   7.908  12.663 -0.8845 -1.0547  2.9523
  150DOPC  C21517941   6.520   7.889  12.546  0.0464 -0.2299  0.8621
  150DOPC  H15R17942   6.458   7.819  12.486  1.6998 -2.2739  1.4605
  150DOPC  H15S17943   6.618   7.841  12.561 -0.6347 -1.5015  1.3935
  150DOPC  C21617944   6.516   8.016  12.462  0.1260 -0.2687  0.2216
  150DOPC  H16R17945   6.550   8.099  12.527  0.5079 -1.7403  1.9819
  150DOPC  H16S17946   6.407   8.029  12.441 -0.9171 -1.6111  3.9950
  150DOPC  C21717947   6.607   8.014  12.345  0.1807 -0.5949  0.6703
  150DOPC  H17R17948   6.577   7.933  12.275  1.0795 -0.9319  0.6617
  150DOPC  H17S17949   6.709   7.995  12.384 -0.0661 -0.2816  1.5046
  150DOPC  C21817950   6.616   8.151  12.280  0.0084 -0.1277  0.3145
  150DOPC  H18R17951   6.684   8.151  12.192  1.1005 -1.1063  1.1131
  150DOPC  H18S17952   6.645   8.225  12.357 -0.6206  0.3020  0.1432
  150DOPC  H18T17953   6.515   8.175  12.240  0.4463  0.9213 -0.1831
  150DOPC   C3317954   5.736   7.092  13.555  0.2417 -0.1795  0.1182
  150DOPC   H3X17955   5.630   7.067  13.536 -0.6344  3.1081  0.1321
  150DOPC   H3Y17956   5.770   7.013  13.624 -0.2336 -0.0412  0.5114
  150DOPC   C3417957   5.807   7.083  13.415  0.3203  0.2838  0.0382
  150DOPC   H4X17958   5.824   6.975  13.396 -1.1667 -0.2768  1.5869
  150DOPC   H4Y17959   5.907   7.130  13.428  1.5440 -1.8149 -1.2720
  150DOPC   C3517960   5.727   7.144  13.298 -0.0319 -0.5433 -0.4514
  150DOPC   H5X17961   5.730   7.254  13.309  0.8843 -0.7440  1.8624
  150DOPC   H5Y17962   5.618   7.125  13.302  0.0538 -1.0256  3.2714
  150DOPC   C3617963   5.781   7.091  13.163  0.1540  0.0487  0.1282
  150DOPC   H6X17964   5.887   7.119  13.145  0.3713 -1.0057 -0.3299
  150DOPC   H6Y17965   5.770   6.980  13.162  0.2727  0.0386 -0.2524
  150DOPC   C3717966   5.705   7.156  13.043 -0.3332  0.3099 -0.2965
  150DOPC   H7X17967   5.597   7.146  13.069 -0.1823  1.1402  0.6829
  150DOPC   H7Y17968   5.737   7.260  13.020  3.6975 -1.0105 -1.5240
  150DOPC   C3817969   5.714   7.076  12.914 -0.2056  0.2228 -0.8064
  150DOPC   H8X17970   5.688   6.969  12.934  0.9402  0.0409 -0.2523
  150DOPC   H8Y17971   5.821   7.074  12.886 -0.7720  0.2580 -3.2656
  150DOPC   C3917972   5.625   7.114  12.800 -0.0183 -0.4914 -0.5928
  150DOPC   H9X17973   5.519   7.091  12.816 -0.3061  1.4824  0.6537
  150DOPC  C31017974   5.664   7.155  12.680 -0.6275  0.5119  0.4217
  150DOPC  H10X17975   5.590   7.182  12.603  3.2764  2.7282 -2.9762
  150DOPC  C31117976   5.805   7.192  12.630  0.3491  0.2127  0.5727
  150DOPC  H11X17977   5.872   7.217  12.715  0.9487  0.0762  0.1453
  150DOPC  H11Y17978   5.794   7.292  12.584  2.6748  0.2793  0.0398
  150DOPC  C31217979   5.874   7.082  12.543 -0.0728  0.2216 -0.1902
  150DOPC  H12X17980   5.876   6.990  12.605 -0.0464  0.3300 -0.0280
  150DOPC  H12Y17981   5.980   7.096  12.513 -0.8385 -0.1433 -3.5212
  150DOPC  C31317982   5.798   7.040  12.412  0.4525  0.3266 -0.3922
  150DOPC  H13X17983   5.842   6.944  12.380  2.9814  1.3463 -0.2236
  150DOPC  H13Y17984   5.692   7.030  12.442  0.4823  2.4839  0.6531
  150DOPC  C31417985   5.802   7.140  12.302 -0.2002  0.1719 -0.4821
  150DOPC  H14X17986   5.767   7.235  12.347  0.9003 -0.2713  1.4383
  150DOPC  H14Y17987   5.910   7.166  12.289  0.1910  0.8971  3.1462
  150DOPC  C31517988   5.740   7.091  12.170  0.8252  0.2655  0.2498
  150DOPC  H15X17989   5.632   7.071  12.181  0.9813 -0.2789  0.8501
  150DOPC  H15Y17990   5.782   6.990  12.153  0.8241  0.1862  0.7177
  150DOPC  C31617991   5.767   7.175  12.048 -0.1583 -0.0267  0.0857
  150DOPC  H16X17992   5.719   7.273  12.067 -0.5516 -0.4813  1.5217
  150DOPC  H16Y17993   5.878   7.167  12.044 -0.2604 -1.2497 -1.4593
  150DOPC  C31717994   5.724   7.128  11.914  0.4713 -0.1020 -0.1465
  150DOPC  H17X17995   5.736   7.018  11.907 -4.4271 -0.9501  0.8346
  150DOPC  H17Y17996   5.617   7.153  11.893  0.3190  0.7310  1.5068
  150DOPC  C31817997   5.804   7.192  11.806  0.2196 -0.5061  0.2090
  150DOPC  H18X17998   5.759   7.158  11.711  1.4601  1.0470 -0.9795
  150DOPC  H18Y17999   5.801   7.303  11.808  0.6351 -0.4904 -0.0460
  150DOPC  H18Z18000   5.908   7.153  11.804  0.3076 -0.2823 -2.4732
  151DOPC     N18001   1.669   3.579  14.196  0.4238 -0.1607  0.6772
  151DOPC   C1218002   1.689   3.651  14.066  0.1820  0.0896  0.4088
  151DOPC  H12A18003   1.691   3.583  13.982  0.4378 -0.4090  0.8121
  151DOPC  H12B18004   1.783   3.703  14.078  0.7910 -0.7175 -0.6558
  151DOPC   C1318005   1.671   3.671  14.303 -0.8693 -0.1744 -0.0861
  151DOPC  H13A18006   1.586   3.737  14.294  0.0840  1.0261 -0.6418
  151DOPC  H13B18007   1.655   3.624  14.399  0.0367  0.4508  0.3898
  151DOPC  H13C18008   1.765   3.720  14.323 -1.2850  0.4367  0.4201
  151DOPC   C1418009   1.768   3.470  14.216  0.4964  0.4400  0.5794
  151DOPC  H14A18010   1.732   3.402  14.292 -2.3683  1.5764  0.3881
  151DOPC  H14B18011   1.772   3.406  14.129  0.9235 -0.2817  1.1167
  151DOPC  H14C18012   1.868   3.508  14.226  1.2178 -1.1204 -0.3441
  151DOPC   C1518013   1.530   3.515  14.191  0.3802 -1.0622  0.0451
  151DOPC  H15A18014   1.449   3.586  14.193 -0.2457 -1.7549 -0.2445
  151DOPC  H15B18015   1.516   3.442  14.269 -1.9976 -1.4887 -0.7092
  151DOPC  H15C18016   1.529   3.456  14.101 -0.1159 -1.0761  0.0605
  151DOPC   C1118017   1.591   3.762  14.021 -0.2937  0.5476  0.9239
  151DOPC  H11A18018   1.584   3.759  13.910  1.6428 -1.3886  0.7977
  151DOPC  H11B18019   1.491   3.734  14.060  0.0904  0.1298  1.6175
  151DOPC     P18020   1.550   4.001  14.135 -0.1046 -0.1093  0.7702
  151DOPC   O1318021   1.619   4.026  14.263 -0.5597 -0.6438  0.0765
  151DOPC   O1418022   1.405   3.956  14.139  0.1687 -0.5595 -0.1355
  151DOPC   O1218023   1.636   3.893  14.059  0.3759  0.5369 -0.0901
  151DOPC   O1118024   1.573   4.118  14.043 -1.1030 -0.0719  0.1810
  151DOPC    C118025   1.499   4.154  13.928  0.2750 -0.3003  0.5326
  151DOPC    HA18026   1.421   4.228  13.957  1.8950  1.0613  1.6422
  151DOPC    HB18027   1.451   4.065  13.881 -1.6981  0.6891  0.5807
  151DOPC    C218028   1.594   4.219  13.818 -0.1759  0.1944  0.1272
  151DOPC    HS18029   1.650   4.306  13.860  2.9112 -2.4493  1.9902
  151DOPC   O2118030   1.520   4.246  13.701  0.7188  0.0561 -0.1227
  151DOPC   C2118031   1.545   4.349  13.623  0.0251  0.8547  0.5955
  151DOPC   O2218032   1.625   4.435  13.656  0.3568 -0.0122 -0.2325
  151DOPC   C2218033   1.475   4.336  13.486 -0.0632 -0.3470 -0.0550
  151DOPC   H2R18034   1.440   4.233  13.466 -0.7074  0.1681 -1.8317
  151DOPC   H2S18035   1.548   4.363  13.405 -1.2214  0.8618 -0.7422
  151DOPC    C318036   1.713   4.121  13.785 -1.1222 -0.0688 -0.1647
  151DOPC    HX18037   1.671   4.024  13.749  0.8963 -2.0800  2.4313
  151DOPC    HY18038   1.769   4.104  13.879  1.4311 -0.1676 -1.6263
  151DOPC   O3118039   1.813   4.178  13.692  0.3384  0.1713  0.5911
  151DOPC   C3118040   1.881   4.084  13.629 -0.4396 -0.9784  0.1881
  151DOPC   O3218041   1.875   3.963  13.654 -0.5468 -0.9503  0.1523
  151DOPC   C3218042   1.978   4.149  13.528  0.1064  0.0230 -0.6286
  151DOPC   H2X18043   2.038   4.222  13.585 -0.0069  1.0886 -1.8308
  151DOPC   H2Y18044   2.053   4.067  13.525  2.3629  1.9932 -1.6355
  151DOPC   C2318045   1.338   4.406  13.468  1.1721 -0.7425 -0.5920
  151DOPC   H3R18046   1.333   4.513  13.496  0.8791 -1.3553  1.9301
  151DOPC   H3S18047   1.260   4.365  13.536  0.7983  1.5639  0.4765
  151DOPC   C2418048   1.282   4.392  13.332 -0.2287 -0.1096  0.4122
  151DOPC   H4R18049   1.311   4.291  13.295 -1.6490 -0.4404  0.1548
  151DOPC   H4S18050   1.330   4.447  13.248  0.5630 -2.0185 -0.4614
  151DOPC   C2518051   1.129   4.382  13.319  0.4050  0.9004 -0.1260
  151DOPC   H5R18052   1.095   4.462  13.387 -2.5375 -0.4675  0.1718
  151DOPC   H5S18053   1.088   4.293  13.372  1.4698 -1.2794 -2.6893
  151DOPC   C2618054   1.073   4.391  13.178 -0.1294 -0.3565  0.4262
  151DOPC   H6R18055   1.096   4.488  13.131 -0.0469  0.1179  1.4212
  151DOPC   H6S18056   0.962   4.388  13.189 -0.2536  0.2442 -0.6170
  151DOPC   C2718057   1.128   4.287  13.088  0.2999 -0.2003  0.2395
  151DOPC   H7R18058   1.092   4.193  13.135 -1.2707  0.4437  0.4049
  151DOPC   H7S18059   1.239   4.289  13.087  0.3416  0.7848  2.4846
  151DOPC   C2818060   1.071   4.296  12.946  0.0719  0.1507 -0.2946
  151DOPC   H8R18061   0.960   4.294  12.957  0.1356 -0.7347  0.4149
  151DOPC   H8S18062   1.101   4.203  12.893  0.2975  0.3995 -0.6056
  151DOPC   C2918063   1.113   4.421  12.871 -0.2494 -0.2961  0.3568
  151DOPC   H9R18064   1.069   4.505  12.926  0.7929  0.2915  0.3306
  151DOPC  C21018065   1.201   4.444  12.769 -1.0154 -0.0971 -0.5400
  151DOPC  H10R18066   1.219   4.544  12.727  0.7216 -0.8453 -1.7182
  151DOPC  C21118067   1.278   4.330  12.700 -0.4996 -0.6515  0.3315
  151DOPC  H11R18068   1.298   4.246  12.771 -0.6534 -1.2267 -0.2906
  151DOPC  H11S18069   1.380   4.361  12.669 -1.1752  3.5369  1.7584
  151DOPC  C21218070   1.198   4.263  12.583  0.6092  0.2258  0.4317
  151DOPC  H12R18071   1.174   4.345  12.512 -0.0727 -1.3237 -1.1973
  151DOPC  H12S18072   1.100   4.225  12.621  0.2586  1.5305  0.8891
  151DOPC  C21318073   1.277   4.152  12.511  0.3455  0.2343  0.2729
  151DOPC  H13R18074   1.305   4.079  12.590 -1.2972 -0.2937  0.4053
  151DOPC  H13S18075   1.374   4.190  12.472  0.3981 -2.9616 -3.4040
  151DOPC  C21418076   1.203   4.077  12.402 -0.4771 -0.3720  0.0533
  151DOPC  H14R18077   1.167   4.152  12.328 -0.3929 -0.9848 -0.6238
  151DOPC  H14S18078   1.113   4.039  12.455  0.8803 -0.5573  2.3274
  151DOPC  C21518079   1.291   3.969  12.327  0.4088 -0.6912  0.1414
  151DOPC  H15R18080   1.329   3.888  12.392 -0.1581 -1.2968 -0.2747
  151DOPC  H15S18081   1.380   4.027  12.294 -1.0344  2.1390  0.9024
  151DOPC  C21618082   1.229   3.922  12.188 -0.2909 -0.3501 -0.6792
  151DOPC  H16R18083   1.197   4.006  12.123  1.3403 -0.6568 -1.9263
  151DOPC  H16S18084   1.141   3.854  12.185 -0.1859 -0.4523 -2.6469
  151DOPC  C21718085   1.337   3.852  12.097  0.3797 -0.3824  0.1222
  151DOPC  H17R18086   1.392   3.776  12.155  0.0877  0.2192  1.2172
  151DOPC  H17S18087   1.416   3.927  12.074 -0.7692  0.8752  0.1295
  151DOPC  C21818088   1.285   3.814  11.957 -0.0477  0.3259 -0.4572
  151DOPC  H18R18089   1.185   3.768  11.970 -0.4824  0.9915 -1.3872
  151DOPC  H18S18090   1.356   3.746  11.905 -1.3941  0.3778 -2.4513
  151DOPC  H18T18091   1.277   3.894  11.880 -1.2517  0.0335 -0.6532
  151DOPC   C3318092   1.929   4.201  13.392  0.3639 -0.1272 -0.0121
  151DOPC   H3X18093   2.010   4.259  13.341 -1.2155  0.7786 -1.6292
  151DOPC   H3Y18094   1.850   4.273  13.424 -1.8941 -2.3030 -0.3832
  151DOPC   C3418095   1.869   4.094  13.300 -0.2404  0.2608  0.5786
  151DOPC   H4X18096   1.789   4.033  13.346  1.7337 -2.9768  0.0738
  151DOPC   H4Y18097   1.947   4.019  13.276 -0.3610  0.1522  0.5270
  151DOPC   C3518098   1.827   4.150  13.160  0.1286 -0.3762  0.5342
  151DOPC   H5X18099   1.883   4.240  13.126 -2.9027  0.4620 -2.9589
  151DOPC   H5Y18100   1.725   4.195  13.165  1.0916  1.7907  3.0331
  151DOPC   C3618101   1.814   4.036  13.056  0.9526  0.5471  0.0481
  151DOPC   H6X18102   1.916   4.014  13.020  1.4645  0.4864  1.4746
  151DOPC   H6Y18103   1.772   3.954  13.119  2.1995  0.6817  1.0737
  151DOPC   C3718104   1.718   4.070  12.937 -0.3759  0.0600  0.1093
  151DOPC   H7X18105   1.655   3.985  12.903  1.4165 -1.0105 -0.7077
  151DOPC   H7Y18106   1.641   4.144  12.969 -0.1325 -0.4275  1.9390
  151DOPC   C3818107   1.786   4.128  12.803  0.6003 -0.0678 -0.9070
  151DOPC   H8X18108   1.872   4.193  12.829  0.0083  0.5999 -0.6038
  151DOPC   H8Y18109   1.714   4.200  12.759 -0.0214  0.3373  0.7260
  151DOPC   C3918110   1.838   4.015  12.718 -0.4380  0.5334  0.0009
  151DOPC   H9X18111   1.920   3.954  12.760 -2.1530 -1.7515  0.2599
  151DOPC  C31018112   1.766   3.966  12.624  0.0423  0.0578  0.3401
  151DOPC  H10X18113   1.815   3.899  12.551 -1.0601  0.3824 -0.7211
  151DOPC  C31118114   1.647   4.034  12.562 -0.6527  0.0036  0.0515
  151DOPC  H11X18115   1.586   4.079  12.643  0.2534 -3.4498  2.8796
  151DOPC  H11Y18116   1.585   3.957  12.510  0.2584 -1.9535  1.7305
  151DOPC  C31218117   1.679   4.134  12.444 -0.1387 -0.0216 -0.3579
  151DOPC  H12X18118   1.731   4.223  12.487  0.7995 -1.5433  1.8246
  151DOPC  H12Y18119   1.580   4.159  12.400 -0.3034 -1.3860 -0.7835
  151DOPC  C31318120   1.779   4.093  12.339  0.3249  0.1627  0.4448
  151DOPC  H13X18121   1.805   4.184  12.281  1.2020  0.4770  1.3073
  151DOPC  H13Y18122   1.868   4.050  12.388  1.4087  2.1362  0.3131
  151DOPC  C31418123   1.729   3.989  12.238 -0.2103 -0.0542 -0.4290
  151DOPC  H14X18124   1.747   3.888  12.279 -0.7246 -0.2687 -0.7188
  151DOPC  H14Y18125   1.618   4.003  12.235 -0.2989 -0.7822 -0.7118
  151DOPC  C31518126   1.789   3.987  12.095 -0.0981 -0.0879  0.2048
  151DOPC  H15X18127   1.900   3.981  12.104 -0.0460 -0.9210 -0.6940
  151DOPC  H15Y18128   1.763   4.087  12.054  0.5453 -0.8680 -2.2876
  151DOPC  C31618129   1.734   3.877  11.993  0.2726  0.4882 -0.6017
  151DOPC  H16X18130   1.781   3.778  12.010  2.3902  1.1057 -2.4068
  151DOPC  H16Y18131   1.627   3.854  12.013  0.3068 -0.0888 -1.0345
  151DOPC  C31718132   1.765   3.908  11.843  0.7444  0.3471 -0.8714
  151DOPC  H17X18133   1.876   3.907  11.834  0.7483 -0.8684 -0.8960
  151DOPC  H17Y18134   1.721   3.828  11.780  0.5273  0.4577 -0.8591
  151DOPC  C31818135   1.708   4.041  11.787  0.2440 -0.2325 -0.1465
  151DOPC  H18X18136   1.757   4.129  11.835  1.4113 -0.0869 -1.5297
  151DOPC  H18Y18137   1.727   4.049  11.677  1.0498 -1.1042 -0.0869
  151DOPC  H18Z18138   1.600   4.051  11.811  0.1102  2.9371 -1.4273
  152DOPC     N18139   4.722   2.607  14.298 -0.0226  0.2381  0.3057
  152DOPC   C1218140   4.867   2.635  14.259 -0.2294  0.4049 -0.6152
  152DOPC  H12A18141   4.928   2.656  14.345  2.3258  0.0744 -2.2325
  152DOPC  H12B18142   4.863   2.729  14.206  1.1375  1.5097  1.1189
  152DOPC   C1318143   4.673   2.717  14.390 -0.6376 -0.0102 -0.1838
  152DOPC  H13A18144   4.677   2.816  14.347 -0.4519  1.1059  2.2320
  152DOPC  H13B18145   4.570   2.706  14.420 -0.3887  1.0346  1.1261
  152DOPC  H13C18146   4.723   2.721  14.486 -0.4110 -3.1868 -0.0491
  152DOPC   C1418147   4.710   2.477  14.355  0.5317  0.1686  0.4640
  152DOPC  H14A18148   4.755   2.406  14.287  0.2342  1.5239 -1.2168
  152DOPC  H14B18149   4.755   2.475  14.453  0.1185  1.7171  0.7088
  152DOPC  H14C18150   4.605   2.452  14.354 -0.1630  2.6532  1.9360
  152DOPC   C1518151   4.627   2.608  14.181  0.4181 -0.1569 -0.0224
  152DOPC  H15A18152   4.619   2.708  14.142 -0.7657  0.3380  1.3982
  152DOPC  H15B18153   4.539   2.583  14.237  2.2116 -0.7738  2.6971
  152DOPC  H15C18154   4.655   2.543  14.099 -2.4427 -1.0503 -0.3962
  152DOPC   C1118155   4.929   2.533  14.163 -0.1041  0.6545  0.2441
  152DOPC  H11A18156   4.858   2.514  14.079  1.4919  0.6632 -1.1590
  152DOPC  H11B18157   5.015   2.585  14.116 -0.6376 -1.2419 -3.1734
  152DOPC     P18158   5.121   2.374  14.252 -0.0711  0.5318 -0.2348
  152DOPC   O1318159   5.126   2.302  14.383 -0.0318  0.3443  0.1767
  152DOPC   O1418160   5.207   2.496  14.238 -0.2531 -0.4435 -0.2089
  152DOPC   O1218161   4.970   2.413  14.231 -0.0881 -0.2859  0.6854
  152DOPC   O1118162   5.147   2.277  14.122 -0.6161  0.3267  0.1654
  152DOPC    C118163   5.042   2.200  14.064  0.4639  0.2538 -0.1013
  152DOPC    HA18164   4.964   2.274  14.036  1.9324  1.6514 -0.6285
  152DOPC    HB18165   5.010   2.114  14.127 -0.5324 -1.5890 -2.9346
  152DOPC    C218166   5.082   2.138  13.931 -0.9996  0.2347  0.6928
  152DOPC    HS18167   5.002   2.070  13.894 -1.3033  2.4452 -3.1951
  152DOPC   O2118168   5.212   2.066  13.922  0.4090  0.1188  0.3197
  152DOPC   C2118169   5.206   1.936  13.958  0.7897 -0.1606 -0.4831
  152DOPC   O2218170   5.103   1.879  13.977  0.1146 -0.4176 -0.0460
  152DOPC   C2218171   5.340   1.874  13.957 -0.1426  1.0114  0.1590
  152DOPC   H2R18172   5.339   1.778  14.012 -0.3225  1.1682  0.4291
  152DOPC   H2S18173   5.414   1.942  14.005  1.1371  0.9503 -1.6300
  152DOPC    C318174   5.085   2.241  13.821  0.0467 -0.7877 -0.0765
  152DOPC    HX18175   5.166   2.306  13.860 -0.8286 -0.6226  1.5986
  152DOPC    HY18176   4.992   2.301  13.824  0.6621  0.1688  2.0258
  152DOPC   O3118177   5.127   2.191  13.695  0.3414 -0.4089 -0.5976
  152DOPC   C3118178   5.031   2.139  13.623  0.6215 -0.4395  0.2126
  152DOPC   O3218179   4.916   2.128  13.657  0.3317 -0.2572 -0.6261
  152DOPC   C3218180   5.097   2.109  13.491  0.6301 -0.2123 -1.2600
  152DOPC   H2X18181   5.130   2.207  13.450 -0.4267  0.2080 -1.1391
  152DOPC   H2Y18182   5.181   2.036  13.491  0.1425 -0.8035 -2.2106
  152DOPC   C2318183   5.365   1.860  13.808 -0.3106  0.2907  0.0366
  152DOPC   H3R18184   5.459   1.804  13.789 -0.3095  0.0639  0.6553
  152DOPC   H3S18185   5.371   1.962  13.767 -1.1295  1.1640  1.9301
  152DOPC   C2418186   5.258   1.774  13.734  0.2272 -0.5717 -0.6259
  152DOPC   H4R18187   5.159   1.824  13.739  0.8815  0.8108 -1.1045
  152DOPC   H4S18188   5.238   1.676  13.783 -0.6694  0.5027  1.2903
  152DOPC   C2518189   5.285   1.752  13.588  0.9473 -0.3592 -0.2022
  152DOPC   H5R18190   5.374   1.692  13.558  0.4304 -0.4811 -1.5630
  152DOPC   H5S18191   5.292   1.856  13.547  0.6288 -0.3942 -0.3477
  152DOPC   C2618192   5.162   1.682  13.518 -0.0159 -0.7210 -0.0259
  152DOPC   H6R18193   5.089   1.766  13.521  0.1485 -0.5924  1.3172
  152DOPC   H6S18194   5.123   1.604  13.587 -0.9879  0.6720  1.0675
  152DOPC   C2718195   5.197   1.636  13.377 -0.5445 -0.0365  0.5963
  152DOPC   H7R18196   5.139   1.542  13.373 -1.0526  0.2667  0.7463
  152DOPC   H7S18197   5.296   1.592  13.354 -2.1904 -1.9047 -4.1114
  152DOPC   C2818198   5.169   1.737  13.262  0.5891  0.1031 -0.2996
  152DOPC   H8R18199   5.189   1.842  13.293  0.4360  0.5939 -1.7867
  152DOPC   H8S18200   5.060   1.744  13.246  0.5060  0.3671  0.3547
  152DOPC   C2918201   5.234   1.713  13.132  0.4154  0.0576 -1.0811
  152DOPC   H9R18202   5.344   1.704  13.138  0.5622  2.1762  0.8523
  152DOPC  C21018203   5.173   1.697  13.011  0.6622  0.4097 -0.7928
  152DOPC  H10R18204   5.232   1.681  12.920  0.5376  0.6215 -0.9107
  152DOPC  C21118205   5.027   1.696  12.980  0.0944 -0.0550 -0.1270
  152DOPC  H11R18206   4.970   1.654  13.066  0.9325  0.3723  0.6585
  152DOPC  H11S18207   5.002   1.630  12.894  0.5880 -0.6668  0.1982
  152DOPC  C21218208   4.971   1.840  12.974 -0.1014  0.0450  0.1983
  152DOPC  H12R18209   5.017   1.890  13.062 -0.5702 -1.0815  1.1177
  152DOPC  H12S18210   4.861   1.854  12.987 -0.1392  1.1612 -1.0795
  152DOPC  C21318211   5.004   1.913  12.842 -0.0329  0.3888  0.0723
  152DOPC  H13R18212   4.979   1.845  12.758 -0.0809  0.0416  0.3644
  152DOPC  H13S18213   5.110   1.943  12.853  0.3157 -1.3638  2.1506
  152DOPC  C21418214   4.917   2.043  12.813 -0.1148  0.8237  0.1501
  152DOPC  H14R18215   4.954   2.098  12.723 -1.2258 -0.8661 -1.4110
  152DOPC  H14S18216   4.919   2.100  12.908 -0.6968 -0.3147  0.8631
  152DOPC  C21518217   4.765   2.012  12.790  0.1540 -0.0803  0.0851
  152DOPC  H15R18218   4.722   1.927  12.846 -3.1117  1.0968 -0.3905
  152DOPC  H15S18219   4.744   1.980  12.686  1.5667 -1.4432  0.1788
  152DOPC  C21618220   4.679   2.131  12.817 -0.2064  0.1338 -0.3386
  152DOPC  H16R18221   4.697   2.219  12.752 -0.8372  0.5273  0.0103
  152DOPC  H16S18222   4.692   2.171  12.920  0.8766 -0.9238 -0.0417
  152DOPC  C21718223   4.528   2.096  12.806 -0.0336  0.0204 -0.6142
  152DOPC  H17R18224   4.476   2.155  12.884  0.6669 -0.3341  0.1357
  152DOPC  H17S18225   4.511   1.989  12.829 -3.4770  0.7904  1.0285
  152DOPC  C21818226   4.469   2.121  12.672  0.1321  0.1795  0.5570
  152DOPC  H18R18227   4.499   2.222  12.636  0.1290 -0.9666 -3.0257
  152DOPC  H18S18228   4.359   2.109  12.683 -0.0243 -2.1885 -2.2635
  152DOPC  H18T18229   4.518   2.066  12.589 -0.7519  0.2231 -0.0189
  152DOPC   C3318230   4.996   2.059  13.380  0.2704  0.3265  0.6169
  152DOPC   H3X18231   4.937   1.970  13.411  0.8074  0.3333  1.7129
  152DOPC   H3Y18232   5.060   2.024  13.296 -0.6653 -0.1069  0.0663
  152DOPC   C3418233   4.913   2.173  13.322  0.7891  0.4442 -0.5658
  152DOPC   H4X18234   4.984   2.254  13.295  0.7963  0.2512 -1.1426
  152DOPC   H4Y18235   4.836   2.199  13.397 -0.8777  0.5511 -2.2352
  152DOPC   C3518236   4.851   2.143  13.181  0.3434  0.6021 -0.5371
  152DOPC   H5X18237   4.930   2.111  13.110  0.1237  0.1287 -0.5729
  152DOPC   H5Y18238   4.811   2.239  13.141 -0.5122  1.2056  1.6512
  152DOPC   C3618239   4.722   2.051  13.190 -0.4297  0.4754  0.0917
  152DOPC   H6X18240   4.696   2.039  13.082  0.7495  0.7996 -0.2483
  152DOPC   H6Y18241   4.743   1.948  13.225 -1.2587  0.1899 -0.2248
  152DOPC   C3718242   4.609   2.108  13.264 -0.1713 -0.2848  0.8254
  152DOPC   H7X18243   4.630   2.094  13.372  0.7848 -1.8124  0.4653
  152DOPC   H7Y18244   4.593   2.217  13.247 -1.0875 -0.2633  1.7187
  152DOPC   C3818245   4.485   2.025  13.226  0.6666 -0.2329  0.2628
  152DOPC   H8X18246   4.475   2.006  13.117 -1.3968  2.4635 -0.1146
  152DOPC   H8Y18247   4.406   2.097  13.256  0.4484  0.8310 -2.5790
  152DOPC   C3918248   4.477   1.887  13.292  0.1441  0.6714 -0.4100
  152DOPC   H9X18249   4.575   1.836  13.297 -0.0579  0.2697 -0.5340
  152DOPC  C31018250   4.370   1.834  13.349  0.1704  0.4611  0.1685
  152DOPC  H10X18251   4.366   1.754  13.424 -3.5534  2.2486  2.2134
  152DOPC  C31118252   4.232   1.893  13.350  0.1669 -0.7897 -0.5974
  152DOPC  H11X18253   4.234   2.003  13.335  1.5067 -0.3467  2.2097
  152DOPC  H11Y18254   4.193   1.877  13.453  1.4873 -0.4103 -0.0133
  152DOPC  C31218255   4.154   1.820  13.240  0.3375  0.7088  0.3724
  152DOPC  H12X18256   4.147   1.710  13.257  1.0610  0.4440 -0.8934
  152DOPC  H12Y18257   4.201   1.819  13.139  0.0201  1.4866  0.2135
  152DOPC  C31318258   4.011   1.878  13.224 -0.4544  0.1940 -0.4951
  152DOPC  H13X18259   4.022   1.985  13.198 -1.9744  0.3238 -0.6389
  152DOPC  H13Y18260   3.948   1.819  13.154 -2.8119  0.1879  1.5241
  152DOPC  C31418261   3.930   1.880  13.355  0.1791 -0.1496  0.2023
  152DOPC  H14X18262   3.921   1.782  13.407 -1.1973 -0.1217  0.0482
  152DOPC  H14Y18263   3.985   1.951  13.421 -0.4899  2.7436 -2.1301
  152DOPC  C31518264   3.789   1.945  13.341 -0.0612  0.2475  0.0047
  152DOPC  H15X18265   3.813   2.041  13.290  0.0177 -0.5155 -1.4397
  152DOPC  H15Y18266   3.755   1.974  13.443  0.9933  0.9669  0.1686
  152DOPC  C31618267   3.684   1.874  13.254 -0.3189  0.5926  0.0196
  152DOPC  H16X18268   3.741   1.833  13.169 -0.0954 -0.2435  0.5581
  152DOPC  H16Y18269   3.634   1.796  13.316 -0.2571 -0.6678 -1.4642
  152DOPC  C31718270   3.570   1.969  13.208 -0.3577  0.1271  0.4141
  152DOPC  H17X18271   3.519   2.010  13.298 -0.7184  0.9227 -0.1384
  152DOPC  H17Y18272   3.625   2.053  13.160  0.6946 -1.1252 -0.6424
  152DOPC  C31818273   3.472   1.902  13.112  0.3067  0.0363  0.4745
  152DOPC  H18X18274   3.408   1.978  13.062  0.8342 -0.4933 -1.0641
  152DOPC  H18Y18275   3.522   1.857  13.023  1.4232  0.4052  0.8905
  152DOPC  H18Z18276   3.402   1.833  13.163 -0.4561  0.3427 -0.1321
  153DOPC     N18277   6.075   6.807  14.109  0.2127  0.2091  0.0544
  153DOPC   C1218278   6.088   6.723  13.984 -1.4796  1.0653  0.0896
  153DOPC  H12A18279   6.154   6.771  13.913 -0.0928 -2.6540 -1.4316
  153DOPC  H12B18280   5.990   6.726  13.939 -1.5308 -0.3992  0.0685
  153DOPC   C1318281   6.212   6.810  14.174  0.1243 -0.4125 -0.2508
  153DOPC  H13A18282   6.219   6.876  14.259 -2.3242 -1.8642  1.1631
  153DOPC  H13B18283   6.243   6.710  14.199  0.5165 -0.2741 -0.1769
  153DOPC  H13C18284   6.285   6.839  14.099  0.3713  0.6500  0.3811
  153DOPC   C1418285   5.975   6.746  14.210 -0.3912 -0.3613  0.3882
  153DOPC  H14A18286   5.874   6.728  14.178 -0.1959  1.0808 -1.2069
  153DOPC  H14B18287   6.004   6.648  14.244  1.0648  0.2141  0.8758
  153DOPC  H14C18288   5.961   6.796  14.305 -0.5630 -1.6610  1.0743
  153DOPC   C1518289   6.020   6.942  14.074 -0.0632 -0.2871 -0.5065
  153DOPC  H15A18290   5.926   6.943  14.020 -0.8041 -0.0376  0.7523
  153DOPC  H15B18291   6.100   6.992  14.021  0.3832 -0.1431  0.2830
  153DOPC  H15C18292   6.002   6.990  14.169  3.4300 -1.3959  0.8853
  153DOPC   C1118293   6.140   6.577  14.003  0.6490  0.3622 -0.6379
  153DOPC  H11A18294   6.084   6.544  14.093  0.8085 -0.1949 -0.7401
  153DOPC  H11B18295   6.107   6.511  13.920  1.4990 -0.9653  0.0338
  153DOPC     P18296   6.381   6.599  13.900  0.1388 -0.6629 -0.2031
  153DOPC   O1318297   6.433   6.475  13.845  0.1459  0.1204 -0.1766
  153DOPC   O1418298   6.477   6.696  13.957  0.1879 -0.6735 -0.0704
  153DOPC   O1218299   6.278   6.566  14.015 -0.3210 -0.2827 -0.0224
  153DOPC   O1118300   6.295   6.673  13.792  0.1075  0.5466 -0.3194
  153DOPC    C118301   6.263   6.613  13.667  0.2033 -0.0104 -0.1050
  153DOPC    HA18302   6.154   6.621  13.648  0.3848  2.4106 -0.5575
  153DOPC    HB18303   6.300   6.509  13.659 -1.1220 -0.7548  2.4644
  153DOPC    C218304   6.331   6.697  13.555 -0.0073  0.2216  0.4834
  153DOPC    HS18305   6.295   6.658  13.458  1.5784 -1.7219  0.6241
  153DOPC   O2118306   6.481   6.699  13.564 -0.4058 -0.2302  0.1041
  153DOPC   C2118307   6.546   6.584  13.535  0.0607 -0.3245 -0.0178
  153DOPC   O2218308   6.486   6.479  13.508 -0.2716  0.0142  0.0463
  153DOPC   C2218309   6.693   6.604  13.548 -0.5886  0.3288 -0.3467
  153DOPC   H2R18310   6.705   6.640  13.652 -2.0386 -2.4350  0.8739
  153DOPC   H2S18311   6.732   6.684  13.480 -0.0466  0.0500 -0.3702
  153DOPC    C318312   6.275   6.840  13.572  0.1268 -0.2365 -1.3077
  153DOPC    HX18313   6.312   6.862  13.675  1.9144 -1.6032 -1.5928
  153DOPC    HY18314   6.165   6.826  13.574  0.2993 -1.8223 -0.3518
  153DOPC   O3118315   6.319   6.933  13.473  0.1951 -0.4445  0.1021
  153DOPC   C3118316   6.259   7.049  13.474 -0.3311 -1.2972  1.1800
  153DOPC   O3218317   6.167   7.088  13.543 -0.2281  0.7811  0.1825
  153DOPC   C3218318   6.325   7.142  13.370  0.2548  0.4771  0.6076
  153DOPC   H2X18319   6.281   7.244  13.375 -0.5313  0.1864 -0.1214
  153DOPC   H2Y18320   6.433   7.146  13.395  0.7667 -2.4463 -0.7018
  153DOPC   C2318321   6.772   6.473  13.532 -0.3083  0.0491 -0.2212
  153DOPC   H3R18322   6.728   6.394  13.597 -0.0749 -0.9648 -1.2537
  153DOPC   H3S18323   6.875   6.496  13.567 -0.4098  0.0912  0.0513
  153DOPC   C2418324   6.791   6.428  13.386 -0.5685 -0.2442  0.7335
  153DOPC   H4R18325   6.696   6.385  13.348  0.7316 -1.7648 -0.9718
  153DOPC   H4S18326   6.863   6.344  13.396 -1.0359 -0.9357 -1.2472
  153DOPC   C2518327   6.826   6.540  13.283  0.1812  0.0697 -0.2747
  153DOPC   H5R18328   6.752   6.622  13.276 -1.9051 -1.8868 -3.1037
  153DOPC   H5S18329   6.816   6.496  13.182 -0.2248  0.3551 -0.3600
  153DOPC   C2618330   6.965   6.603  13.302 -0.1449 -1.4141 -0.0941
  153DOPC   H6R18331   7.044   6.527  13.281  0.4987 -1.2514  1.6229
  153DOPC   H6S18332   6.974   6.635  13.408 -3.3428 -0.7032  0.0543
  153DOPC   C2718333   7.005   6.733  13.220  0.6997  0.3108 -0.1874
  153DOPC   H7R18334   7.112   6.761  13.234  0.1891  1.4130  1.8705
  153DOPC   H7S18335   6.944   6.815  13.264 -0.9129 -0.6729 -0.5459
  153DOPC   C2818336   6.974   6.728  13.066  0.0385 -0.2311  0.2882
  153DOPC   H8R18337   6.870   6.691  13.056 -0.4457  0.9704  0.7087
  153DOPC   H8S18338   7.035   6.649  13.018  0.3855  1.1192 -1.6433
  153DOPC   C2918339   6.989   6.861  12.989  0.3748  0.2829 -0.8180
  153DOPC   H9R18340   7.087   6.912  12.986  0.8019 -0.4996 -0.4645
  153DOPC  C21018341   6.882   6.917  12.931  0.1249 -0.2216 -0.5288
  153DOPC  H10R18342   6.896   7.006  12.868 -2.3212 -0.4638 -1.5191
  153DOPC  C21118343   6.734   6.877  12.921  1.5043 -0.0022  0.5617
  153DOPC  H11R18344   6.668   6.958  12.959 -0.6271 -2.4906  2.5970
  153DOPC  H11S18345   6.719   6.789  12.987 -0.4577  0.7203  1.1684
  153DOPC  C21218346   6.672   6.832  12.785 -0.2011 -0.6067  0.0271
  153DOPC  H12R18347   6.721   6.735  12.758  1.2294  0.4794 -1.4900
  153DOPC  H12S18348   6.702   6.904  12.706  0.6702  0.3244  1.1557
  153DOPC  C21318349   6.520   6.821  12.792 -0.5275 -0.2752  0.2788
  153DOPC  H13R18350   6.478   6.922  12.810 -2.3304 -0.7796 -0.8274
  153DOPC  H13S18351   6.466   6.762  12.869  0.8521 -1.3712  0.4529
  153DOPC  C21418352   6.454   6.784  12.658  0.2804  0.6816  0.4760
  153DOPC  H14R18353   6.472   6.675  12.643  4.3325  1.3018 -0.1591
  153DOPC  H14S18354   6.502   6.847  12.581 -2.2630  1.6457 -0.4164
  153DOPC  C21518355   6.301   6.825  12.648 -0.5465  0.0465  0.4224
  153DOPC  H15R18356   6.263   6.813  12.545 -2.4874 -1.2739  1.2277
  153DOPC  H15S18357   6.292   6.930  12.683 -0.0994 -0.0526  0.8516
  153DOPC  C21618358   6.211   6.738  12.728  0.1349 -0.1681  0.3468
  153DOPC  H16R18359   6.233   6.769  12.832  1.5666 -1.6644  0.5288
  153DOPC  H16S18360   6.232   6.629  12.726  0.5040 -0.1144 -2.0588
  153DOPC  C21718361   6.062   6.770  12.696 -0.1655 -0.1399  0.3205
  153DOPC  H17R18362   6.036   6.737  12.593 -0.7192 -2.5096  1.1664
  153DOPC  H17S18363   6.058   6.881  12.706 -0.0034 -0.2766  2.4251
  153DOPC  C21818364   5.958   6.704  12.787  0.3178 -0.7092 -0.1148
  153DOPC  H18R18365   5.851   6.716  12.760 -0.0688 -1.3902  1.0239
  153DOPC  H18S18366   5.970   6.753  12.886  0.5603  0.3867 -0.6744
  153DOPC  H18T18367   5.973   6.595  12.802 -2.5516 -1.1270  0.1930
  153DOPC   C3318368   6.301   7.095  13.222 -0.8593  0.2241 -0.3055
  153DOPC   H3X18369   6.353   6.997  13.211  0.0301  0.7327 -0.7921
  153DOPC   H3Y18370   6.362   7.165  13.161  0.4671  1.9268  2.7710
  153DOPC   C3418371   6.156   7.089  13.178 -0.2870 -0.5089 -0.4725
  153DOPC   H4X18372   6.103   7.183  13.201  0.7242  0.1837 -0.9203
  153DOPC   H4Y18373   6.104   7.014  13.241  0.8310 -1.1492 -0.2866
  153DOPC   C3518374   6.132   7.030  13.038  0.1396 -0.3701  0.2305
  153DOPC   H5X18375   6.024   7.010  13.030  0.4402 -3.8142  2.5277
  153DOPC   H5Y18376   6.183   6.933  13.017 -0.0721  0.0209 -2.4024
  153DOPC   C3618377   6.173   7.119  12.922 -0.3870  0.0115 -0.3544
  153DOPC   H6X18378   6.283   7.116  12.933 -0.4415  0.8197  0.5713
  153DOPC   H6Y18379   6.152   7.072  12.824  1.2649 -1.1402 -0.1940
  153DOPC   C3718380   6.126   7.269  12.929 -0.3091 -0.3383  0.2986
  153DOPC   H7X18381   6.021   7.274  12.893  0.8317  2.6267 -3.1916
  153DOPC   H7Y18382   6.138   7.309  13.031 -1.1894  0.0308  0.2637
  153DOPC   C3818383   6.215   7.347  12.826 -0.5650  0.0752 -0.2769
  153DOPC   H8X18384   6.226   7.293  12.730 -0.1214 -0.5337  0.1059
  153DOPC   H8Y18385   6.317   7.357  12.868  0.6479 -2.3819 -2.3226
  153DOPC   C3918386   6.150   7.474  12.809 -0.5283 -0.2142  0.0575
  153DOPC   H9X18387   6.124   7.521  12.905 -3.1620 -1.6355  0.1322
  153DOPC  C31018388   6.098   7.522  12.695  0.1311 -0.9032  0.0160
  153DOPC  H10X18389   6.053   7.622  12.695 -0.9368 -1.3714 -0.4112
  153DOPC  C31118390   6.111   7.456  12.559 -0.4453  0.3387 -0.3716
  153DOPC  H11X18391   6.042   7.369  12.553  0.3748 -0.4591  1.1844
  153DOPC  H11Y18392   6.218   7.429  12.548 -0.3315  0.7439 -0.3053
  153DOPC  C31218393   6.095   7.548  12.435  1.1021 -0.1856 -0.5811
  153DOPC  H12X18394   6.000   7.602  12.452  1.3442 -0.0258  0.3120
  153DOPC  H12Y18395   6.082   7.501  12.335 -0.0742 -0.0284 -0.5114
  153DOPC  C31318396   6.216   7.647  12.409  0.9698 -0.0206 -0.3225
  153DOPC  H13X18397   6.220   7.725  12.488  2.4680 -1.2017  0.8342
  153DOPC  H13Y18398   6.311   7.590  12.420 -0.7438 -3.0304 -0.1295
  153DOPC  C31418399   6.192   7.703  12.271 -0.3486  0.2069  0.4856
  153DOPC  H14X18400   6.198   7.621  12.197  1.3328  1.7290 -1.1919
  153DOPC  H14Y18401   6.095   7.757  12.265  1.4782  3.6819 -0.8312
  153DOPC  C31518402   6.290   7.827  12.245  1.1108 -0.0231  0.3826
  153DOPC  H15X18403   6.395   7.803  12.271  0.8431 -0.8817  0.6893
  153DOPC  H15Y18404   6.247   7.901  12.316  0.7286 -0.2762  0.4195
  153DOPC  C31618405   6.287   7.873  12.095 -0.1820  0.5081 -0.1300
  153DOPC  H16X18406   6.183   7.879  12.059 -0.5504  1.3292  0.9973
  153DOPC  H16Y18407   6.340   7.971  12.087  0.4986  0.3434  1.6754
  153DOPC  C31718408   6.363   7.783  11.987  0.2832 -0.0272  1.1337
  153DOPC  H17X18409   6.306   7.689  11.974  2.3604 -0.9457 -2.7289
  153DOPC  H17Y18410   6.357   7.836  11.890 -1.2150 -0.3795  1.0051
  153DOPC  C31818411   6.513   7.748  12.015 -0.4465  0.5436  0.4716
  153DOPC  H18X18412   6.539   7.656  11.958  0.9127  1.3268 -0.2062
  153DOPC  H18Y18413   6.581   7.830  11.985 -1.3654  1.0311 -0.3352
  153DOPC  H18Z18414   6.542   7.720  12.119  0.4585  0.9056  0.3220
  154DOPC     N18415   7.943   3.246  14.151 -1.2166 -1.0804 -0.3742
  154DOPC   C1218416   7.981   3.095  14.149 -0.5908 -0.1044  0.5775
  154DOPC  H12A18417   8.088   3.095  14.162 -0.6242  0.7438  0.9366
  154DOPC  H12B18418   7.964   3.064  14.046  0.8522  1.5236 -0.2022
  154DOPC   C1318419   7.798   3.263  14.129 -0.6995  0.1484 -0.1382
  154DOPC  H13A18420   7.761   3.211  14.042  0.6830 -2.2799  0.6363
  154DOPC  H13B18421   7.741   3.207  14.202  0.6821 -1.5666 -0.2952
  154DOPC  H13C18422   7.764   3.365  14.132  0.3254  0.4817  0.8055
  154DOPC   C1418423   8.022   3.328  14.057  0.2358  0.0593  0.0920
  154DOPC  H14A18424   8.126   3.322  14.086  0.4476  0.5152 -0.5401
  154DOPC  H14B18425   8.014   3.308  13.951 -0.7266  1.4444 -0.1237
  154DOPC  H14C18426   7.982   3.428  14.071  1.1558  0.1406  2.6549
  154DOPC   C1518427   7.973   3.307  14.288 -0.4149 -0.3116  0.0538
  154DOPC  H15A18428   8.080   3.319  14.299 -0.6574  2.6134  0.0588
  154DOPC  H15B18429   7.952   3.230  14.360  3.8398  0.0014  1.9186
  154DOPC  H15C18430   7.914   3.398  14.290 -0.4068 -0.2113 -1.8043
  154DOPC   C1118431   7.909   3.001  14.253 -0.8136 -0.4285  0.0576
  154DOPC  H11A18432   7.953   2.901  14.230  1.6472  0.5181  0.2750
  154DOPC  H11B18433   7.948   3.023  14.355 -2.1209 -0.5725  0.5987
  154DOPC     P18434   7.670   2.887  14.251  0.1794 -0.5059 -0.3013
  154DOPC   O1318435   7.594   2.879  14.376  0.7157  0.3794 -0.1364
  154DOPC   O1418436   7.728   2.759  14.214  0.0997  0.2808 -0.5701
  154DOPC   O1218437   7.767   3.010  14.251  0.3145 -0.0613  0.3171
  154DOPC   O1118438   7.557   2.926  14.146  0.6433 -0.4978 -0.5448
  154DOPC    C118439   7.585   3.003  14.033  0.5122 -0.1289  0.2957
  154DOPC    HA18440   7.691   3.037  14.031  1.4177 -2.4594  2.5498
  154DOPC    HB18441   7.530   3.099  14.041  0.7327 -0.0142  0.4700
  154DOPC    C218442   7.554   2.929  13.898 -0.1902 -0.4859 -0.2831
  154DOPC    HS18443   7.639   2.955  13.831 -0.5550 -2.0568 -1.4136
  154DOPC   O2118444   7.421   2.957  13.855 -0.5391  0.2125 -0.4746
  154DOPC   C2118445   7.407   3.064  13.781  0.2269 -0.0594 -0.1244
  154DOPC   O2218446   7.499   3.132  13.740  0.6621 -0.2213 -0.0077
  154DOPC   C2218447   7.259   3.103  13.769  0.0037 -0.2895 -0.3253
  154DOPC   H2R18448   7.236   3.159  13.863 -2.4929  0.9895 -1.5752
  154DOPC   H2S18449   7.207   3.005  13.766  1.6393 -1.1701 -2.0690
  154DOPC    C318450   7.573   2.780  13.919 -0.1505  0.1172  0.3451
  154DOPC    HX18451   7.507   2.733  13.995  0.7497 -2.3906 -0.3339
  154DOPC    HY18452   7.679   2.772  13.951  0.7914  1.1817 -2.1975
  154DOPC   O3118453   7.569   2.718  13.792  0.0516 -0.2031  0.2984
  154DOPC   C3118454   7.459   2.643  13.770 -0.3199 -0.9557 -0.6229
  154DOPC   O3218455   7.368   2.627  13.850  0.4904  0.7992  0.0479
  154DOPC   C3218456   7.459   2.589  13.631  0.0439  0.7782 -0.3549
  154DOPC   H2X18457   7.459   2.478  13.638 -0.1564  0.7844 -0.2581
  154DOPC   H2Y18458   7.368   2.625  13.579 -1.1284  1.6101  2.1126
  154DOPC   C2318459   7.234   3.171  13.633  0.7500 -0.5621 -0.2594
  154DOPC   H3R18460   7.267   3.093  13.561  0.4526  0.0609 -1.0947
  154DOPC   H3S18461   7.298   3.261  13.621  1.0115 -0.6693  0.3077
  154DOPC   C2418462   7.087   3.218  13.594  0.0151  0.5947 -0.0354
  154DOPC   H4R18463   7.037   3.288  13.665 -1.2293  0.2620 -0.5636
  154DOPC   H4S18464   7.031   3.123  13.605 -0.8076  1.1955  1.2732
  154DOPC   C2518465   7.071   3.265  13.450  0.2698 -0.2675 -0.3517
  154DOPC   H5R18466   6.961   3.266  13.435 -0.0005 -3.8455  0.6135
  154DOPC   H5S18467   7.120   3.202  13.373 -1.9730 -1.5852 -0.7634
  154DOPC   C2618468   7.126   3.409  13.427  0.2921 -0.1450  0.5703
  154DOPC   H6R18469   7.167   3.410  13.323 -0.4996  1.1505  0.2472
  154DOPC   H6S18470   7.211   3.430  13.495 -0.1321 -0.3195  1.1523
  154DOPC   C2718471   7.019   3.513  13.438 -0.9564  0.2966  1.1407
  154DOPC   H7R18472   6.958   3.508  13.531 -2.0912  1.3676  0.4840
  154DOPC   H7S18473   6.942   3.494  13.360 -0.3290 -1.2828  0.8596
  154DOPC   C2818474   7.070   3.656  13.415  0.4417  0.2054 -0.1623
  154DOPC   H8R18475   7.141   3.663  13.501 -0.4205  2.7770  0.4163
  154DOPC   H8S18476   6.988   3.729  13.428 -0.0289 -0.5012  1.0782
  154DOPC   C2918477   7.140   3.685  13.296  0.0795 -1.0620  0.2382
  154DOPC   H9R18478   7.241   3.641  13.286  0.0130 -1.8487  2.4458
  154DOPC  C21018479   7.095   3.755  13.190  0.4644  0.1591  0.0458
  154DOPC  H10R18480   7.170   3.751  13.109 -0.4324 -2.2616 -0.7759
  154DOPC  C21118481   6.972   3.838  13.162 -0.4285 -0.1840  0.6069
  154DOPC  H11R18482   6.918   3.841  13.259 -0.6708  1.0391  0.4532
  154DOPC  H11S18483   6.896   3.795  13.094 -1.5152  2.5848 -0.0686
  154DOPC  C21218484   6.994   3.991  13.112 -0.0542  0.7271 -0.2794
  154DOPC  H12R18485   7.033   3.972  13.010 -0.3990 -2.4082  0.0756
  154DOPC  H12S18486   7.061   4.051  13.178  1.5441 -1.6431  0.3775
  154DOPC  C21318487   6.861   4.061  13.100 -0.1032 -0.1493 -0.3219
  154DOPC  H13R18488   6.827   4.070  13.206 -0.3150  0.3293 -0.4264
  154DOPC  H13S18489   6.788   3.991  13.054  0.7485  0.7019 -3.2111
  154DOPC  C21418490   6.859   4.196  13.034  0.6561  0.0137 -0.9082
  154DOPC  H14R18491   6.887   4.194  12.927 -0.5835 -0.9319 -1.2358
  154DOPC  H14S18492   6.939   4.256  13.083 -0.4037 -0.6403  1.8035
  154DOPC  C21518493   6.733   4.270  13.074 -0.0601 -0.0382 -0.1391
  154DOPC  H15R18494   6.744   4.372  13.032 -1.7537  0.4627  0.5678
  154DOPC  H15S18495   6.724   4.277  13.185 -0.7083  2.9041 -0.2852
  154DOPC  C21618496   6.607   4.209  13.009  0.4356  0.4800  0.1612
  154DOPC  H16R18497   6.586   4.109  13.054  1.0617 -0.1464 -0.9029
  154DOPC  H16S18498   6.640   4.186  12.906  0.7709 -0.3250  0.4405
  154DOPC  C21718499   6.481   4.295  13.005  0.2990 -0.2025 -0.1715
  154DOPC  H17R18500   6.513   4.377  12.938 -0.6142 -1.4367 -2.1977
  154DOPC  H17S18501   6.451   4.317  13.110  1.3562 -2.0550  0.5678
  154DOPC  C21818502   6.374   4.216  12.927  1.0221  0.0169 -0.0820
  154DOPC  H18R18503   6.412   4.199  12.824  0.9287  0.5710 -0.2119
  154DOPC  H18S18504   6.280   4.276  12.925  0.3054 -1.0507  0.5415
  154DOPC  H18T18505   6.351   4.120  12.978 -2.2589  0.6988 -0.0439
  154DOPC   C3318506   7.574   2.621  13.532 -0.5160 -0.4071  0.5944
  154DOPC   H3X18507   7.573   2.554  13.443  0.6319  1.4454 -0.8984
  154DOPC   H3Y18508   7.675   2.609  13.578 -0.4610 -3.2532 -0.0658
  154DOPC   C3418509   7.571   2.762  13.493  0.0182 -0.5931 -0.0268
  154DOPC   H4X18510   7.673   2.787  13.456 -0.1986  1.6195  0.6969
  154DOPC   H4Y18511   7.561   2.833  13.579  0.2008 -2.3988  1.5396
  154DOPC   C3518512   7.463   2.806  13.391  0.4097  0.6721  0.0017
  154DOPC   H5X18513   7.373   2.829  13.451 -0.1140 -2.4234  0.5616
  154DOPC   H5Y18514   7.439   2.715  13.331 -1.6233  1.8812 -1.1211
  154DOPC   C3618515   7.489   2.928  13.297 -0.2540 -0.2532  0.3664
  154DOPC   H6X18516   7.525   3.005  13.368  2.5310 -2.5088  1.6025
  154DOPC   H6Y18517   7.577   2.887  13.243 -1.1916 -1.1952 -0.5100
  154DOPC   C3718518   7.372   2.974  13.206  0.6901 -0.1890 -0.2076
  154DOPC   H7X18519   7.335   2.895  13.137  1.5320 -0.1046 -0.7737
  154DOPC   H7Y18520   7.291   3.020  13.267  0.9407  0.1741 -0.1460
  154DOPC   C3818521   7.409   3.092  13.113  0.1288  0.4485 -0.1226
  154DOPC   H8X18522   7.459   3.179  13.160  0.6992  0.7176 -1.2026
  154DOPC   H8Y18523   7.315   3.143  13.084 -0.0822  1.2251  1.7950
  154DOPC   C3918524   7.468   3.046  12.979  1.1274  0.8697 -1.6758
  154DOPC   H9X18525   7.564   2.999  13.003 -0.2709 -1.1049  0.4331
  154DOPC  C31018526   7.405   3.013  12.864 -0.0340 -0.1157  0.7653
  154DOPC  H10X18527   7.471   2.987  12.780 -2.3047 -0.1562 -1.1169
  154DOPC  C31118528   7.264   3.038  12.818  0.0505 -0.0161  0.2585
  154DOPC  H11X18529   7.245   3.147  12.821  0.0302  0.0491 -1.3251
  154DOPC  H11Y18530   7.197   2.988  12.892  0.8799  0.5076  1.3922
  154DOPC  C31218531   7.240   2.974  12.675 -0.2483 -0.3187  0.6331
  154DOPC  H12X18532   7.133   2.950  12.657 -0.3952 -0.0779  1.1808
  154DOPC  H12Y18533   7.297   2.879  12.670 -0.4265 -0.3936 -0.2043
  154DOPC  C31318534   7.282   3.065  12.563 -0.4445 -0.0556 -0.5579
  154DOPC  H13X18535   7.224   3.158  12.577  0.8492  0.5600  1.1835
  154DOPC  H13Y18536   7.390   3.081  12.584 -0.1367 -0.6010 -1.6416
  154DOPC  C31418537   7.256   2.992  12.425  0.7546  0.1575  0.0420
  154DOPC  H14X18538   7.149   2.962  12.416  0.8001  0.1724 -0.6296
  154DOPC  H14Y18539   7.276   3.062  12.341 -1.2777  1.0178  0.2237
  154DOPC  C31518540   7.356   2.872  12.406  0.4285  0.0756  0.1146
  154DOPC  H15X18541   7.311   2.786  12.460  2.9098 -1.1772  0.3536
  154DOPC  H15Y18542   7.460   2.889  12.439 -0.4147  0.5853  2.7501
  154DOPC  C31618543   7.373   2.832  12.258 -0.4734 -0.2361 -0.0238
  154DOPC  H16X18544   7.285   2.778  12.216 -0.1719 -1.5598  0.9519
  154DOPC  H16Y18545   7.396   2.925  12.202  0.3703 -0.0428  0.6234
  154DOPC  C31718546   7.491   2.736  12.228 -0.3899 -0.1327 -0.1341
  154DOPC  H17X18547   7.541   2.748  12.130  3.8573 -0.5752  1.7912
  154DOPC  H17Y18548   7.570   2.752  12.304 -0.2583  0.1313 -0.3296
  154DOPC  C31818549   7.454   2.584  12.250 -0.6093 -0.6675  0.4563
  154DOPC  H18X18550   7.354   2.571  12.205 -0.1195  0.1774 -0.9226
  154DOPC  H18Y18551   7.530   2.524  12.195  0.9649  0.5203  1.2420
  154DOPC  H18Z18552   7.453   2.552  12.357 -0.3040 -0.3420  0.5590
  155DOPC     N18553   2.130   1.943  13.980 -0.5177 -0.2211 -0.1568
  155DOPC   C1218554   2.047   2.040  13.894 -0.4888 -0.0411  0.0053
  155DOPC  H12A18555   2.121   2.091  13.834  0.4526 -1.5673 -0.1742
  155DOPC  H12B18556   2.004   2.119  13.955 -1.4378 -0.8439  0.3898
  155DOPC   C1318557   2.211   1.853  13.891 -0.2104  0.3573  0.3470
  155DOPC  H13A18558   2.265   1.779  13.947  0.3485  1.1749  0.8969
  155DOPC  H13B18559   2.149   1.802  13.819 -0.3880  0.2071  0.6041
  155DOPC  H13C18560   2.281   1.915  13.837 -0.0793 -0.0541  0.0476
  155DOPC   C1418561   2.054   1.847  14.059 -0.1379 -0.5236 -0.3343
  155DOPC  H14A18562   1.996   1.778  14.000 -1.3715  0.6101 -0.4983
  155DOPC  H14B18563   2.105   1.789  14.135 -2.9251  0.3564  2.4537
  155DOPC  H14C18564   1.987   1.902  14.124  1.9571 -0.9451  2.3651
  155DOPC   C1518565   2.218   2.020  14.074  0.1600 -0.1011 -0.0218
  155DOPC  H15A18566   2.273   2.091  14.014  1.6898  0.6371  2.1389
  155DOPC  H15B18567   2.286   1.963  14.135 -0.0229  0.4313  0.6894
  155DOPC  H15C18568   2.156   2.080  14.139 -3.0502 -1.1104 -1.9333
  155DOPC   C1118569   1.929   1.983  13.810 -0.2088  0.1718  0.1986
  155DOPC  H11A18570   1.905   2.061  13.734 -0.3886  1.7449  1.7961
  155DOPC  H11B18571   1.947   1.887  13.758 -4.5175  0.3469 -2.0895
  155DOPC     P18572   1.743   2.080  13.964 -0.7596  0.5445 -0.4905
  155DOPC   O1318573   1.833   2.131  14.067 -0.1205 -0.0807  0.0137
  155DOPC   O1418574   1.607   2.037  14.011 -0.7120  0.0673  0.2908
  155DOPC   O1218575   1.813   1.959  13.892 -0.6239 -0.3793 -0.1063
  155DOPC   O1118576   1.723   2.183  13.846  0.4086  0.2119  0.2490
  155DOPC    C118577   1.601   2.186  13.771 -0.4802  0.0300 -0.4600
  155DOPC    HA18578   1.599   2.274  13.703 -0.7420  0.6732  0.3642
  155DOPC    HB18579   1.514   2.204  13.837 -0.4587  2.4027 -0.9780
  155DOPC    C218580   1.583   2.064  13.675  0.1741 -0.3102 -0.2112
  155DOPC    HS18581   1.602   1.975  13.738  2.2671 -0.4453 -0.9585
  155DOPC   O2118582   1.677   2.069  13.568  0.4924  0.5422 -0.2836
  155DOPC   C2118583   1.693   1.959  13.494  0.2634  0.0801 -0.6913
  155DOPC   O2218584   1.640   1.857  13.526  0.1521 -0.2606 -0.4198
  155DOPC   C2218585   1.808   1.989  13.400 -0.2109  0.0578  0.0719
  155DOPC   H2R18586   1.884   2.064  13.433 -0.3764  0.4353 -0.3848
  155DOPC   H2S18587   1.759   2.036  13.312 -0.3996 -1.8704 -0.8992
  155DOPC    C318588   1.442   2.073  13.617 -0.1284  0.3554  0.4301
  155DOPC    HX18589   1.365   2.094  13.694  0.6730 -0.5205  1.5108
  155DOPC    HY18590   1.421   1.971  13.577  1.7852  0.2742 -0.4960
  155DOPC   O3118591   1.435   2.159  13.503 -0.3465 -0.2405 -0.1745
  155DOPC   C3118592   1.365   2.279  13.510 -0.0126  0.9752 -0.1929
  155DOPC   O3218593   1.307   2.322  13.610  0.0815  0.7630  0.1388
  155DOPC   C3218594   1.395   2.361  13.391 -0.5788 -0.6377 -0.0190
  155DOPC   H2X18595   1.344   2.323  13.299 -0.6216  2.2727 -1.3013
  155DOPC   H2Y18596   1.362   2.464  13.414 -1.1723 -0.9418  0.5077
  155DOPC   C2318597   1.881   1.860  13.356 -0.0598  0.0956  0.7280
  155DOPC   H3R18598   1.929   1.806  13.440 -0.3197 -1.6934 -0.2221
  155DOPC   H3S18599   1.963   1.903  13.293 -1.8145 -0.3075 -2.0105
  155DOPC   C2418600   1.790   1.765  13.270  0.4383 -0.1925 -0.2091
  155DOPC   H4R18601   1.744   1.834  13.197  2.8256  1.0946 -0.5888
  155DOPC   H4S18602   1.711   1.718  13.332 -0.1003  1.0880  0.0944
  155DOPC   C2518603   1.877   1.658  13.208  0.4392  0.3200 -0.7588
  155DOPC   H5R18604   1.833   1.570  13.156  1.1652  0.7867 -2.2208
  155DOPC   H5S18605   1.947   1.616  13.284  0.9174  0.2625 -1.2259
  155DOPC   C2618606   1.955   1.704  13.083 -0.6931  0.0810 -0.3654
  155DOPC   H6R18607   2.032   1.631  13.053  0.2717  1.6678 -1.9205
  155DOPC   H6S18608   2.020   1.789  13.112 -0.8522 -0.2306  0.9949
  155DOPC   C2718609   1.867   1.724  12.958 -0.9655 -0.3463  0.0377
  155DOPC   H7R18610   1.782   1.793  12.975  0.5453  1.5071  0.3919
  155DOPC   H7S18611   1.823   1.624  12.939 -0.4291 -0.4686 -0.5900
  155DOPC   C2818612   1.955   1.777  12.844  0.4711 -0.1058 -0.4636
  155DOPC   H8R18613   1.901   1.780  12.747  1.5844 -1.3659 -1.1579
  155DOPC   H8S18614   2.032   1.698  12.833 -0.1348 -0.5227 -1.9703
  155DOPC   C2918615   2.017   1.917  12.870  0.5121 -0.1866  0.1353
  155DOPC   H9R18616   1.990   1.968  12.963  2.6804 -0.3644  0.9261
  155DOPC  C21018617   2.110   1.980  12.791 -0.2419  0.4206  0.0217
  155DOPC  H10R18618   2.160   2.072  12.827 -1.4211  1.3595 -0.6470
  155DOPC  C21118619   2.177   1.930  12.666  0.0185 -0.2199  0.1222
  155DOPC  H11R18620   2.172   1.819  12.666  1.4866 -0.3025  0.3490
  155DOPC  H11S18621   2.284   1.959  12.670  0.4603 -0.9796 -3.1257
  155DOPC  C21218622   2.119   2.004  12.542 -0.5411  0.0932  0.5370
  155DOPC  H12R18623   2.107   2.112  12.569 -0.2021  0.5182 -0.9151
  155DOPC  H12S18624   2.019   1.960  12.521 -0.4506  0.8548 -1.7996
  155DOPC  C21318625   2.211   2.000  12.415  0.3741  0.3066 -0.1607
  155DOPC  H13R18626   2.264   1.902  12.421  1.4907  0.9006 -0.0325
  155DOPC  H13S18627   2.296   2.068  12.437 -0.2436  0.7250  1.0427
  155DOPC  C21418628   2.138   2.042  12.289 -0.1042  0.0593  0.5136
  155DOPC  H14R18629   2.058   2.112  12.321 -0.2740 -0.2957  0.8721
  155DOPC  H14S18630   2.086   1.954  12.247  1.2018 -0.0298 -1.0296
  155DOPC  C21518631   2.212   2.108  12.177  0.3969  0.2359 -0.8318
  155DOPC  H15R18632   2.148   2.083  12.090 -1.5940  0.2122  0.5563
  155DOPC  H15S18633   2.310   2.059  12.163 -0.5614 -1.8819 -0.6039
  155DOPC  C21618634   2.213   2.263  12.181  0.0671  0.2653  0.7999
  155DOPC  H16R18635   2.300   2.299  12.121  0.6514  1.2325  2.1584
  155DOPC  H16S18636   2.223   2.294  12.287  1.2603 -0.6576  0.9795
  155DOPC  C21718637   2.087   2.329  12.126 -0.3715  0.2634 -0.0905
  155DOPC  H17R18638   2.020   2.253  12.080 -1.2134  0.3755  0.9127
  155DOPC  H17S18639   2.115   2.398  12.043 -1.1746  0.6440 -0.0539
  155DOPC  C21818640   2.006   2.415  12.227  0.0142 -0.2921 -0.8488
  155DOPC  H18R18641   1.911   2.449  12.181 -0.5726 -1.0462 -0.2326
  155DOPC  H18S18642   2.084   2.488  12.260 -0.9330 -0.0695  1.0421
  155DOPC  H18T18643   1.974   2.358  12.317 -1.2429  2.8373  0.8796
  155DOPC   C3318644   1.553   2.370  13.361  0.0075  0.4142 -0.0938
  155DOPC   H3X18645   1.588   2.265  13.364  0.2503  0.5088  0.3990
  155DOPC   H3Y18646   1.600   2.436  13.438  0.2364  0.6792 -0.4600
  155DOPC   C3418647   1.582   2.432  13.221  0.4814 -0.2134 -0.1412
  155DOPC   H4X18648   1.528   2.365  13.150  1.0005  0.0718 -0.8207
  155DOPC   H4Y18649   1.692   2.427  13.210  0.5038 -1.0495  0.3619
  155DOPC   C3518650   1.535   2.577  13.206 -0.0323  0.1300  0.2754
  155DOPC   H5X18651   1.586   2.636  13.285 -3.8576  0.6205  2.6833
  155DOPC   H5Y18652   1.431   2.597  13.240 -0.5160 -1.5085 -0.1312
  155DOPC   C3618653   1.570   2.633  13.071  0.0635  0.3470  1.0674
  155DOPC   H6X18654   1.681   2.643  13.076 -0.0177  1.1762  1.3690
  155DOPC   H6Y18655   1.532   2.565  12.992  0.4179  2.0181 -0.6037
  155DOPC   C3718656   1.500   2.771  13.049 -0.7480  0.4701 -0.8674
  155DOPC   H7X18657   1.394   2.748  13.025 -0.3987 -0.0240 -2.0265
  155DOPC   H7Y18658   1.502   2.821  13.148  0.6680  0.0420 -0.6456
  155DOPC   C3818659   1.551   2.858  12.935  0.3154  0.2525  0.0529
  155DOPC   H8X18660   1.526   2.817  12.835 -1.1592  0.7874  0.1816
  155DOPC   H8Y18661   1.659   2.853  12.959  0.5562 -2.9384 -1.2114
  155DOPC   C3918662   1.497   2.997  12.959 -0.2459  0.4832 -0.1176
  155DOPC   H9X18663   1.390   3.008  12.939  0.0070 -1.1285 -2.7551
  155DOPC  C31018664   1.570   3.109  12.988 -0.4507  0.4407 -0.8052
  155DOPC  H10X18665   1.521   3.203  13.017  1.5397  0.8060  1.7262
  155DOPC  C31118666   1.722   3.117  12.997  0.3040  0.3322 -0.4866
  155DOPC  H11X18667   1.758   3.219  12.971  1.0849  0.0131 -0.6646
  155DOPC  H11Y18668   1.750   3.051  12.912 -0.3360  0.4726 -0.8118
  155DOPC  C31218669   1.780   3.071  13.133  0.4495  0.2906  0.0294
  155DOPC  H12X18670   1.737   2.970  13.153 -0.4095  0.4734 -0.8239
  155DOPC  H12Y18671   1.745   3.132  13.219 -0.1862  0.7381 -0.5383
  155DOPC  C31318672   1.930   3.068  13.136 -0.0750  0.7685  0.8337
  155DOPC  H13X18673   1.974   3.165  13.104  0.8553  0.1554  0.2119
  155DOPC  H13Y18674   1.961   3.036  13.238  2.4257  0.1239 -0.0606
  155DOPC  C31418675   1.987   2.957  13.040 -0.5151 -0.3125 -0.1779
  155DOPC  H14X18676   1.945   2.859  13.072 -1.0788  0.4914  1.6681
  155DOPC  H14Y18677   1.948   2.967  12.936 -0.5668  0.9085 -0.0541
  155DOPC  C31518678   2.141   2.953  13.037  0.9918 -0.2703  0.4593
  155DOPC  H15X18679   2.188   2.981  13.134  2.2452 -1.4027  0.2061
  155DOPC  H15Y18680   2.174   3.033  12.967  5.3242 -1.5309  0.7271
  155DOPC  C31618681   2.200   2.809  13.014 -0.2526  0.1584 -0.2114
  155DOPC  H16X18682   2.117   2.736  13.026  2.0788 -2.2182  3.0919
  155DOPC  H16Y18683   2.228   2.813  12.906  1.1025  2.0581  0.1499
  155DOPC  C31718684   2.314   2.770  13.106 -0.8969  0.1353 -0.1259
  155DOPC  H17X18685   2.373   2.860  13.134 -2.8644  0.5290  3.3253
  155DOPC  H17Y18686   2.276   2.739  13.205  0.8787 -0.7592  0.3138
  155DOPC  C31818687   2.418   2.674  13.042  0.2203  0.4434 -0.2432
  155DOPC  H18X18688   2.446   2.705  12.940  0.8956  1.1300  0.1433
  155DOPC  H18Y18689   2.506   2.665  13.110  0.1194 -0.0001 -0.1630
  155DOPC  H18Z18690   2.366   2.576  13.053 -0.0162  0.7781  2.2648
  156DOPC     N18691   5.266   5.392  14.379 -0.2595 -0.0370 -0.5127
  156DOPC   C1218692   5.312   5.537  14.403 -0.0305  0.6107  0.7231
  156DOPC  H12A18693   5.408   5.526  14.451  0.1093 -0.3319  0.2388
  156DOPC  H12B18694   5.248   5.589  14.474 -1.3925  1.5201 -1.0911
  156DOPC   C1318695   5.126   5.389  14.343 -0.1681  0.4222  0.3184
  156DOPC  H13A18696   5.124   5.437  14.247 -0.0122 -0.3855 -0.0964
  156DOPC  H13B18697   5.079   5.292  14.350 -2.9102  1.6911  0.4966
  156DOPC  H13C18698   5.069   5.453  14.409  2.4141  1.9813  1.2034
  156DOPC   C1418699   5.291   5.321  14.509  0.0646  0.1902  0.0979
  156DOPC  H14A18700   5.396   5.333  14.530  0.0221  1.5504 -0.3972
  156DOPC  H14B18701   5.226   5.359  14.587  1.5742  0.8957  1.0552
  156DOPC  H14C18702   5.283   5.213  14.499  2.5031 -0.0680  0.4135
  156DOPC   C1518703   5.353   5.323  14.285  0.0846 -0.5444 -0.0284
  156DOPC  H15A18704   5.330   5.217  14.279 -1.5692 -0.1954 -0.3579
  156DOPC  H15B18705   5.456   5.334  14.318 -0.1016 -0.3467  0.5007
  156DOPC  H15C18706   5.355   5.376  14.191 -2.6071  0.9999  0.6899
  156DOPC   C1118707   5.329   5.624  14.271 -0.3232 -0.1984  0.4894
  156DOPC  H11A18708   5.398   5.711  14.280 -1.4366  0.7086  0.4747
  156DOPC  H11B18709   5.367   5.554  14.193 -0.3322  0.3705 -0.0311
  156DOPC     P18710   5.155   5.691  14.083  0.0517 -0.0427  0.2389
  156DOPC   O1318711   5.082   5.818  14.065 -0.0567 -0.3579  0.3250
  156DOPC   O1418712   5.079   5.571  14.052 -0.0184  0.1140 -1.1469
  156DOPC   O1218713   5.200   5.673  14.235  0.4648 -0.4111  0.5446
  156DOPC   O1118714   5.287   5.683  13.987  0.8318 -0.1803 -0.2717
  156DOPC    C118715   5.359   5.801  13.942 -0.4785  0.0097 -0.0891
  156DOPC    HA18716   5.461   5.759  13.935 -0.9680 -1.6333  1.7537
  156DOPC    HB18717   5.346   5.889  14.009 -1.4002 -0.6097  0.5845
  156DOPC    C218718   5.308   5.845  13.805  0.6908 -0.4196  0.7747
  156DOPC    HS18719   5.206   5.889  13.804  0.4790 -0.5584 -3.4763
  156DOPC   O2118720   5.318   5.719  13.723  0.2487  0.3286  0.4461
  156DOPC   C2118721   5.217   5.704  13.644  0.3677 -0.3938 -0.8438
  156DOPC   O2218722   5.120   5.779  13.634  0.7306  0.1396  0.4657
  156DOPC   C2218723   5.246   5.575  13.569 -0.6027  0.6810 -0.5209
  156DOPC   H2R18724   5.150   5.531  13.535 -0.4203  0.3759 -0.6489
  156DOPC   H2S18725   5.303   5.501  13.630 -0.1770 -0.6206 -2.3971
  156DOPC    C318726   5.402   5.948  13.738 -0.0842  0.0340 -0.2790
  156DOPC    HX18727   5.488   5.891  13.699  1.5303  1.0248  1.6702
  156DOPC    HY18728   5.436   6.026  13.811 -1.1865 -1.8273  2.4043
  156DOPC   O3118729   5.338   5.989  13.619  0.3231 -0.3805 -0.2487
  156DOPC   C3118730   5.252   6.080  13.624  0.0809 -0.1263  0.2581
  156DOPC   O3218731   5.224   6.156  13.717  0.1477 -1.2559  0.0509
  156DOPC   C3218732   5.196   6.085  13.487 -0.1500 -0.1726 -0.1599
  156DOPC   H2X18733   5.192   5.980  13.453  0.9496 -1.4251  3.2254
  156DOPC   H2Y18734   5.087   6.103  13.501 -0.1110 -0.7642  0.9986
  156DOPC   C2318735   5.339   5.601  13.452 -0.0965 -0.2233  0.4707
  156DOPC   H3R18736   5.350   5.513  13.385 -1.4721 -0.5441  0.6327
  156DOPC   H3S18737   5.440   5.626  13.492 -0.0716 -1.8139  1.4870
  156DOPC   C2418738   5.311   5.729  13.358 -0.1176 -0.1241  0.8504
  156DOPC   H4R18739   5.383   5.727  13.274 -0.1146 -3.2251  0.8055
  156DOPC   H4S18740   5.331   5.818  13.422  0.3425  0.5601 -0.2241
  156DOPC   C2518741   5.167   5.717  13.307 -0.4225  0.5490  0.4983
  156DOPC   H5R18742   5.095   5.726  13.391 -1.0739  1.8612 -0.1573
  156DOPC   H5S18743   5.162   5.623  13.248 -0.7125  1.0514 -0.2885
  156DOPC   C2618744   5.117   5.830  13.213 -0.6286 -0.2810  0.4087
  156DOPC   H6R18745   5.183   5.822  13.124 -0.0063 -0.4600  0.8791
  156DOPC   H6S18746   5.130   5.931  13.260  0.4416 -0.8276  1.3366
  156DOPC   C2718747   4.971   5.809  13.167  0.2129 -0.0476  1.0345
  156DOPC   H7R18748   4.895   5.815  13.248  0.7464 -0.9947  1.6310
  156DOPC   H7S18749   4.967   5.709  13.118 -0.7582  0.9818 -1.1210
  156DOPC   C2818750   4.918   5.903  13.056 -0.3690  0.1111 -0.1139
  156DOPC   H8R18751   4.915   6.008  13.092 -1.0116  0.1994 -0.4222
  156DOPC   H8S18752   4.813   5.884  13.024 -1.0255 -1.1315  2.5478
  156DOPC   C2918753   4.994   5.888  12.925 -0.0422  0.4093  0.1829
  156DOPC   H9R18754   4.960   5.796  12.877  0.5507 -0.0165  0.5588
  156DOPC  C21018755   5.080   5.973  12.862 -0.1191  0.4142  0.2928
  156DOPC  H10R18756   5.124   5.932  12.771 -0.4900 -0.3506  0.4460
  156DOPC  C21118757   5.136   6.107  12.911  0.4552  0.4275  0.1297
  156DOPC  H11R18758   5.246   6.098  12.919  0.8529  1.5741 -3.0053
  156DOPC  H11S18759   5.090   6.127  13.011 -0.7975  0.5472 -0.4523
  156DOPC  C21218760   5.096   6.222  12.821  0.1737 -0.2614  0.5186
  156DOPC  H12R18761   4.986   6.233  12.808  0.3462  2.3367  0.7904
  156DOPC  H12S18762   5.143   6.205  12.722  1.0191  1.0747  0.6624
  156DOPC  C21318763   5.141   6.358  12.882 -0.4355 -0.8773 -0.5303
  156DOPC  H13R18764   5.252   6.363  12.886 -0.5087  0.7390  2.8101
  156DOPC  H13S18765   5.100   6.375  12.984 -0.1607  2.6778 -0.8664
  156DOPC  C21418766   5.102   6.482  12.800  0.3083  0.2156  0.1056
  156DOPC  H14R18767   5.002   6.460  12.757  1.7610 -0.6943 -3.1702
  156DOPC  H14S18768   5.161   6.502  12.707 -2.8965  1.8282 -1.7289
  156DOPC  C21518769   5.091   6.615  12.868  0.1742 -0.1650 -0.1724
  156DOPC  H15R18770   5.018   6.612  12.951 -1.2133 -1.1213 -1.3729
  156DOPC  H15S18771   5.057   6.694  12.798  1.4429  3.2858  2.8181
  156DOPC  C21618772   5.228   6.665  12.908 -0.3145  0.0394 -0.1720
  156DOPC  H16R18773   5.302   6.673  12.825 -0.0372 -1.9299 -0.1414
  156DOPC  H16S18774   5.273   6.595  12.980 -1.6449 -1.5066 -0.7955
  156DOPC  C21718775   5.230   6.811  12.966 -0.0231 -0.7961 -0.3156
  156DOPC  H17R18776   5.168   6.824  13.057 -0.2144 -1.5371 -0.3328
  156DOPC  H17S18777   5.184   6.885  12.897  1.6598 -0.3081 -0.9560
  156DOPC  C21818778   5.371   6.862  12.997  0.0351 -0.3132 -0.3033
  156DOPC  H18R18779   5.367   6.969  13.027 -2.9475 -0.8404  1.6714
  156DOPC  H18S18780   5.432   6.856  12.904  0.4562  0.9598 -0.1256
  156DOPC  H18T18781   5.426   6.803  13.073  0.2589  1.0939  0.6690
  156DOPC   C3318782   5.266   6.180  13.392  0.5724  0.1948 -0.7656
  156DOPC   H3X18783   5.233   6.172  13.286  1.3250 -0.5742 -0.9591
  156DOPC   H3Y18784   5.377   6.172  13.386  0.3952 -2.6838 -2.1319
  156DOPC   C3418785   5.247   6.327  13.418 -0.0414  0.6102 -0.2306
  156DOPC   H4X18786   5.293   6.347  13.517 -1.4830 -0.7461  0.7671
  156DOPC   H4Y18787   5.138   6.352  13.424 -1.4392 -4.5231  0.3888
  156DOPC   C3518788   5.315   6.428  13.325 -0.0779  0.2068  0.7670
  156DOPC   H5X18789   5.293   6.533  13.351  0.5190 -0.3623  3.9972
  156DOPC   H5Y18790   5.264   6.410  13.228  0.2773  0.4089  0.5402
  156DOPC   C3618791   5.464   6.418  13.315  0.3212  1.0740  0.0594
  156DOPC   H6X18792   5.501   6.438  13.418 -1.2829 -2.1763  1.4186
  156DOPC   H6Y18793   5.493   6.319  13.272  1.6706  1.4858 -0.0301
  156DOPC   C3718794   5.521   6.518  13.214  0.7419  1.0075 -0.2653
  156DOPC   H7X18795   5.470   6.501  13.117  0.1746 -0.2181  0.2347
  156DOPC   H7Y18796   5.489   6.620  13.245 -0.9575  0.5227 -0.3563
  156DOPC   C3818797   5.672   6.505  13.183  0.0290 -0.3510  0.0916
  156DOPC   H8X18798   5.692   6.402  13.147 -1.6302 -0.8435  0.4849
  156DOPC   H8Y18799   5.728   6.511  13.279  0.5892  1.4931 -0.3062
  156DOPC   C3918800   5.731   6.612  13.088 -0.2114 -0.1661 -0.3307
  156DOPC   H9X18801   5.699   6.611  12.983  0.1673  0.3606 -0.4575
  156DOPC  C31018802   5.817   6.705  13.132 -0.1025 -0.0155  0.8339
  156DOPC  H10X18803   5.843   6.782  13.057  1.1184 -0.5415  0.6953
  156DOPC  C31118804   5.881   6.717  13.271  0.5333  0.2304  0.0170
  156DOPC  H11X18805   5.804   6.724  13.350  1.6883  1.8488  1.0528
  156DOPC  H11Y18806   5.924   6.819  13.280 -0.2892  0.5327  0.5967
  156DOPC  C31218807   5.982   6.604  13.295  0.3238 -0.7563  0.0549
  156DOPC  H12X18808   5.921   6.511  13.292 -2.5329  0.9915  0.0955
  156DOPC  H12Y18809   6.025   6.607  13.398 -2.7117  1.3329  1.4127
  156DOPC  C31318810   6.109   6.601  13.207  0.2771 -0.4982  0.5587
  156DOPC  H13X18811   6.088   6.619  13.099  1.5383  1.2863  0.5764
  156DOPC  H13Y18812   6.159   6.694  13.239  1.7344 -1.7627  2.1118
  156DOPC  C31418813   6.196   6.481  13.240  0.2490 -0.6525  0.0559
  156DOPC  H14X18814   6.195   6.494  13.350 -1.5533  0.1058 -0.0230
  156DOPC  H14Y18815   6.139   6.390  13.209 -0.4479  0.6550 -2.8436
  156DOPC  C31518816   6.342   6.478  13.197  0.4468 -0.0346 -0.4203
  156DOPC  H15X18817   6.374   6.392  13.261 -1.7781  0.4066  1.4225
  156DOPC  H15Y18818   6.383   6.577  13.226  1.2726  0.3867 -2.8676
  156DOPC  C31618819   6.369   6.463  13.049 -0.0619 -0.9824  1.0003
  156DOPC  H16X18820   6.316   6.373  13.011 -1.0653 -0.4296  1.0422
  156DOPC  H16Y18821   6.340   6.560  13.003  1.3411 -1.3892 -0.8639
  156DOPC  C31718822   6.519   6.432  13.018  0.0686  0.2971 -0.7548
  156DOPC  H17X18823   6.579   6.514  13.061 -0.1414  0.3355 -0.5320
  156DOPC  H17Y18824   6.557   6.347  13.078 -0.2042  1.0404  0.5037
  156DOPC  C31818825   6.551   6.411  12.873  0.0566 -0.3926 -0.3042
  156DOPC  H18X18826   6.508   6.498  12.820  0.8007  1.0323  1.3433
  156DOPC  H18Y18827   6.661   6.423  12.864  0.5560  1.0704  4.7453
  156DOPC  H18Z18828   6.508   6.317  12.830 -0.0459  0.0457 -1.1873
  157DOPC     N18829   6.835   1.588  14.120 -0.4523  0.1623  0.4469
  157DOPC   C1218830   6.740   1.561  14.001 -0.1741  0.0400 -0.0797
  157DOPC  H12A18831   6.659   1.504  14.044 -0.1274  0.5474  0.7066
  157DOPC  H12B18832   6.791   1.485  13.944 -0.4050 -0.4281  0.3324
  157DOPC   C1318833   6.894   1.460  14.164  0.0751  1.0531 -0.3565
  157DOPC  H13A18834   6.950   1.418  14.082 -2.4176  2.5083 -2.9993
  157DOPC  H13B18835   6.944   1.468  14.260 -1.6095  0.9667  0.5723
  157DOPC  H13C18836   6.820   1.385  14.190 -0.7595  2.3135  1.1170
  157DOPC   C1418837   6.761   1.649  14.232  0.5738 -0.1524  0.1240
  157DOPC  H14A18838   6.834   1.687  14.303 -0.3946  0.8766  0.6017
  157DOPC  H14B18839   6.716   1.742  14.200  0.6646 -0.5642 -1.2642
  157DOPC  H14C18840   6.684   1.591  14.280 -1.0261  0.8478 -1.1332
  157DOPC   C1518841   6.949   1.678  14.087 -0.0333 -0.1944  0.5928
  157DOPC  H15A18842   7.004   1.717  14.171  1.9956 -0.7034 -0.4359
  157DOPC  H15B18843   6.907   1.764  14.036 -0.0236 -0.6284 -0.1495
  157DOPC  H15C18844   7.022   1.636  14.019 -1.2870 -0.5029 -0.6107
  157DOPC   C1118845   6.691   1.674  13.922  0.8351 -0.2819  0.0101
  157DOPC  H11A18846   6.761   1.756  13.894 -1.7418  2.0746  0.0007
  157DOPC  H11B18847   6.649   1.635  13.827 -2.1749 -1.7470  1.7927
  157DOPC     P18848   6.436   1.703  13.970  0.2179  0.2725 -0.2392
  157DOPC   O1318849   6.362   1.819  14.033 -0.0660  0.3270 -0.2415
  157DOPC   O1418850   6.413   1.565  14.026  0.1002 -0.2940  0.3541
  157DOPC   O1218851   6.583   1.743  13.989  0.0045 -0.2277  0.2393
  157DOPC   O1118852   6.403   1.702  13.811  0.5738  0.1410  0.0062
  157DOPC    C118853   6.453   1.811  13.728  0.0406  0.8771 -0.1729
  157DOPC    HA18854   6.509   1.770  13.641  1.1291 -0.0876  0.9414
  157DOPC    HB18855   6.525   1.873  13.785  0.8278  0.6914 -0.9542
  157DOPC    C218856   6.344   1.907  13.684  0.2484  0.4189  0.5667
  157DOPC    HS18857   6.308   1.945  13.782  1.2572  0.7454  0.8272
  157DOPC   O2118858   6.236   1.853  13.611 -0.0859  0.0045  0.1728
  157DOPC   C2118859   6.130   1.930  13.609 -0.4493  1.0850  1.2424
  157DOPC   O2218860   6.115   2.032  13.679 -0.8114 -0.3730  0.7956
  157DOPC   C2218861   6.026   1.860  13.526  0.0937  0.1828  0.0038
  157DOPC   H2R18862   5.927   1.889  13.567  0.3209 -0.4472  1.0340
  157DOPC   H2S18863   6.042   1.751  13.535  1.3815  0.4286  1.0596
  157DOPC    C318864   6.408   2.036  13.619  0.0871 -0.8056 -0.1102
  157DOPC    HX18865   6.466   2.078  13.703 -1.4729  0.2359  0.4937
  157DOPC    HY18866   6.334   2.110  13.580  0.4550 -0.6530 -0.5211
  157DOPC   O3118867   6.495   1.994  13.512 -0.7495  0.5272  0.4131
  157DOPC   C3118868   6.585   2.072  13.466  0.7555 -0.3259 -0.3027
  157DOPC   O3218869   6.581   2.196  13.483  0.2734  0.0953  0.3036
  157DOPC   C3218870   6.692   1.991  13.389  0.1863 -0.3260  0.6941
  157DOPC   H2X18871   6.644   1.944  13.301 -0.7268 -0.0368  1.0215
  157DOPC   H2Y18872   6.757   2.074  13.351 -1.3816  0.5563 -0.1720
  157DOPC   C2318873   6.026   1.903  13.376 -0.0863 -0.3010 -0.2665
  157DOPC   H3R18874   5.976   2.002  13.377  0.7524  0.1271  1.2457
  157DOPC   H3S18875   5.952   1.840  13.322 -1.4668  0.9493  0.1049
  157DOPC   C2418876   6.171   1.903  13.307  0.7688  0.4336 -0.1622
  157DOPC   H4R18877   6.215   1.805  13.335 -0.8874 -0.1624  0.4765
  157DOPC   H4S18878   6.222   1.989  13.355  0.5903 -0.5822  1.9900
  157DOPC   C2518879   6.178   1.908  13.156  0.2737  0.4631  0.2791
  157DOPC   H5R18880   6.117   1.992  13.116 -1.4001  0.1933  2.1310
  157DOPC   H5S18881   6.137   1.815  13.112 -0.0273  0.5745  0.3182
  157DOPC   C2618882   6.319   1.911  13.104  0.2197 -0.9807 -0.2812
  157DOPC   H6R18883   6.373   1.984  13.168 -1.7430  0.8672 -0.5962
  157DOPC   H6S18884   6.320   1.953  13.002  1.2208  1.0073  0.4949
  157DOPC   C2718885   6.382   1.771  13.094  0.2203  0.5525 -0.6902
  157DOPC   H7R18886   6.331   1.701  13.024  0.4166 -0.7614  0.4299
  157DOPC   H7S18887   6.372   1.718  13.191 -1.5002 -0.7372 -1.5139
  157DOPC   C2818888   6.535   1.790  13.078  0.3324  0.0810  0.3943
  157DOPC   H8R18889   6.593   1.703  13.115  1.7911  0.1817 -1.5321
  157DOPC   H8S18890   6.565   1.886  13.125 -1.7787  1.4792 -0.9286
  157DOPC   C2918891   6.568   1.806  12.929 -0.8354  0.0692 -0.0990
  157DOPC   H9R18892   6.556   1.713  12.872 -0.5855  0.1288 -0.2474
  157DOPC  C21018893   6.600   1.915  12.862  0.0983 -0.0841  0.1175
  157DOPC  H10R18894   6.597   1.906  12.752 -1.1217 -1.9233  0.2519
  157DOPC  C21118895   6.625   2.052  12.916  0.6295  0.4201 -0.1385
  157DOPC  H11R18896   6.545   2.081  12.987  0.8138 -1.0374  0.7125
  157DOPC  H11S18897   6.627   2.128  12.835 -1.7492 -0.4886 -1.1404
  157DOPC  C21218898   6.756   2.055  12.992 -0.7307  0.5300 -0.0526
  157DOPC  H12R18899   6.841   2.029  12.924  0.8561  1.6076  1.4171
  157DOPC  H12S18900   6.757   1.980  13.073  0.4680  1.3130  0.6937
  157DOPC  C21318901   6.794   2.191  13.052 -0.4573  0.4195  0.2639
  157DOPC  H13R18902   6.708   2.217  13.116  1.5041  2.7318  2.1854
  157DOPC  H13S18903   6.796   2.270  12.973 -0.3873  0.6540  0.4994
  157DOPC  C21418904   6.922   2.207  13.140 -0.0245 -0.4401 -0.4047
  157DOPC  H14R18905   6.926   2.134  13.224 -0.2445 -0.0800 -0.0828
  157DOPC  H14S18906   6.905   2.298  13.200  1.3355 -1.4044  1.5600
  157DOPC  C21518907   7.053   2.222  13.054 -0.2122  0.4144  0.6946
  157DOPC  H15R18908   7.046   2.311  12.988  0.1229  0.9722  1.3927
  157DOPC  H15S18909   7.061   2.135  12.985  1.8314  1.4177 -0.4230
  157DOPC  C21618910   7.175   2.224  13.145  0.6800 -0.3707 -0.2906
  157DOPC  H16R18911   7.259   2.177  13.089  1.1215 -0.5605  0.5256
  157DOPC  H16S18912   7.155   2.161  13.234 -0.2087  0.7688  0.3359
  157DOPC  C21718913   7.209   2.367  13.188  0.3051  0.5886  0.2795
  157DOPC  H17R18914   7.141   2.394  13.272  0.7011 -0.6302  1.0218
  157DOPC  H17S18915   7.189   2.438  13.105 -0.8207 -1.5124 -1.3618
  157DOPC  C21818916   7.348   2.387  13.244  0.6417 -0.3320  0.3144
  157DOPC  H18R18917   7.362   2.494  13.268 -1.7024 -0.1107  0.9268
  157DOPC  H18S18918   7.427   2.369  13.168 -1.7581 -0.4007 -2.3505
  157DOPC  H18T18919   7.353   2.333  13.341 -0.1625  1.9477  1.7038
  157DOPC   C3318920   6.760   1.881  13.478 -0.0309  0.2204  0.0522
  157DOPC   H3X18921   6.701   1.787  13.480 -2.9845  1.9381  1.4870
  157DOPC   H3Y18922   6.766   1.923  13.580 -1.6357  0.1578  0.1959
  157DOPC   C3418923   6.898   1.861  13.436  0.4904  1.0974  0.0613
  157DOPC   H4X18924   6.960   1.952  13.424  0.3044  1.2786  0.4432
  157DOPC   H4Y18925   6.889   1.815  13.336  1.1574  0.6933  0.1867
  157DOPC   C3518926   6.971   1.758  13.521 -0.1985 -0.2606  0.2476
  157DOPC   H5X18927   6.906   1.667  13.523  0.6459 -0.9530 -1.4502
  157DOPC   H5Y18928   6.984   1.790  13.626 -2.2158 -0.0770  0.4799
  157DOPC   C3618929   7.113   1.728  13.475  0.5511  0.3388 -0.0146
  157DOPC   H6X18930   7.108   1.710  13.365 -2.1048 -0.3772  0.1497
  157DOPC   H6Y18931   7.177   1.814  13.503  0.6307 -0.3736  2.1440
  157DOPC   C3718932   7.173   1.598  13.532 -0.2337  0.0262  0.2126
  157DOPC   H7X18933   7.167   1.608  13.643 -0.3705 -0.4718  0.2531
  157DOPC   H7Y18934   7.110   1.510  13.506  0.1805  0.2912 -1.8058
  157DOPC   C3818935   7.320   1.578  13.496 -0.1132 -0.0071  0.1792
  157DOPC   H8X18936   7.374   1.531  13.581  1.2995  0.0512 -0.6607
  157DOPC   H8Y18937   7.385   1.668  13.493  1.5652 -1.1972 -1.1106
  157DOPC   C3918938   7.332   1.496  13.368 -1.0634 -0.4083 -0.0526
  157DOPC   H9X18939   7.268   1.409  13.386 -0.7571 -0.9351 -1.3840
  157DOPC  C31018940   7.402   1.517  13.255 -0.0479 -0.6515 -0.3817
  157DOPC  H10X18941   7.412   1.444  13.173 -0.4047 -1.3825  0.2139
  157DOPC  C31118942   7.490   1.631  13.225  0.0993  0.1319  0.1948
  157DOPC  H11X18943   7.458   1.724  13.277  0.0512  0.2696 -0.0749
  157DOPC  H11Y18944   7.480   1.654  13.116 -2.0125  0.6206  0.4665
  157DOPC  C31218945   7.642   1.619  13.246  0.4564 -0.3062  0.1580
  157DOPC  H12X18946   7.663   1.512  13.221 -1.4326 -0.2941 -1.8000
  157DOPC  H12Y18947   7.676   1.626  13.352 -0.1974  0.9675  0.2998
  157DOPC  C31318948   7.740   1.703  13.168  0.3524  0.0060  0.0214
  157DOPC  H13X18949   7.735   1.688  13.058  2.1746  1.0761 -0.2549
  157DOPC  H13Y18950   7.722   1.813  13.175  1.6760  0.2348  0.1208
  157DOPC  C31418951   7.887   1.691  13.211 -1.0150 -0.1308 -0.1713
  157DOPC  H14X18952   7.910   1.743  13.307 -3.2644 -1.0712  0.9534
  157DOPC  H14Y18953   7.927   1.588  13.215  1.5764  0.7550 -0.8720
  157DOPC  C31518954   7.975   1.765  13.113 -0.4469  0.5652 -0.9326
  157DOPC  H15X18955   7.939   1.871  13.111  1.5213  1.4445  2.3696
  157DOPC  H15Y18956   7.980   1.727  13.009  0.4748  1.3103 -1.1757
  157DOPC  C31618957   8.117   1.770  13.164 -0.1753  0.1498  0.3769
  157DOPC  H16X18958   8.112   1.785  13.274  1.3103 -1.7412  0.7583
  157DOPC  H16Y18959   8.155   1.668  13.143 -0.2532 -0.0385  1.1319
  157DOPC  C31718960   8.206   1.884  13.107  0.0110 -0.0645  0.1963
  157DOPC  H17X18961   8.174   1.979  13.156  1.9499  0.1009  1.2761
  157DOPC  H17Y18962   8.309   1.868  13.146 -0.3400 -0.3827  1.0196
  157DOPC  C31818963   8.195   1.909  12.956  0.0121 -0.4976 -0.1575
  157DOPC  H18X18964   8.267   1.988  12.926  1.1387 -1.4106  0.0376
  157DOPC  H18Y18965   8.234   1.819  12.904 -1.1326 -1.2420  0.2395
  157DOPC  H18Z18966   8.098   1.943  12.916  0.0075 -0.4833 -0.1349
  158DOPC     N18967   5.236   0.416  14.489  0.7050  0.4071  0.3317
  158DOPC   C1218968   5.187   0.397  14.346 -0.3410  0.1449  1.1539
  158DOPC  H12A18969   5.152   0.496  14.320 -0.4494 -0.2193 -0.1308
  158DOPC  H12B18970   5.101   0.332  14.345  0.4715 -0.9509  0.1411
  158DOPC   C1318971   5.134   0.477  14.574 -0.5450 -0.7447 -0.2125
  158DOPC  H13A18972   5.035   0.434  14.571 -0.1879 -1.6784  0.6998
  158DOPC  H13B18973   5.182   0.479  14.671  2.5376 -1.0374 -1.6275
  158DOPC  H13C18974   5.126   0.582  14.548 -0.0548 -0.5505  0.3802
  158DOPC   C1418975   5.350   0.506  14.506  0.2121  0.5213 -0.0834
  158DOPC  H14A18976   5.410   0.501  14.596  3.1770  1.1424 -1.9043
  158DOPC  H14B18977   5.427   0.495  14.431  1.6354 -1.0594  1.5116
  158DOPC  H14C18978   5.316   0.608  14.496  0.9631  0.6933 -1.0420
  158DOPC   C1518979   5.266   0.287  14.563  0.3460  0.5440 -0.2689
  158DOPC  H15A18980   5.292   0.313  14.665 -3.0834  3.0838  0.1288
  158DOPC  H15B18981   5.355   0.240  14.523  0.1382 -0.3613  0.3213
  158DOPC  H15C18982   5.177   0.227  14.561 -0.8355  2.2452 -2.1602
  158DOPC   C1118983   5.279   0.353  14.237 -0.6253  1.2957 -0.4056
  158DOPC  H11A18984   5.245   0.382  14.135 -0.6949  0.1075 -0.7406
  158DOPC  H11B18985   5.373   0.410  14.253 -0.4903  1.4611 -1.6649
  158DOPC     P18986   5.233   0.101  14.192  0.3072 -0.3328 -0.8153
  158DOPC   O1318987   5.089   0.150  14.192  0.0228  0.1347 -0.6664
  158DOPC   O1418988   5.256  -0.012  14.285  0.3764 -0.0669  0.0509
  158DOPC   O1218989   5.316   0.223  14.250 -0.2884  0.6511  0.4231
  158DOPC   O1118990   5.287   0.066  14.048  0.6737 -0.1176  0.1445
  158DOPC    C118991   5.417   0.105  14.028 -0.0140  0.2533 -0.0173
  158DOPC    HA18992   5.483   0.086  14.116  0.0250  0.2093 -0.0560
  158DOPC    HB18993   5.418   0.215  14.010 -0.1448  0.0307 -1.4644
  158DOPC    C218994   5.471   0.045  13.907  0.1473  0.6890 -0.5650
  158DOPC    HS18995   5.582   0.058  13.904  0.3474 -0.8458 -0.5049
  158DOPC   O2118996   5.411   0.095  13.788 -0.2349  0.6361 -0.1586
  158DOPC   C2118997   5.458   0.216  13.752  0.6507  0.5170 -0.0706
  158DOPC   O2218998   5.533   0.286  13.813 -0.2407 -0.3432 -0.2746
  158DOPC   C2218999   5.395   0.247  13.616  0.5886 -0.1238  0.6704
  158DOPC   H2R19000   5.448   0.337  13.578 -0.9156  0.1242 -1.0139
  158DOPC   H2S19001   5.288   0.273  13.632  0.5852  0.5722 -0.3366
  158DOPC    C319002   5.443  -0.110  13.909  0.3003  0.2011  0.4347
  158DOPC    HX19003   5.335  -0.123  13.930 -0.5332  2.1477 -2.1208
  158DOPC    HY19004   5.495  -0.153  13.997 -1.1806  1.0708  1.7923
  158DOPC   O3119005   5.471  -0.180  13.782  0.0331  0.2602  0.4303
  158DOPC   C3119006   5.604  -0.225  13.772  0.0313  0.2864  0.3978
  158DOPC   O3219007   5.691  -0.196  13.852 -0.3199  0.0138  0.0570
  158DOPC   C3219008   5.623  -0.307  13.643  0.1935  0.2010 -0.1466
  158DOPC   H2X19009   5.691  -0.390  13.669  0.0999  0.4244  0.8451
  158DOPC   H2Y19010   5.523  -0.334  13.602  0.4159  0.9723 -1.2399
  158DOPC   C2319011   5.407   0.148  13.503 -0.2449  1.1172  0.3876
  158DOPC   H3R19012   5.333   0.070  13.532 -0.1500  1.3973  1.4096
  158DOPC   H3S19013   5.508   0.103  13.511 -1.1799 -1.4702 -1.1267
  158DOPC   C2419014   5.392   0.201  13.364  0.2467  0.9491  0.0079
  158DOPC   H4R19015   5.454   0.292  13.348  0.6646  0.3432 -2.1133
  158DOPC   H4S19016   5.283   0.224  13.356 -0.0308 -0.3081  0.0231
  158DOPC   C2519017   5.419   0.096  13.262 -0.0141  0.2387  0.1862
  158DOPC   H5R19018   5.364  -0.000  13.274  1.7840 -1.0669 -1.3725
  158DOPC   H5S19019   5.528   0.076  13.264 -0.2228 -0.9839  2.6655
  158DOPC   C2619020   5.388   0.150  13.121  0.2712 -0.5761 -0.1996
  158DOPC   H6R19021   5.452   0.238  13.099 -0.2859 -0.3640 -0.9850
  158DOPC   H6S19022   5.285   0.192  13.123 -0.3164 -1.9083 -1.0068
  158DOPC   C2719023   5.401   0.051  13.013 -0.1078 -0.1069 -0.3602
  158DOPC   H7R19024   5.317  -0.021  13.021  0.2301 -0.6416 -1.3807
  158DOPC   H7S19025   5.501   0.002  13.021  0.5903  1.4653  1.4363
  158DOPC   C2819026   5.382   0.122  12.881  0.7006  0.3315 -0.7324
  158DOPC   H8R19027   5.455   0.205  12.880  0.9009  0.1955  0.5331
  158DOPC   H8S19028   5.280   0.165  12.881  0.4771 -0.1898 -1.0369
  158DOPC   C2919029   5.397   0.031  12.761 -0.3041 -0.5665  0.1623
  158DOPC   H9R19030   5.462  -0.057  12.777 -0.6225 -0.5043  1.9469
  158DOPC  C21019031   5.342   0.048  12.640 -0.4409  0.1199  0.6190
  158DOPC  H10R19032   5.351  -0.023  12.556 -0.4795  2.3223 -1.3519
  158DOPC  C21119033   5.258   0.165  12.594 -0.2721  0.8309  0.0486
  158DOPC  H11R19034   5.195   0.200  12.679  0.4929  0.3532  0.8390
  158DOPC  H11S19035   5.200   0.121  12.511  0.0032  0.2409  0.1580
  158DOPC  C21219036   5.351   0.272  12.549 -0.5210 -0.0098 -0.0875
  158DOPC  H12R19037   5.395   0.251  12.449 -1.0529  1.2293 -0.5922
  158DOPC  H12S19038   5.434   0.293  12.620  1.3043 -2.7758 -1.1926
  158DOPC  C21319039   5.272   0.405  12.523  0.3615  0.6262 -0.0920
  158DOPC  H13R19040   5.229   0.440  12.619  1.5140  0.5114  0.4879
  158DOPC  H13S19041   5.203   0.374  12.442 -0.1181 -1.4692  1.0467
  158DOPC  C21419042   5.374   0.510  12.457 -0.2240 -0.0440 -0.0146
  158DOPC  H14R19043   5.472   0.495  12.507  1.2844 -0.6080 -2.9467
  158DOPC  H14S19044   5.336   0.610  12.487 -0.3920 -0.1918  0.2679
  158DOPC  C21519045   5.389   0.506  12.302 -0.5682  0.2845 -0.4988
  158DOPC  H15R19046   5.297   0.546  12.254 -0.1489  1.4479 -0.3621
  158DOPC  H15S19047   5.404   0.402  12.266  0.2241  0.1326  0.2597
  158DOPC  C21619048   5.502   0.596  12.249 -0.3100 -0.2711 -0.3078
  158DOPC  H16R19049   5.594   0.584  12.309  0.6194  0.7440 -1.4863
  158DOPC  H16S19050   5.467   0.700  12.263 -1.9649 -0.3552 -3.1247
  158DOPC  C21719051   5.525   0.565  12.102  0.0048 -0.3503 -0.9346
  158DOPC  H17R19052   5.614   0.630  12.087  0.4541 -0.6364  0.2999
  158DOPC  H17S19053   5.439   0.594  12.039 -0.1108 -0.9173 -1.0465
  158DOPC  C21819054   5.585   0.428  12.080  1.0554 -0.2920  0.8185
  158DOPC  H18R19055   5.522   0.338  12.098 -1.4696  1.8058  3.3553
  158DOPC  H18S19056   5.677   0.416  12.141  1.3946  0.8689  0.5656
  158DOPC  H18T19057   5.616   0.427  11.973  0.6917  0.7787  0.6949
  158DOPC   C3319058   5.685  -0.221  13.535  0.0086 -0.8452 -0.2328
  158DOPC   H3X19059   5.785  -0.179  13.558 -1.5690  3.6882 -0.4518
  158DOPC   H3Y19060   5.631  -0.124  13.528 -1.4392 -1.6536 -0.5923
  158DOPC   C3419061   5.686  -0.302  13.407 -0.0959  0.5101  0.1987
  158DOPC   H4X19062   5.620  -0.260  13.328 -0.0912 -2.9005 -1.8102
  158DOPC   H4Y19063   5.641  -0.401  13.431  3.2122 -1.2303 -0.2645
  158DOPC   C3519064   5.825  -0.324  13.351 -0.8681  0.3043 -0.1079
  158DOPC   H5X19065   5.895  -0.378  13.418 -0.5449 -1.5539 -1.8778
  158DOPC   H5Y19066   5.861  -0.220  13.334 -1.5859  0.5169 -0.3469
  158DOPC   C3619067   5.807  -0.402  13.216  0.1306  0.8018  0.1529
  158DOPC   H6X19068   5.777  -0.507  13.236  1.2036 -0.1453 -2.7586
  158DOPC   H6Y19069   5.731  -0.344  13.159 -2.4139 -0.6319  1.9106
  158DOPC   C3719070   5.932  -0.405  13.127  0.2243  0.4441  0.9852
  158DOPC   H7X19071   5.974  -0.303  13.111  2.9196 -0.4981  1.5530
  158DOPC   H7Y19072   6.013  -0.461  13.178  0.9100  1.8396  1.4779
  158DOPC   C3819073   5.900  -0.474  13.000 -0.1759  0.9321  0.0486
  158DOPC   H8X19074   5.845  -0.403  12.934  1.9274  0.4925 -2.3723
  158DOPC   H8Y19075   5.837  -0.561  13.026 -0.2378  0.3357 -1.9398
  158DOPC   C3919076   6.018  -0.522  12.912 -0.6942 -0.3523 -0.3887
  158DOPC   H9X19077   6.107  -0.554  12.968 -0.4835  1.8299  0.5976
  158DOPC  C31019078   6.023  -0.517  12.781 -0.5786 -0.8084  0.6852
  158DOPC  H10X19079   6.107  -0.567  12.731  0.8655  1.3148  0.8133
  158DOPC  C31119080   5.914  -0.470  12.688  0.0934  0.0536 -0.2021
  158DOPC  H11X19081   5.932  -0.361  12.675  0.3363  0.0563  0.1349
  158DOPC  H11Y19082   5.817  -0.489  12.738  0.8207  0.8744  1.6139
  158DOPC  C31219083   5.930  -0.521  12.537 -0.2361 -0.2416  0.1160
  158DOPC  H12X19084   5.942  -0.632  12.535 -2.0453 -0.5018  1.3519
  158DOPC  H12Y19085   6.023  -0.475  12.498 -0.7520  0.8848  0.1829
  158DOPC  C31319086   5.812  -0.484  12.448  0.2392  0.4020 -0.2178
  158DOPC  H13X19087   5.720  -0.532  12.487  2.1321 -1.6411  2.1204
  158DOPC  H13Y19088   5.809  -0.374  12.442  2.4904  0.5802  0.7426
  158DOPC  C31419089   5.837  -0.528  12.309  0.2302  0.3264 -0.4959
  158DOPC  H14X19090   5.946  -0.511  12.293  0.7642 -0.6054  1.8016
  158DOPC  H14Y19091   5.830  -0.638  12.297  1.7566 -0.0164  1.3626
  158DOPC  C31519092   5.743  -0.463  12.211 -0.1299  0.1882 -0.2319
  158DOPC  H15X19093   5.765  -0.355  12.198 -1.5460  0.5052 -0.1546
  158DOPC  H15Y19094   5.640  -0.481  12.248 -0.9015 -0.9330 -2.6723
  158DOPC  C31619095   5.746  -0.517  12.068 -0.1956 -0.0620  0.3530
  158DOPC  H16X19096   5.713  -0.622  12.051  2.5962 -0.8670 -0.6288
  158DOPC  H16Y19097   5.679  -0.460  11.999 -0.5718  0.0037  0.7653
  158DOPC  C31719098   5.888  -0.515  12.017  0.9479  0.3707 -0.7275
  158DOPC  H17X19099   5.926  -0.412  12.031 -0.4999  0.7947  0.3390
  158DOPC  H17Y19100   5.948  -0.582  12.083  0.7824  1.1601  0.2509
  158DOPC  C31819101   5.899  -0.558  11.872  0.5742 -0.5599 -0.2306
  158DOPC  H18X19102   6.003  -0.549  11.834  0.7311 -1.2163  0.0365
  158DOPC  H18Y19103   5.872  -0.665  11.859 -2.8504 -0.0546  1.7021
  158DOPC  H18Z19104   5.831  -0.500  11.806  0.8764  1.0906  0.8515
  159DOPC     N19105   6.990   2.442  14.371 -0.2298  0.1382 -0.0409
  159DOPC   C1219106   6.886   2.358  14.310  0.6358 -0.2204 -0.0071
  159DOPC  H12A19107   6.805   2.421  14.278 -0.2091  0.5599  3.3063
  159DOPC  H12B19108   6.841   2.304  14.391 -1.9882 -0.7444 -1.6939
  159DOPC   C1319109   7.102   2.362  14.428  0.3832  0.0187  0.5815
  159DOPC  H13A19110   7.070   2.285  14.496 -1.8368  0.1710 -0.1927
  159DOPC  H13B19111   7.151   2.312  14.346  0.4425  1.0909 -0.0707
  159DOPC  H13C19112   7.174   2.424  14.479  0.5208 -0.8773  1.4882
  159DOPC   C1419113   6.922   2.533  14.472 -0.3896  0.1404  0.2737
  159DOPC  H14A19114   6.871   2.616  14.426 -0.0234 -0.8972 -2.1869
  159DOPC  H14B19115   6.867   2.462  14.533  0.4946 -1.0186 -0.2217
  159DOPC  H14C19116   6.996   2.585  14.531 -2.1295 -0.6087  3.3190
  159DOPC   C1519117   7.038   2.536  14.264 -0.6392 -0.6915 -0.2516
  159DOPC  H15A19118   7.077   2.471  14.186 -0.2572  0.3557 -0.9555
  159DOPC  H15B19119   7.117   2.604  14.292 -0.2200 -1.8370  1.4784
  159DOPC  H15C19120   6.956   2.584  14.212  0.6514 -0.4467 -2.1569
  159DOPC   C1119121   6.920   2.262  14.191 -0.0157  0.0466 -0.2864
  159DOPC  H11A19122   6.823   2.207  14.184  0.2981 -0.9792  2.2226
  159DOPC  H11B19123   6.926   2.326  14.101 -1.4661  2.1136  0.9848
  159DOPC     P19124   7.035   2.027  14.168  0.0799  0.1160 -0.1283
  159DOPC   O1319125   6.898   1.977  14.164 -0.0528 -0.0693  0.1502
  159DOPC   O1419126   7.138   1.947  14.236 -0.2177 -0.2530 -0.2483
  159DOPC   O1219127   7.035   2.174  14.216  0.2879 -0.5165  0.2457
  159DOPC   O1119128   7.091   2.055  14.030  0.3672  0.3992  0.0386
  159DOPC    C119129   7.035   2.007  13.907  0.4144 -0.2320  0.9880
  159DOPC    HA19130   6.924   2.005  13.902  0.4483 -1.1787  0.5796
  159DOPC    HB19131   7.076   1.905  13.892  2.2990  0.2393  2.4557
  159DOPC    C219132   7.073   2.102  13.795 -0.0852  0.1801  0.0511
  159DOPC    HS19133   7.055   2.045  13.702  3.2923  0.2327 -0.7598
  159DOPC   O2119134   7.216   2.137  13.813  0.5413  0.0588 -0.0109
  159DOPC   C2119135   7.311   2.050  13.792 -0.5557 -0.1277 -0.2245
  159DOPC   O2219136   7.294   1.940  13.737 -0.2188 -0.3891  0.0791
  159DOPC   C2219137   7.436   2.104  13.856 -0.3345 -0.1319  0.1723
  159DOPC   H2R19138   7.415   2.117  13.964 -0.5863  1.4195 -0.0362
  159DOPC   H2S19139   7.464   2.206  13.821  0.0632 -0.7468 -1.4121
  159DOPC    C319140   6.986   2.228  13.794 -0.1950 -0.4012  0.2575
  159DOPC    HX19141   6.962   2.266  13.896 -0.7689 -2.9794  1.1705
  159DOPC    HY19142   6.885   2.197  13.760 -0.3190  1.2523 -1.0039
  159DOPC   O3119143   7.034   2.326  13.694  0.2254  0.3881  0.0308
  159DOPC   C3119144   6.997   2.451  13.714 -0.1175 -0.2152  0.0233
  159DOPC   O3219145   6.931   2.495  13.805  0.6301 -0.2870  1.0671
  159DOPC   C3219146   7.034   2.532  13.590  0.1128  0.2895  0.6194
  159DOPC   H2X19147   7.123   2.494  13.535 -0.6525 -0.5631 -0.0491
  159DOPC   H2Y19148   6.943   2.529  13.527 -0.5547 -1.6762  1.5646
  159DOPC   C2319149   7.560   2.014  13.822 -0.1580  0.5926 -0.6211
  159DOPC   H3R19150   7.600   2.037  13.721  0.5625  2.7452  0.1055
  159DOPC   H3S19151   7.523   1.911  13.840 -4.5206  1.5946 -2.4705
  159DOPC   C2419152   7.675   2.033  13.927  0.0477 -0.0627 -0.1059
  159DOPC   H4R19153   7.755   1.963  13.894  1.0802  1.0697 -0.0746
  159DOPC   H4S19154   7.635   1.995  14.023 -0.5972  0.1635 -0.2833
  159DOPC   C2519155   7.730   2.178  13.940 -0.2867  0.9065  0.0071
  159DOPC   H5R19156   7.786   2.177  14.036 -1.0657 -2.4231  0.5712
  159DOPC   H5S19157   7.655   2.259  13.948  2.4624  3.6266 -0.0328
  159DOPC   C2619158   7.838   2.204  13.839  0.3497  0.4438 -0.4524
  159DOPC   H6R19159   7.782   2.220  13.744 -0.2071  1.2684 -0.0026
  159DOPC   H6S19160   7.911   2.121  13.831  1.5032  1.1279  1.9777
  159DOPC   C2719161   7.922   2.324  13.874 -0.2253  0.1071  0.9358
  159DOPC   H7R19162   7.975   2.294  13.967 -0.3468  0.0972  1.0017
  159DOPC   H7S19163   7.852   2.406  13.901 -1.3757 -0.5852  0.0993
  159DOPC   C2819164   8.015   2.384  13.768 -0.2482  0.1351  1.1101
  159DOPC   H8R19165   7.957   2.382  13.673  2.7352 -2.1226 -0.8448
  159DOPC   H8S19166   8.105   2.319  13.758  0.3516  0.8532  1.7002
  159DOPC   C2919167   8.060   2.528  13.809 -0.6780  0.0822  1.0965
  159DOPC   H9R19168   8.037   2.545  13.915  0.3621 -3.2334  1.9928
  159DOPC  C21019169   8.119   2.624  13.723  0.8573 -0.1481  0.0856
  159DOPC  H10R19170   8.144   2.718  13.774  0.0371 -0.5648  1.3324
  159DOPC  C21119171   8.164   2.612  13.580  0.6556  0.2676 -0.3684
  159DOPC  H11R19172   8.112   2.529  13.528 -0.7081  1.0931 -0.3640
  159DOPC  H11S19173   8.274   2.595  13.572  0.3301 -1.6178 -1.3515
  159DOPC  C21219174   8.122   2.737  13.499  0.6788 -0.9144 -0.6310
  159DOPC  H12R19175   8.185   2.809  13.556  0.8512 -2.6449  1.4628
  159DOPC  H12S19176   8.016   2.765  13.517  0.4658 -2.1888  0.1890
  159DOPC  C21319177   8.174   2.728  13.356  0.4938 -0.0327  0.1022
  159DOPC  H13R19178   8.283   2.705  13.360  0.3919 -0.7628 -0.8940
  159DOPC  H13S19179   8.159   2.828  13.310  0.1880 -1.0663 -2.1859
  159DOPC  C21419180   8.103   2.625  13.266  0.0334  0.1602  0.4829
  159DOPC  H14R19181   8.102   2.525  13.313 -1.1160 -0.7535 -1.3535
  159DOPC  H14S19182   8.148   2.599  13.168 -0.5062 -2.1920  0.7957
  159DOPC  C21519183   7.954   2.669  13.246 -0.1288 -0.8910  0.7385
  159DOPC  H15R19184   7.975   2.766  13.197  1.6877 -2.7361 -2.5403
  159DOPC  H15S19185   7.902   2.676  13.344 -0.4397  1.0158  0.4662
  159DOPC  C21619186   7.880   2.565  13.155 -0.2775 -0.3700  0.1600
  159DOPC  H16R19187   7.880   2.463  13.200  1.3176 -0.7771 -0.7082
  159DOPC  H16S19188   7.935   2.557  13.059 -1.1409  0.0671 -0.3857
  159DOPC  C21719189   7.733   2.614  13.137 -0.4359 -0.1038 -0.9125
  159DOPC  H17R19190   7.728   2.706  13.075 -1.3418 -1.1946 -2.5478
  159DOPC  H17S19191   7.697   2.642  13.238  1.8718 -0.9516  0.2079
  159DOPC  C21819192   7.642   2.521  13.070  0.1174 -0.9586 -0.1041
  159DOPC  H18R19193   7.544   2.572  13.063  1.0995  1.3263  1.6120
  159DOPC  H18S19194   7.628   2.429  13.131  0.2023 -0.5514  0.5475
  159DOPC  H18T19195   7.676   2.489  12.969 -0.4995 -0.0961 -0.5991
  159DOPC   C3319196   7.076   2.677  13.628  0.1229 -0.1820  0.5866
  159DOPC   H3X19197   7.168   2.687  13.688 -0.9151 -0.9853  2.3727
  159DOPC   H3Y19198   6.993   2.720  13.688 -1.1952  3.5916 -3.3838
  159DOPC   C3419199   7.095   2.760  13.499 -0.2189  0.5793 -0.4779
  159DOPC   H4X19200   7.146   2.680  13.441  0.5789  0.2575  0.6564
  159DOPC   H4Y19201   7.162   2.846  13.522  0.2823 -0.6580  3.3848
  159DOPC   C3519202   6.968   2.807  13.430 -0.5545  0.1909  0.1842
  159DOPC   H5X19203   6.921   2.887  13.491 -2.1686 -1.0017  0.5768
  159DOPC   H5Y19204   6.904   2.718  13.413  1.2573 -0.8909 -1.4715
  159DOPC   C3619205   6.999   2.865  13.296 -0.0534 -0.2535 -0.0474
  159DOPC   H6X19206   6.904   2.910  13.260 -1.2971 -0.0963  3.1556
  159DOPC   H6Y19207   7.064   2.955  13.297  0.4627 -0.5609 -1.8297
  159DOPC   C3719208   7.038   2.754  13.197 -0.5830 -0.1369  0.5694
  159DOPC   H7X19209   7.135   2.706  13.220 -2.4480 -3.6435  1.8059
  159DOPC   H7Y19210   6.963   2.672  13.195 -1.3771  0.5719 -1.2756
  159DOPC   C3819211   7.058   2.796  13.041 -0.5954  0.4321 -0.3980
  159DOPC   H8X19212   7.118   2.890  13.037  1.0378 -0.5557 -0.2971
  159DOPC   H8Y19213   6.958   2.807  12.995 -0.2563 -0.3332 -1.3412
  159DOPC   C3919214   7.130   2.689  12.976 -0.5293 -0.2200 -0.3745
  159DOPC   H9X19215   7.232   2.679  13.015 -0.2539  3.1796  0.0655
  159DOPC  C31019216   7.080   2.604  12.885  0.2285 -0.2476  0.0282
  159DOPC  H10X19217   7.144   2.528  12.836  1.4765  0.8714 -0.1245
  159DOPC  C31119218   6.937   2.591  12.835 -0.1957 -0.1042  0.7667
  159DOPC  H11X19219   6.866   2.639  12.905 -0.0852  2.6464 -0.8540
  159DOPC  H11Y19220   6.906   2.484  12.828  0.9309 -0.4409  0.8372
  159DOPC  C31219221   6.921   2.653  12.697 -0.3904 -0.6287  1.0200
  159DOPC  H12X19222   6.998   2.620  12.624 -2.1335  2.0605 -2.3128
  159DOPC  H12Y19223   6.940   2.762  12.708 -0.5613 -0.6278  1.3085
  159DOPC  C31319224   6.789   2.615  12.632  0.0974  0.2443  0.8254
  159DOPC  H13X19225   6.787   2.505  12.617 -0.4396  0.2925  0.5021
  159DOPC  H13Y19226   6.696   2.638  12.689 -1.7627 -1.0212 -1.5116
  159DOPC  C31419227   6.767   2.688  12.497 -0.3552  0.2554 -0.5878
  159DOPC  H14X19228   6.742   2.793  12.521 -0.6969 -0.2326  1.3105
  159DOPC  H14Y19229   6.852   2.686  12.425 -1.1398  1.8563 -1.6236
  159DOPC  C31519230   6.654   2.625  12.422  0.0818  0.6114 -0.0886
  159DOPC  H15X19231   6.559   2.640  12.477  0.1411 -2.9978  1.3136
  159DOPC  H15Y19232   6.672   2.515  12.415  1.0838  0.6182  1.8221
  159DOPC  C31619233   6.641   2.682  12.277  0.4199 -0.0027  0.5619
  159DOPC  H16X19234   6.632   2.793  12.280 -2.0119 -0.1106 -0.3877
  159DOPC  H16Y19235   6.735   2.667  12.219 -0.9548  2.1646 -2.4862
  159DOPC  C31719236   6.515   2.636  12.196  0.1920 -0.1047 -0.3183
  159DOPC  H17X19237   6.521   2.645  12.085  0.4623 -1.8578 -0.4910
  159DOPC  H17Y19238   6.504   2.525  12.191  0.1142 -0.0392 -2.6126
  159DOPC  C31819239   6.381   2.703  12.232  0.3964 -0.2796  0.0793
  159DOPC  H18X19240   6.389   2.811  12.208  0.4050 -0.1163  0.7953
  159DOPC  H18Y19241   6.303   2.658  12.167 -1.8747  0.6655  1.9953
  159DOPC  H18Z19242   6.353   2.692  12.339 -0.2766  1.2914  0.0893
  160DOPC     N19243   2.614   0.105  13.975 -0.0402  0.3933  0.8067
  160DOPC   C1219244   2.713  -0.013  13.972 -0.2413 -0.2480 -0.2385
  160DOPC  H12A19245   2.765  -0.000  14.066 -1.3925  0.1965  0.3560
  160DOPC  H12B19246   2.783  -0.004  13.891 -0.0555  1.9202  0.1114
  160DOPC   C1319247   2.525   0.102  14.098  0.9321 -0.3166 -0.3381
  160DOPC  H13A19248   2.487   0.000  14.099 -1.6757  0.5645 -1.6550
  160DOPC  H13B19249   2.575   0.122  14.192 -2.5974  0.3743  1.5515
  160DOPC  H13C19250   2.445   0.174  14.093 -0.7386 -2.1331 -1.4168
  160DOPC   C1419251   2.523   0.094  13.856 -0.3919 -0.4085  0.0342
  160DOPC  H14A19252   2.571   0.128  13.766  1.6937 -1.3693  0.7151
  160DOPC  H14B19253   2.481  -0.005  13.842  0.9346 -0.8986 -0.6389
  160DOPC  H14C19254   2.438   0.161  13.855 -0.5488 -0.5462 -2.6444
  160DOPC   C1519255   2.682   0.236  13.974 -0.8409 -0.4470 -0.4424
  160DOPC  H15A19256   2.746   0.252  13.889  1.7936 -1.3596  1.2203
  160DOPC  H15B19257   2.731   0.253  14.069  0.1108  0.9632 -1.1548
  160DOPC  H15C19258   2.623   0.325  13.967 -0.0613  0.1153 -0.0148
  160DOPC   C1119259   2.668  -0.159  13.975  0.5599  0.6801 -0.1357
  160DOPC  H11A19260   2.595  -0.172  13.892 -2.3099  0.2749  2.2858
  160DOPC  H11B19261   2.750  -0.230  13.952 -2.1255 -2.6880 -0.1653
  160DOPC     P19262   2.479  -0.257  14.116  0.1256  0.1805 -0.2468
  160DOPC   O1319263   2.373  -0.156  14.086 -0.2735 -0.3619  0.0753
  160DOPC   O1419264   2.464  -0.325  14.245 -0.6613  0.0798 -0.0051
  160DOPC   O1219265   2.621  -0.187  14.102 -0.2109  0.4844 -0.1440
  160DOPC   O1119266   2.471  -0.366  14.001  0.0718 -0.6348 -0.1530
  160DOPC    C119267   2.574  -0.470  14.004 -0.1914 -0.7128  0.2286
  160DOPC    HA19268   2.588  -0.515  14.105 -3.0404  1.2645  1.6564
  160DOPC    HB19269   2.672  -0.429  13.973  0.4777 -2.1373  0.3739
  160DOPC    C219270   2.541  -0.578  13.900  0.1679  0.8365 -0.0180
  160DOPC    HS19271   2.618  -0.658  13.905  0.7277  1.3169 -0.7779
  160DOPC   O2119272   2.531  -0.527  13.767  0.6909  0.0271  0.0152
  160DOPC   C2119273   2.647  -0.490  13.710  0.3371 -0.2238 -0.2025
  160DOPC   O2219274   2.758  -0.512  13.746  0.0254  0.5586 -0.0881
  160DOPC   C2219275   2.608  -0.405  13.582 -0.0380  0.1801 -0.2054
  160DOPC   H2R19276   2.540  -0.318  13.597  0.6365  1.3972 -3.3792
  160DOPC   H2S19277   2.573  -0.483  13.511 -0.4364  1.5563 -1.5814
  160DOPC    C319278   2.405  -0.660  13.941 -0.6532 -0.0116  0.1183
  160DOPC    HX19279   2.329  -0.582  13.964  0.3420  1.7363 -2.1077
  160DOPC    HY19280   2.418  -0.707  14.041 -2.4207  0.5877  0.6773
  160DOPC   O3119281   2.378  -0.764  13.845  0.6085  0.1958  0.1117
  160DOPC   C3119282   2.275  -0.728  13.760  0.0910  0.4543  0.1280
  160DOPC   O3219283   2.219  -0.622  13.762 -0.1348 -0.2160 -0.6396
  160DOPC   C3219284   2.252  -0.847  13.664 -0.2140 -1.1363 -0.3666
  160DOPC   H2X19285   2.350  -0.875  13.620  1.2184  0.0597  1.8604
  160DOPC   H2Y19286   2.217  -0.929  13.731  1.7714 -0.3085  1.8297
  160DOPC   C2319287   2.725  -0.347  13.507 -0.7443  0.0207 -0.1509
  160DOPC   H3R19288   2.681  -0.302  13.415 -1.4972 -1.5067 -0.5659
  160DOPC   H3S19289   2.794  -0.423  13.465 -0.5401  0.1236  0.0016
  160DOPC   C2419290   2.800  -0.244  13.594 -0.0788  0.1449 -0.2150
  160DOPC   H4R19291   2.855  -0.282  13.683  1.7731  2.3339 -0.3466
  160DOPC   H4S19292   2.733  -0.167  13.639  2.5285  1.5420  1.5187
  160DOPC   C2519293   2.919  -0.172  13.519  0.0308 -0.5030 -0.4060
  160DOPC   H5R19294   2.974  -0.105  13.589 -0.3334 -2.2484  1.6622
  160DOPC   H5S19295   2.870  -0.094  13.457  0.2280 -0.2682 -0.2633
  160DOPC   C2619296   3.007  -0.261  13.439 -1.1550  0.6027  0.3368
  160DOPC   H6R19297   2.945  -0.328  13.376 -0.9472  0.7147  0.0126
  160DOPC   H6S19298   3.064  -0.312  13.520  1.0125  4.7659  1.7185
  160DOPC   C2719299   3.105  -0.190  13.352 -0.1582  1.1632  0.4428
  160DOPC   H7R19300   3.202  -0.196  13.406  0.8338 -2.5862 -1.4103
  160DOPC   H7S19301   3.082  -0.081  13.350  1.0863  1.4726  1.6836
  160DOPC   C2819302   3.126  -0.259  13.209  1.0249  0.3282  0.4547
  160DOPC   H8R19303   3.028  -0.255  13.157  0.8969 -0.7896  0.5973
  160DOPC   H8S19304   3.153  -0.365  13.228 -1.4120 -0.3572  0.4678
  160DOPC   C2919305   3.228  -0.179  13.130 -0.0848 -0.2494  0.4027
  160DOPC   H9R19306   3.296  -0.120  13.192 -0.8246 -0.3090  1.2893
  160DOPC  C21019307   3.232  -0.170  12.996  0.0665  0.0361 -0.1888
  160DOPC  H10R19308   3.316  -0.108  12.961  1.2008 -0.3707  1.6770
  160DOPC  C21119309   3.147  -0.257  12.901  0.3202  0.4102 -0.4080
  160DOPC  H11R19310   3.086  -0.337  12.947  2.9951 -2.2656 -1.1730
  160DOPC  H11S19311   3.209  -0.319  12.833 -1.8664 -1.4956 -0.7975
  160DOPC  C21219312   3.075  -0.159  12.803  0.7942 -0.0026 -0.7361
  160DOPC  H12R19313   3.150  -0.086  12.765  2.7655 -1.9215 -0.6926
  160DOPC  H12S19314   2.995  -0.093  12.844  2.1204  1.6687 -0.7275
  160DOPC  C21319315   3.011  -0.221  12.684 -0.4022 -0.5077 -0.1715
  160DOPC  H13R19316   2.909  -0.258  12.709 -1.3892  1.6208 -0.8009
  160DOPC  H13S19317   3.061  -0.307  12.635 -0.3423 -0.5171 -0.0926
  160DOPC  C21419318   2.992  -0.111  12.576 -0.0795 -0.0039  0.1319
  160DOPC  H14R19319   3.090  -0.086  12.529  0.8091  1.2271  2.4924
  160DOPC  H14S19320   2.964  -0.013  12.619 -2.7863  0.4933 -2.4332
  160DOPC  C21519321   2.874  -0.133  12.473 -0.1707  0.2103  0.6184
  160DOPC  H15R19322   2.850  -0.042  12.413  1.4872  2.0243  2.5488
  160DOPC  H15S19323   2.787  -0.168  12.533 -0.2758 -0.4902  0.0674
  160DOPC  C21619324   2.896  -0.239  12.368  1.1894 -0.3334  0.3991
  160DOPC  H16R19325   2.948  -0.323  12.419  0.7114 -0.4842  0.6435
  160DOPC  H16S19326   2.956  -0.194  12.286 -0.1596  0.3338 -0.2687
  160DOPC  C21719327   2.764  -0.301  12.308  0.5474 -0.4403  0.6862
  160DOPC  H17R19328   2.700  -0.343  12.388  1.2037  1.1445  2.0918
  160DOPC  H17S19329   2.801  -0.392  12.256  4.5069 -0.3541  2.9669
  160DOPC  C21819330   2.672  -0.199  12.231  0.2647  0.4111  0.2765
  160DOPC  H18R19331   2.593  -0.242  12.166  1.6249 -1.8749  0.0277
  160DOPC  H18S19332   2.745  -0.147  12.165  0.4032 -2.4978 -2.0855
  160DOPC  H18T19333   2.621  -0.125  12.297  2.1870  1.0013  1.1755
  160DOPC   C3319334   2.148  -0.809  13.552 -0.3856 -0.6912  0.1146
  160DOPC   H3X19335   2.201  -0.738  13.486  0.9602 -1.7573  0.0083
  160DOPC   H3Y19336   2.060  -0.760  13.601  0.4867 -0.5981  1.6515
  160DOPC   C3419337   2.103  -0.938  13.485  0.6540 -0.3515  0.2816
  160DOPC   H4X19338   2.065  -1.015  13.555  0.9039 -0.0616  0.7402
  160DOPC   H4Y19339   2.196  -0.986  13.446  0.3720 -1.5765  1.0674
  160DOPC   C3519340   2.001  -0.899  13.380  0.6575 -0.1496  0.9618
  160DOPC   H5X19341   2.049  -0.826  13.313  0.6076 -1.9797 -1.1980
  160DOPC   H5Y19342   1.916  -0.853  13.435 -0.6517 -2.5368  1.1043
  160DOPC   C3619343   1.934  -1.005  13.292 -0.2688  0.1688  0.2288
  160DOPC   H6X19344   1.997  -1.044  13.210 -1.7010 -1.9332  0.0443
  160DOPC   H6Y19345   1.907  -1.098  13.346  0.9731 -0.8794 -0.8928
  160DOPC   C3719346   1.811  -0.956  13.221  0.4235 -0.1860 -0.0142
  160DOPC   H7X19347   1.736  -0.920  13.295 -0.0971  1.8879 -1.4642
  160DOPC   H7Y19348   1.837  -0.865  13.162 -1.8590 -1.2181 -2.8674
  160DOPC   C3819349   1.737  -1.056  13.120  0.7902 -0.1128 -0.6228
  160DOPC   H8X19350   1.806  -1.063  13.033  3.1517  0.4976  1.0794
  160DOPC   H8Y19351   1.646  -0.994  13.105  0.0078 -0.6259  1.6573
  160DOPC   C3919352   1.695  -1.194  13.169 -0.3275 -0.3731  0.3063
  160DOPC   H9X19353   1.756  -1.278  13.131  1.1483 -0.3498  2.4602
  160DOPC  C31019354   1.599  -1.219  13.257  0.5181  0.2594 -0.2885
  160DOPC  H10X19355   1.576  -1.324  13.281 -1.6791  0.9765  1.0633
  160DOPC  C31119356   1.519  -1.115  13.325  0.5554 -0.3325  0.4084
  160DOPC  H11X19357   1.512  -1.022  13.264 -2.5188 -1.4683 -1.1531
  160DOPC  H11Y19358   1.571  -1.097  13.422 -0.1083 -0.3194  0.7687
  160DOPC  C31219359   1.376  -1.154  13.365 -0.6907 -0.8900 -0.3975
  160DOPC  H12X19360   1.324  -1.198  13.277 -1.8933 -2.0313  0.8344
  160DOPC  H12Y19361   1.307  -1.072  13.397 -0.8200 -1.3445  0.5139
  160DOPC  C31319362   1.377  -1.265  13.467  0.4682  0.0333 -0.3592
  160DOPC  H13X19363   1.402  -1.360  13.415  1.9169  0.3558 -0.2956
  160DOPC  H13Y19364   1.469  -1.270  13.530 -1.0429 -0.8787  1.9389
  160DOPC  C31419365   1.242  -1.279  13.543 -0.7938  0.0014 -0.5534
  160DOPC  H14X19366   1.261  -1.352  13.624 -1.1011  0.7146  0.1822
  160DOPC  H14Y19367   1.224  -1.173  13.572  0.9413  0.5629 -1.3887
  160DOPC  C31519368   1.122  -1.346  13.458 -0.1712 -0.9185  0.3152
  160DOPC  H15X19369   1.083  -1.270  13.386  2.3518 -0.1169 -0.3002
  160DOPC  H15Y19370   1.038  -1.360  13.530 -1.1988 -0.0676 -0.6699
  160DOPC  C31619371   1.162  -1.466  13.377 -0.2824 -0.0086 -0.2677
  160DOPC  H16X19372   1.069  -1.507  13.332 -0.3665  2.2362 -2.3471
  160DOPC  H16Y19373   1.221  -1.442  13.286 -2.1050  1.0142 -1.2340
  160DOPC  C31719374   1.230  -1.578  13.453 -0.4386  0.3441  0.3231
  160DOPC  H17X19375   1.335  -1.554  13.479 -0.6390  1.7017 -0.0271
  160DOPC  H17Y19376   1.174  -1.581  13.548 -0.5307  2.1491  0.3640
  160DOPC  C31819377   1.207  -1.714  13.378  0.1007  0.4251  0.7653
  160DOPC  H18X19378   1.096  -1.723  13.372 -0.0668  0.1728  3.2010
  160DOPC  H18Y19379   1.252  -1.723  13.277  0.2906 -1.1121  0.9655
  160DOPC  H18Z19380   1.250  -1.794  13.442  1.0734 -1.7381 -2.3711
  161DOPC     N19381   3.942   8.444  14.188 -0.7688  0.3474 -0.0652
  161DOPC   C1219382   3.881   8.348  14.082  0.3109 -0.2031 -0.5593
  161DOPC  H12A19383   3.956   8.331  14.006  0.2914 -0.3965 -0.5345
  161DOPC  H12B19384   3.800   8.405  14.040  0.0281  0.7877  1.2125
  161DOPC   C1319385   3.971   8.577  14.129  0.1218 -0.5691  0.6043
  161DOPC  H13A19386   4.018   8.644  14.200  0.1622  2.0483 -1.7572
  161DOPC  H13B19387   4.037   8.570  14.044 -0.7563 -0.4493 -0.0995
  161DOPC  H13C19388   3.882   8.622  14.089  1.9762  0.0192 -3.2774
  161DOPC   C1419389   4.069   8.393  14.239 -0.0365 -0.0733  0.2290
  161DOPC  H14A19390   4.148   8.385  14.166 -0.1036  0.0895  0.1379
  161DOPC  H14B19391   4.100   8.466  14.312  0.1391  0.9258 -0.8168
  161DOPC  H14C19392   4.055   8.293  14.279  1.7242  0.0750  1.3317
  161DOPC   C1519393   3.846   8.473  14.301 -0.1311 -0.0653 -0.1674
  161DOPC  H15A19394   3.818   8.376  14.338 -0.7775 -0.1027 -0.7210
  161DOPC  H15B19395   3.761   8.523  14.256  0.0227 -0.3585 -0.7927
  161DOPC  H15C19396   3.885   8.528  14.385  0.6900 -2.7215  1.3055
  161DOPC   C1119397   3.833   8.214  14.131 -0.4527  0.6272 -0.3964
  161DOPC  H11A19398   3.753   8.238  14.204 -1.2420  0.5447 -1.2115
  161DOPC  H11B19399   3.775   8.158  14.055 -1.1538 -0.8326  1.1656
  161DOPC     P19400   3.969   7.986  14.140  0.8484 -0.2053  0.1792
  161DOPC   O1319401   3.856   7.897  14.179  0.5831  0.1157 -0.0394
  161DOPC   O1419402   4.100   7.949  14.200 -0.2471 -0.1120  0.0431
  161DOPC   O1219403   3.935   8.137  14.190 -0.7294 -0.1722 -0.0239
  161DOPC   O1119404   3.981   7.999  13.981 -0.1817  0.1475  0.1154
  161DOPC    C119405   4.077   8.105  13.945  0.6667  0.2425 -0.0126
  161DOPC    HA19406   4.152   8.141  14.019  0.0550  1.6464 -0.0425
  161DOPC    HB19407   4.017   8.193  13.915 -0.8928 -0.3406  1.2453
  161DOPC    C219408   4.176   8.065  13.824  0.0073 -0.6367  0.1985
  161DOPC    HS19409   4.220   8.160  13.786 -4.7948  1.3229 -1.3205
  161DOPC   O2119410   4.110   8.002  13.711  0.2011  0.0435 -0.4556
  161DOPC   C2119411   4.026   8.086  13.650  0.5350  0.3068  0.5763
  161DOPC   O2219412   4.017   8.206  13.670 -0.3978  0.3755  0.2170
  161DOPC   C2219413   3.967   8.026  13.518 -0.7503 -0.3220 -0.5416
  161DOPC   H2R19414   3.925   8.113  13.464  2.4981  0.4117 -2.1768
  161DOPC   H2S19415   3.883   7.957  13.540 -0.5174 -0.6721 -0.7374
  161DOPC    C319416   4.286   7.965  13.879 -0.5505 -0.4913  0.2228
  161DOPC    HX19417   4.237   7.867  13.901 -1.3333 -0.0373  0.5134
  161DOPC    HY19418   4.335   7.998  13.973 -0.2327  1.0055 -0.4374
  161DOPC   O3119419   4.397   7.953  13.780  0.1972  0.4883  0.3459
  161DOPC   C3119420   4.453   7.835  13.776  0.6663  0.5780  0.2134
  161DOPC   O3219421   4.430   7.736  13.843 -0.1011 -0.3468  0.1507
  161DOPC   C3219422   4.564   7.842  13.665  0.0718 -0.2923 -0.3131
  161DOPC   H2X19423   4.607   7.740  13.672 -1.6237 -0.9028  2.2139
  161DOPC   H2Y19424   4.530   7.860  13.561  2.5416 -0.1899 -1.1882
  161DOPC   C2319425   4.072   7.965  13.428  0.3342 -0.5076 -0.2866
  161DOPC   H3R19426   4.014   7.890  13.370  0.1148 -0.5216 -0.0513
  161DOPC   H3S19427   4.152   7.913  13.484 -1.1750 -0.1395  2.4189
  161DOPC   C2419428   4.123   8.076  13.338 -0.5862 -0.1488  0.8777
  161DOPC   H4R19429   4.045   8.153  13.319 -0.0731 -0.1074 -1.3032
  161DOPC   H4S19430   4.147   8.030  13.240  1.6083  3.7001 -0.6426
  161DOPC   C2519431   4.253   8.146  13.388 -0.0822  0.4030  0.1870
  161DOPC   H5R19432   4.333   8.079  13.426  0.0907 -0.3306 -1.4009
  161DOPC   H5S19433   4.220   8.198  13.480  0.7157  1.4372 -0.0922
  161DOPC   C2619434   4.301   8.254  13.287 -0.0887 -0.1894  0.0567
  161DOPC   H6R19435   4.213   8.312  13.252 -0.5553 -1.2485 -0.5622
  161DOPC   H6S19436   4.331   8.183  13.207 -0.4641 -0.6141  0.2879
  161DOPC   C2719437   4.416   8.332  13.349 -0.2338  0.9234 -0.2865
  161DOPC   H7R19438   4.495   8.269  13.396  0.0772  0.0926 -1.8365
  161DOPC   H7S19439   4.373   8.386  13.436 -0.4577  0.5095 -0.1326
  161DOPC   C2819440   4.472   8.437  13.249 -0.0873  0.3952  0.8699
  161DOPC   H8R19441   4.541   8.378  13.185 -0.0624 -1.5037  2.5465
  161DOPC   H8S19442   4.526   8.499  13.324 -0.0589 -1.1327  2.1680
  161DOPC   C2919443   4.380   8.541  13.180  0.3404 -0.1900  0.2138
  161DOPC   H9R19444   4.315   8.582  13.258  0.8627 -0.7258  0.9406
  161DOPC  C21019445   4.379   8.580  13.053  0.2906 -0.7065  0.5740
  161DOPC  H10R19446   4.307   8.656  13.021  0.6395  0.0179  1.4859
  161DOPC  C21119447   4.477   8.536  12.946 -0.1188  0.3383  0.1431
  161DOPC  H11R19448   4.550   8.456  12.970  0.1042  0.5738  0.2500
  161DOPC  H11S19449   4.528   8.632  12.927  1.0972 -0.5489 -1.3384
  161DOPC  C21219450   4.383   8.473  12.827  0.1393  0.7053  0.0772
  161DOPC  H12R19451   4.307   8.399  12.859 -0.4238  0.8720 -0.8430
  161DOPC  H12S19452   4.448   8.414  12.760 -2.5629 -0.6877 -1.5008
  161DOPC  C21319453   4.300   8.580  12.747 -0.1120  0.0615  0.2105
  161DOPC  H13R19454   4.215   8.609  12.813  0.4567  0.4580  0.7816
  161DOPC  H13S19455   4.266   8.523  12.658 -1.0366  2.3431 -0.9921
  161DOPC  C21419456   4.396   8.690  12.700 -0.3508  0.0057  0.7506
  161DOPC  H14R19457   4.484   8.635  12.661 -0.1318 -0.6881  2.1311
  161DOPC  H14S19458   4.426   8.757  12.783 -1.4303  0.1880  1.0191
  161DOPC  C21519459   4.341   8.779  12.584  0.4593  0.1232 -0.0926
  161DOPC  H15R19460   4.275   8.858  12.626  0.1408  1.0028 -2.1748
  161DOPC  H15S19461   4.282   8.721  12.510  1.3190 -0.0725 -0.6389
  161DOPC  C21619462   4.448   8.853  12.509 -0.3316 -0.8226 -0.6629
  161DOPC  H16R19463   4.515   8.776  12.465  0.4577 -0.9255  0.6664
  161DOPC  H16S19464   4.499   8.918  12.584 -2.1732  0.6790 -0.6231
  161DOPC  C21719465   4.386   8.937  12.394  0.6640  0.1863 -0.0836
  161DOPC  H17R19466   4.294   8.988  12.430  0.5093  0.2575 -0.5733
  161DOPC  H17S19467   4.344   8.874  12.313  1.2525 -0.4732  0.1101
  161DOPC  C21819468   4.466   9.036  12.308 -0.1458 -0.0034 -0.1549
  161DOPC  H18R19469   4.410   9.085  12.225 -0.1854 -0.5821 -0.4717
  161DOPC  H18S19470   4.551   8.978  12.266  1.4597  2.1719 -0.0823
  161DOPC  H18T19471   4.520   9.112  12.367 -3.5843  1.2882  1.5890
  161DOPC   C3319472   4.671   7.954  13.691  0.4404 -0.5056 -0.5562
  161DOPC   H3X19473   4.734   7.928  13.779  2.9974 -1.7338 -2.6011
  161DOPC   H3Y19474   4.629   8.055  13.711  1.8617  0.3396 -1.5843
  161DOPC   C3419475   4.771   7.966  13.579  0.0845  0.2460 -0.3490
  161DOPC   H4X19476   4.822   7.868  13.571 -0.0824  0.2706 -2.2047
  161DOPC   H4Y19477   4.852   8.038  13.605  0.5110 -1.0416  2.1989
  161DOPC   C3519478   4.708   8.004  13.444 -0.3800  0.3188  0.1650
  161DOPC   H5X19479   4.640   8.089  13.463 -0.7868  0.6434 -2.3383
  161DOPC   H5Y19480   4.649   7.930  13.385 -0.1667  0.5267 -0.3161
  161DOPC   C3619481   4.823   8.040  13.351  0.1474  0.0103 -0.1761
  161DOPC   H6X19482   4.889   8.119  13.394 -2.3638  2.4295 -0.5027
  161DOPC   H6Y19483   4.890   7.955  13.327  2.4339  1.0232  2.1416
  161DOPC   C3719484   4.776   8.098  13.211 -0.2076 -0.3666  0.1211
  161DOPC   H7X19485   4.708   8.027  13.159  2.5753 -2.0684 -1.4097
  161DOPC   H7Y19486   4.708   8.185  13.228  0.7311 -0.0142  2.5848
  161DOPC   C3819487   4.892   8.132  13.116 -0.0460  0.0478 -0.6158
  161DOPC   H8X19488   4.965   8.189  13.178 -0.9822 -1.0675  1.6146
  161DOPC   H8Y19489   4.857   8.209  13.044  0.2318 -0.6601 -1.5249
  161DOPC   C3919490   4.957   8.017  13.053 -0.0189  0.0433  0.2315
  161DOPC   H9X19491   5.026   7.972  13.126 -1.9708  1.1115  2.8543
  161DOPC  C31019492   4.955   7.967  12.930  0.2461  0.2651  0.1420
  161DOPC  H10X19493   5.018   7.883  12.897  3.0180  1.1682  2.7070
  161DOPC  C31119494   4.877   8.024  12.817 -0.1192 -0.0764 -0.0235
  161DOPC  H11X19495   4.797   8.096  12.844  0.3096  0.4883 -0.2363
  161DOPC  H11Y19496   4.829   7.937  12.769 -1.8769  0.7843  0.1027
  161DOPC  C31219497   4.955   8.105  12.711  0.1914 -0.4599 -0.1320
  161DOPC  H12X19498   5.030   8.038  12.666 -0.4273 -1.5701  0.4465
  161DOPC  H12Y19499   5.028   8.176  12.757 -0.8324  0.2176  0.5027
  161DOPC  C31319500   4.866   8.167  12.600  0.8247 -0.4589  0.2656
  161DOPC  H13X19501   4.824   8.083  12.540  0.5887  0.4122 -0.8122
  161DOPC  H13Y19502   4.779   8.214  12.651 -0.5762 -2.0389 -0.5833
  161DOPC  C31419503   4.944   8.262  12.508 -0.3703 -0.7603  0.4089
  161DOPC  H14X19504   4.996   8.334  12.575 -0.6685  0.5240 -0.6916
  161DOPC  H14Y19505   5.020   8.200  12.455 -0.3824  0.4428 -1.0684
  161DOPC  C31519506   4.854   8.342  12.415 -0.7907 -0.4950  0.5023
  161DOPC  H15X19507   4.779   8.400  12.474 -1.0435  2.4565 -2.4255
  161DOPC  H15Y19508   4.795   8.280  12.344 -0.5113 -0.8083  0.5451
  161DOPC  C31619509   4.930   8.447  12.333 -0.1681  0.1256 -0.1013
  161DOPC  H16X19510   4.847   8.496  12.278 -2.0843 -1.0682  1.5676
  161DOPC  H16Y19511   4.985   8.514  12.403  1.9364 -1.9044  0.3232
  161DOPC  C31719512   5.038   8.405  12.236 -0.4487  0.8747  0.3130
  161DOPC  H17X19513   5.083   8.495  12.189 -0.6096  1.5858  1.4788
  161DOPC  H17Y19514   5.115   8.355  12.299  1.5813  1.0308 -1.8570
  161DOPC  C31819515   5.004   8.302  12.129 -0.0871 -0.1076  0.1163
  161DOPC  H18X19516   5.097   8.261  12.085 -0.2003  0.1707 -0.3926
  161DOPC  H18Y19517   4.940   8.217  12.161  0.4322 -0.9385 -0.9788
  161DOPC  H18Z19518   4.942   8.354  12.053  0.2166 -0.4534 -0.3684
  162DOPC     N19519   0.982   6.925  14.171 -0.4401 -0.1633  0.2198
  162DOPC   C1219520   1.015   6.931  14.021  0.2139 -0.4400  0.5476
  162DOPC  H12A19521   1.032   7.035  14.000  2.7782 -0.6908  1.0378
  162DOPC  H12B19522   0.927   6.911  13.961  1.0394 -2.1234 -0.1819
  162DOPC   C1319523   0.878   7.024  14.206  0.1953  0.1419 -0.0975
  162DOPC  H13A19524   0.903   7.128  14.187 -0.4820  0.3362  0.0432
  162DOPC  H13B19525   0.794   7.006  14.142  1.3968  0.6277 -1.8838
  162DOPC  H13C19526   0.852   7.026  14.311  0.5488  1.7371 -0.0143
  162DOPC   C1419527   1.110   6.944  14.252 -0.2426 -0.5472  0.0933
  162DOPC  H14A19528   1.094   6.913  14.354 -3.3799  0.3364 -0.0533
  162DOPC  H14B19529   1.185   6.878  14.210  0.9117  0.7402  0.0516
  162DOPC  H14C19530   1.146   7.046  14.254  0.3249 -0.6912  3.4775
  162DOPC   C1519531   0.934   6.789  14.201 -0.1485  0.1657 -0.4862
  162DOPC  H15A19532   0.853   6.751  14.140 -1.9376 -0.0506  1.9007
  162DOPC  H15B19533   0.899   6.798  14.302  1.6380  0.5043  0.1346
  162DOPC  H15C19534   1.009   6.713  14.190  0.0336  0.1278  0.8638
  162DOPC   C1119535   1.123   6.844  13.968  0.3619  0.0984  0.1725
  162DOPC  H11A19536   1.104   6.745  14.015 -1.5826  0.3570  0.0005
  162DOPC  H11B19537   1.126   6.837  13.857 -0.4067  1.1477  0.0833
  162DOPC     P19538   1.370   6.818  14.029  0.2098  0.0172 -0.2711
  162DOPC   O1319539   1.328   6.687  14.073  0.0185  0.1969  0.1989
  162DOPC   O1419540   1.451   6.895  14.125  0.4993 -0.1712 -0.1201
  162DOPC   O1219541   1.250   6.908  14.002 -0.1391  0.6077 -0.3823
  162DOPC   O1119542   1.449   6.808  13.893  0.2736  0.5767  0.7636
  162DOPC    C119543   1.470   6.921  13.809  0.3835 -0.0465  0.3126
  162DOPC    HA19544   1.493   7.018  13.858 -2.0240  1.7324 -1.8572
  162DOPC    HB19545   1.382   6.936  13.743 -0.8747 -0.2825  1.8887
  162DOPC    C219546   1.602   6.914  13.715 -0.2748 -0.0707  0.0238
  162DOPC    HS19547   1.610   7.019  13.681  1.2587 -0.5689 -1.2644
  162DOPC   O2119548   1.587   6.817  13.611  0.3386  0.3415  0.2451
  162DOPC   C2119549   1.658   6.845  13.508  0.0883 -0.2200  0.0546
  162DOPC   O2219550   1.734   6.942  13.496  0.6772  0.5939  0.0160
  162DOPC   C2219551   1.648   6.724  13.407  0.5649 -0.4599  0.2678
  162DOPC   H2R19552   1.559   6.660  13.423  2.2124 -3.0716 -0.4767
  162DOPC   H2S19553   1.745   6.670  13.416  1.8698  1.6611 -0.3797
  162DOPC    C319554   1.723   6.887  13.805 -0.3324 -0.2738  0.6227
  162DOPC    HX19555   1.715   6.956  13.891 -1.3130  0.8366 -0.3179
  162DOPC    HY19556   1.821   6.907  13.755 -1.5419  0.5221 -1.5663
  162DOPC   O3119557   1.718   6.750  13.852 -0.2500 -0.1599 -0.2675
  162DOPC   C3119558   1.796   6.667  13.780 -0.7564  0.0907 -0.2044
  162DOPC   O3219559   1.861   6.695  13.681 -0.1758  0.5071 -0.0946
  162DOPC   C3219560   1.775   6.524  13.823 -0.4942  0.1517  0.0376
  162DOPC   H2X19561   1.808   6.505  13.928 -0.6856 -0.2202  0.0299
  162DOPC   H2Y19562   1.665   6.517  13.826 -0.7367  2.8955  1.9534
  162DOPC   C2319563   1.661   6.772  13.262  0.1405 -0.1239  0.2647
  162DOPC   H3R19564   1.707   6.692  13.200 -0.5345 -1.4348  1.4030
  162DOPC   H3S19565   1.737   6.854  13.259  1.5109 -1.3781 -2.0443
  162DOPC   C2419566   1.539   6.834  13.192  0.5147 -0.0275  0.1149
  162DOPC   H4R19567   1.494   6.908  13.262 -0.4584 -0.4028 -0.1037
  162DOPC   H4S19568   1.462   6.756  13.174 -0.7802  0.8870  1.4500
  162DOPC   C2519569   1.579   6.879  13.051 -0.4636 -0.0833 -0.2876
  162DOPC   H5R19570   1.634   6.796  13.001  1.4198 -0.0634  1.6186
  162DOPC   H5S19571   1.647   6.964  13.078 -0.2748 -0.8938  2.0072
  162DOPC   C2619572   1.453   6.942  12.986  0.5877 -0.5405  0.4317
  162DOPC   H6R19573   1.427   7.030  13.049  2.7515  0.8722 -0.5325
  162DOPC   H6S19574   1.385   6.854  12.984 -1.6655  1.0151  2.5394
  162DOPC   C2719575   1.482   6.981  12.842 -0.4743 -0.2002  0.6487
  162DOPC   H7R19576   1.523   6.895  12.785 -0.0403  0.0269  0.6139
  162DOPC   H7S19577   1.553   7.067  12.836 -1.6769  0.7456 -1.0682
  162DOPC   C2819578   1.349   7.017  12.766 -0.3429 -0.6149  0.0733
  162DOPC   H8R19579   1.310   7.111  12.809  2.7237  0.6830  0.2887
  162DOPC   H8S19580   1.278   6.938  12.797  1.0101 -1.4420  1.1760
  162DOPC   C2919581   1.390   7.050  12.618  0.5167  0.2465 -0.6370
  162DOPC   H9R19582   1.439   7.149  12.614 -0.3942  0.9774  2.8645
  162DOPC  C21019583   1.360   6.972  12.512  0.1046 -0.3020 -0.3870
  162DOPC  H10R19584   1.394   7.008  12.414 -1.3455 -1.8356 -1.5134
  162DOPC  C21119585   1.309   6.826  12.516  0.4354 -0.1578 -0.3677
  162DOPC  H11R19586   1.334   6.790  12.618  3.3818  2.2607 -0.0850
  162DOPC  H11S19587   1.378   6.775  12.445  1.2552  0.0872  0.2279
  162DOPC  C21219588   1.156   6.834  12.483 -0.1836 -0.1397 -0.0055
  162DOPC  H12R19589   1.104   6.877  12.571  1.1541 -0.2670  0.8666
  162DOPC  H12S19590   1.130   6.728  12.463 -1.9776  0.1626  0.5659
  162DOPC  C21319591   1.121   6.915  12.362 -1.1504  0.1043 -0.2601
  162DOPC  H13R19592   1.194   6.883  12.285 -0.1231 -0.8729  1.0587
  162DOPC  H13S19593   1.127   7.024  12.383  0.2498  0.7987 -3.6768
  162DOPC  C21419594   0.976   6.895  12.312 -0.0534  0.2144  0.3925
  162DOPC  H14R19595   0.950   6.788  12.304  1.6897 -0.2571  0.6986
  162DOPC  H14S19596   0.967   6.942  12.212 -2.4133  0.6964  0.7748
  162DOPC  C21519597   0.890   6.974  12.399 -0.3953 -0.0507 -0.4606
  162DOPC  H15R19598   0.936   7.073  12.420 -0.2347 -0.1263 -0.4573
  162DOPC  H15S19599   0.878   6.918  12.494 -0.4742 -0.4662 -0.7124
  162DOPC  C21619600   0.748   7.002  12.347 -0.6726  0.5262 -0.5592
  162DOPC  H16R19601   0.681   7.016  12.435 -2.0273  1.3456 -1.6871
  162DOPC  H16S19602   0.719   6.912  12.289 -0.8799 -0.1224  0.5210
  162DOPC  C21719603   0.734   7.122  12.249 -0.0922 -0.2132 -0.6858
  162DOPC  H17R19604   0.805   7.103  12.165 -1.7006  0.1558 -2.1769
  162DOPC  H17S19605   0.768   7.217  12.296  0.6300 -0.9803  0.3817
  162DOPC  C21819606   0.592   7.133  12.185  0.0506  0.6264  0.6186
  162DOPC  H18R19607   0.582   7.238  12.150 -0.5540  0.5641  0.6054
  162DOPC  H18S19608   0.527   7.110  12.272  0.9476 -2.4950  0.5728
  162DOPC  H18T19609   0.574   7.060  12.103 -2.3604  0.0803  1.5628
  162DOPC   C3319610   1.846   6.433  13.722  0.6840  0.3753  0.5659
  162DOPC   H3X19611   1.954   6.458  13.725  0.3217  2.1133  0.3379
  162DOPC   H3Y19612   1.816   6.455  13.617  1.5633  0.5743  0.3500
  162DOPC   C3419613   1.824   6.280  13.746 -0.2798 -0.1494 -0.3675
  162DOPC   H4X19614   1.736   6.275  13.813  1.3396 -1.0202  1.8383
  162DOPC   H4Y19615   1.904   6.244  13.814 -1.0730 -0.0628  0.6407
  162DOPC   C3519616   1.816   6.197  13.620 -0.2194 -0.6510 -0.7099
  162DOPC   H5X19617   1.902   6.238  13.564 -1.0712  1.3795 -0.6257
  162DOPC   H5Y19618   1.720   6.219  13.568  0.3911  2.8591 -0.5998
  162DOPC   C3619619   1.839   6.048  13.648  0.8990 -0.5439  0.7685
  162DOPC   H6X19620   1.875   6.005  13.552  1.9758 -0.1453  0.9886
  162DOPC   H6Y19621   1.920   6.030  13.722 -1.0916 -0.0443  3.2180
  162DOPC   C3719622   1.712   5.987  13.704  0.1513 -0.8214 -0.0709
  162DOPC   H7X19623   1.738   5.913  13.783 -1.4508 -1.9911 -0.5822
  162DOPC   H7Y19624   1.666   6.070  13.761  0.4846 -2.4084  2.7335
  162DOPC   C3819625   1.624   5.923  13.596  0.3671 -0.1135  0.6303
  162DOPC   H8X19626   1.599   6.005  13.525  0.8787  0.5348  1.1789
  162DOPC   H8Y19627   1.529   5.893  13.645  0.8596  1.2298  2.5321
  162DOPC   C3919628   1.686   5.807  13.522  0.0550 -0.0341 -0.3418
  162DOPC   H9X19629   1.738   5.735  13.587  2.2802  1.2217 -0.6363
  162DOPC  C31019630   1.687   5.789  13.390  0.5319  0.0811  0.3441
  162DOPC  H10X19631   1.731   5.697  13.349  0.5204 -0.4401  1.4501
  162DOPC  C31119632   1.628   5.884  13.284 -0.4790 -0.4731 -0.8712
  162DOPC  H11X19633   1.710   5.945  13.241  0.4229 -1.4083 -0.5148
  162DOPC  H11Y19634   1.554   5.951  13.334  0.7013  0.7627 -0.7188
  162DOPC  C31219635   1.547   5.824  13.169 -0.4037 -0.0319  0.9293
  162DOPC  H12X19636   1.479   5.750  13.217  1.3511 -1.3045  1.5669
  162DOPC  H12Y19637   1.613   5.775  13.094  0.4497  0.2359  1.4874
  162DOPC  C31319638   1.459   5.923  13.094  0.3000  0.1167  0.0585
  162DOPC  H13X19639   1.400   5.856  13.029 -0.1109  1.3473 -0.8695
  162DOPC  H13Y19640   1.391   5.979  13.161  1.6519  1.1712  0.6148
  162DOPC  C31419641   1.537   6.028  13.018  0.6820  1.0585 -0.5597
  162DOPC  H14X19642   1.465   6.104  12.979 -0.5974 -0.1623 -0.6691
  162DOPC  H14Y19643   1.594   6.082  13.096  2.1620 -0.9674 -0.1573
  162DOPC  C31519644   1.628   5.981  12.902  0.2222 -0.4490  0.4377
  162DOPC  H15X19645   1.571   5.920  12.828 -2.7775  0.4208  1.8851
  162DOPC  H15Y19646   1.709   5.914  12.940  0.7081  0.1026  0.3887
  162DOPC  C31619647   1.690   6.105  12.829  0.1923 -0.8513 -0.7441
  162DOPC  H16X19648   1.619   6.190  12.838 -0.0510 -1.1848  0.7409
  162DOPC  H16Y19649   1.783   6.137  12.882 -0.9646  0.1500  0.7779
  162DOPC  C31719650   1.699   6.094  12.684  0.7423  0.2481  0.6314
  162DOPC  H17X19651   1.724   5.993  12.646  1.1029  0.6143 -0.1335
  162DOPC  H17Y19652   1.597   6.109  12.643  0.8754  0.2338  0.2862
  162DOPC  C31819653   1.797   6.201  12.625  0.0278 -0.0556  1.0543
  162DOPC  H18X19654   1.787   6.205  12.514 -0.9613  2.7348  1.1487
  162DOPC  H18Y19655   1.772   6.302  12.666 -1.5414 -0.0389  0.1544
  162DOPC  H18Z19656   1.903   6.187  12.654 -0.0110  0.1254  1.2872
  163DOPC     N19657   1.048   2.633  13.749 -0.1363 -0.5676 -0.3250
  163DOPC   C1219658   0.927   2.568  13.825 -0.4935  0.0927 -0.3179
  163DOPC  H12A19659   0.942   2.580  13.931 -0.0639 -0.2464 -0.3346
  163DOPC  H12B19660   0.945   2.462  13.810 -1.3739  0.1889 -2.4359
  163DOPC   C1319661   1.051   2.783  13.770  0.0225 -1.2673 -0.0447
  163DOPC  H13A19662   1.050   2.809  13.874 -0.1099  1.6011 -0.6932
  163DOPC  H13B19663   1.130   2.838  13.720 -0.3359 -0.6557  0.0576
  163DOPC  H13C19664   0.958   2.820  13.731  1.1520  0.7779 -0.9303
  163DOPC   C1419665   1.034   2.618  13.602  1.0239 -0.3026 -0.4204
  163DOPC  H14A19666   1.116   2.665  13.550  0.2391  1.5118 -0.0735
  163DOPC  H14B19667   1.027   2.511  13.585 -0.1202 -0.4245  0.7067
  163DOPC  H14C19668   0.941   2.663  13.570  2.3164  2.6095 -0.3609
  163DOPC   C1519669   1.176   2.581  13.797  0.3681 -0.0195  0.4413
  163DOPC  H15A19670   1.212   2.491  13.749  1.9153  0.2516  1.0248
  163DOPC  H15B19671   1.184   2.564  13.903  1.6863 -0.3362  0.3158
  163DOPC  H15C19672   1.249   2.656  13.768  0.8045 -0.0351  1.4708
  163DOPC   C1119673   0.788   2.611  13.789 -0.3178 -0.3233 -0.2817
  163DOPC  H11A19674   0.784   2.581  13.682  2.6128 -1.1591 -0.2461
  163DOPC  H11B19675   0.703   2.552  13.830 -1.0934  0.1833 -1.1164
  163DOPC     P19676   0.706   2.823  13.921  0.2025 -0.7996 -0.4819
  163DOPC   O1319677   0.735   2.970  13.927  0.1173  0.4121  0.7921
  163DOPC   O1419678   0.755   2.754  14.040  0.0319 -0.1954 -0.0987
  163DOPC   O1219679   0.772   2.755  13.794  0.2629  0.2946 -0.3278
  163DOPC   O1119680   0.550   2.794  13.909  0.6202  0.0867  0.1032
  163DOPC    C119681   0.489   2.772  13.778 -0.3379  0.1182 -0.5931
  163DOPC    HA19682   0.385   2.738  13.794 -0.3726  0.8458  0.8326
  163DOPC    HB19683   0.539   2.687  13.728  2.0994  0.9081  0.3522
  163DOPC    C219684   0.474   2.893  13.691  0.0348 -0.0439  0.6471
  163DOPC    HS19685   0.410   2.868  13.604 -0.2694 -1.5839  1.2814
  163DOPC   O2119686   0.599   2.942  13.651 -0.1546  0.8543  0.4376
  163DOPC   C2119687   0.652   2.889  13.542 -0.1009 -0.4971 -0.1861
  163DOPC   O2219688   0.596   2.816  13.461 -0.8684 -0.1233 -0.1594
  163DOPC   C2219689   0.801   2.933  13.522  0.1483  0.3125  0.1377
  163DOPC   H2R19690   0.861   2.853  13.570  0.4269  1.3186  1.5339
  163DOPC   H2S19691   0.833   3.031  13.564  1.0466  0.1390 -0.1109
  163DOPC    C319692   0.400   3.018  13.764  0.3028  0.6813  0.3247
  163DOPC    HX19693   0.466   3.036  13.852  2.2051 -3.1517 -0.1210
  163DOPC    HY19694   0.296   3.003  13.801  0.3432  1.2727  0.6950
  163DOPC   O3119695   0.389   3.132  13.675 -0.3420  0.2736  0.2102
  163DOPC   C3119696   0.286   3.131  13.586 -0.0503  0.3995 -0.3879
  163DOPC   O3219697   0.220   3.033  13.554  0.0242  0.1873 -0.0133
  163DOPC   C3219698   0.299   3.265  13.512  0.6600  1.2057 -0.3095
  163DOPC   H2X19699   0.203   3.297  13.466  0.4449  0.0690 -0.6912
  163DOPC   H2Y19700   0.332   3.347  13.580  0.3555  2.8304 -2.0288
  163DOPC   C2319701   0.851   2.953  13.381  0.2116 -0.3676 -0.2913
  163DOPC   H3R19702   0.859   2.860  13.319 -3.0166  0.3091 -1.9131
  163DOPC   H3S19703   0.954   2.994  13.375  0.9893 -2.1355  0.0835
  163DOPC   C2419704   0.764   3.053  13.306  0.2524 -0.3838  0.9194
  163DOPC   H4R19705   0.782   3.147  13.363  1.5059 -0.6283  0.9602
  163DOPC   H4S19706   0.654   3.037  13.306  0.0414  0.9556  1.4132
  163DOPC   C2519707   0.818   3.060  13.162 -0.6597 -0.2256  0.8872
  163DOPC   H5R19708   0.928   3.046  13.163 -0.7009 -1.6616 -2.0278
  163DOPC   H5S19709   0.800   3.157  13.112 -3.1520 -0.9727  0.1851
  163DOPC   C2619710   0.752   2.963  13.061  0.4068 -0.0455  0.7463
  163DOPC   H6R19711   0.648   2.988  13.030 -0.1568  0.0582  2.6368
  163DOPC   H6S19712   0.741   2.867  13.116  1.6337  1.1590  3.2486
  163DOPC   C2719713   0.838   2.939  12.936  0.4467  0.5605 -0.3224
  163DOPC   H7R19714   0.934   2.891  12.964 -0.6240 -1.1715  0.5745
  163DOPC   H7S19715   0.852   3.033  12.880 -2.4617  1.4843  0.3433
  163DOPC   C2819716   0.761   2.845  12.840  0.0688  0.6483  0.0795
  163DOPC   H8R19717   0.654   2.877  12.833 -0.5325 -1.3633 -0.8191
  163DOPC   H8S19718   0.752   2.747  12.892 -1.0557  0.8850  0.3671
  163DOPC   C2919719   0.813   2.829  12.703 -0.7341  0.5588  0.0556
  163DOPC   H9R19720   0.912   2.781  12.706 -1.3403 -0.7889 -0.7187
  163DOPC  C21019721   0.771   2.881  12.586 -0.3695 -0.1934 -0.1584
  163DOPC  H10R19722   0.820   2.855  12.492 -2.5327 -3.0255 -0.6230
  163DOPC  C21119723   0.652   2.978  12.564 -0.4693  0.4121 -0.5665
  163DOPC  H11R19724   0.673   3.048  12.481  1.4687 -0.8154 -1.1812
  163DOPC  H11S19725   0.624   3.040  12.652  2.1841  1.1979 -0.1924
  163DOPC  C21219726   0.541   2.886  12.524 -0.7717 -0.0093 -0.7718
  163DOPC  H12R19727   0.509   2.828  12.613 -1.6970  0.4561 -0.7916
  163DOPC  H12S19728   0.561   2.822  12.435 -0.6889  0.4446 -1.0849
  163DOPC  C21319729   0.422   2.969  12.482 -0.3610 -0.7347  0.1182
  163DOPC  H13R19730   0.408   3.062  12.542 -1.6315 -0.2890 -0.8273
  163DOPC  H13S19731   0.324   2.917  12.491 -0.7343  0.2194  2.7369
  163DOPC  C21419732   0.429   2.992  12.330  1.0107 -0.3007  0.5555
  163DOPC  H14R19733   0.430   2.892  12.282 -4.0802 -0.7466  0.8176
  163DOPC  H14S19734   0.512   3.057  12.295  0.1060 -0.3744 -1.9858
  163DOPC  C21519735   0.291   3.046  12.267  0.6863  0.3633  0.0647
  163DOPC  H15R19736   0.256   3.142  12.310  2.7940  2.0447 -1.7049
  163DOPC  H15S19737   0.218   2.964  12.283  0.1458  1.0086  1.0319
  163DOPC  C21619738   0.318   3.077  12.118 -0.2006 -0.4817 -0.4169
  163DOPC  H16R19739   0.376   2.996  12.067  1.4419 -0.8871  1.9448
  163DOPC  H16S19740   0.399   3.152  12.121 -0.4945 -0.2022  1.8646
  163DOPC  C21719741   0.193   3.121  12.039 -0.2207 -0.1898  0.1211
  163DOPC  H17R19742   0.145   3.213  12.080  0.2126  0.5946 -1.0682
  163DOPC  H17S19743   0.120   3.038  12.039 -0.3702 -0.3731 -4.8700
  163DOPC  C21819744   0.232   3.161  11.894  0.7196  0.0598 -0.3089
  163DOPC  H18R19745   0.301   3.248  11.898  0.1689  0.4657  1.3123
  163DOPC  H18S19746   0.149   3.172  11.821  1.0278  1.4644 -0.4838
  163DOPC  H18T19747   0.297   3.083  11.851 -0.0270 -0.4066 -0.6066
  163DOPC   C3319748   0.399   3.247  13.392 -0.5406 -0.2140 -0.1719
  163DOPC   H3X19749   0.366   3.149  13.352  1.2270 -1.0833  0.3758
  163DOPC   H3Y19750   0.506   3.238  13.422 -0.7119 -1.6153  0.0423
  163DOPC   C3419751   0.374   3.360  13.286 -0.2081  0.2581 -0.4393
  163DOPC   H4X19752   0.425   3.456  13.310 -0.5616  1.0556 -2.6226
  163DOPC   H4Y19753   0.266   3.382  13.295  0.5447  4.4042  0.9359
  163DOPC   C3519754   0.419   3.320  13.146 -1.0020 -0.2043 -0.3778
  163DOPC   H5X19755   0.350   3.347  13.064 -0.0400 -1.5276 -1.6702
  163DOPC   H5Y19756   0.411   3.210  13.151  1.1970 -0.3801  0.1210
  163DOPC   C3619757   0.572   3.364  13.113  0.5231 -0.2521 -0.0265
  163DOPC   H6X19758   0.565   3.474  13.123 -1.5815 -0.3849  0.4958
  163DOPC   H6Y19759   0.643   3.316  13.183 -0.3025 -0.1361  0.9127
  163DOPC   C3719760   0.608   3.322  12.961 -0.2366  0.5451 -0.2338
  163DOPC   H7X19761   0.606   3.211  12.953 -2.9610  0.6378 -2.0424
  163DOPC   H7Y19762   0.522   3.363  12.905 -0.0117  1.2835 -0.0448
  163DOPC   C3819763   0.743   3.366  12.911 -0.6408  0.9303  0.3107
  163DOPC   H8X19764   0.760   3.312  12.816  0.5405  1.1692  0.3681
  163DOPC   H8Y19765   0.836   3.343  12.967 -0.4436 -1.9620 -1.0376
  163DOPC   C3919766   0.737   3.509  12.883 -0.3649  0.1334  0.7122
  163DOPC   H9X19767   0.764   3.571  12.969 -1.2955  0.8102  0.5220
  163DOPC  C31019768   0.704   3.566  12.766 -0.3259  0.0416  0.5974
  163DOPC  H10X19769   0.683   3.674  12.770 -2.3294 -0.3483  3.6456
  163DOPC  C31119770   0.681   3.497  12.627 -0.5274  0.4050 -0.3912
  163DOPC  H11X19771   0.648   3.563  12.544  1.5988 -0.3910 -1.9463
  163DOPC  H11Y19772   0.609   3.414  12.645 -0.7181  1.1656  2.8890
  163DOPC  C31219773   0.807   3.429  12.567 -0.9008 -0.1434  0.0055
  163DOPC  H12X19774   0.862   3.382  12.651 -1.6236  0.9866  1.1379
  163DOPC  H12Y19775   0.870   3.511  12.527 -0.7473  0.1382  0.8262
  163DOPC  C31319776   0.781   3.328  12.458  0.5220 -0.5076 -0.6622
  163DOPC  H13X19777   0.772   3.225  12.498 -0.5123 -1.1970 -2.5362
  163DOPC  H13Y19778   0.680   3.346  12.415 -1.2204 -1.8011  2.5677
  163DOPC  C31419779   0.879   3.331  12.339 -0.3711 -0.2465 -0.0726
  163DOPC  H14X19780   0.981   3.297  12.367 -0.4575  0.4526  1.1962
  163DOPC  H14Y19781   0.854   3.257  12.260  0.4887 -0.2773 -0.3225
  163DOPC  C31519782   0.892   3.468  12.264 -0.2317  0.0850  0.0729
  163DOPC  H15X19783   0.884   3.546  12.342  0.2065 -0.8085  1.0431
  163DOPC  H15Y19784   0.794   3.483  12.213 -0.3412 -1.2006 -0.1339
  163DOPC  C31619785   1.024   3.494  12.193  0.6537  0.1117  0.4003
  163DOPC  H16X19786   1.016   3.591  12.140  1.3722  1.2052  2.1898
  163DOPC  H16Y19787   1.103   3.513  12.269  1.6058  0.5015 -0.6541
  163DOPC  C31719788   1.070   3.381  12.098  0.4061 -0.1598 -0.2635
  163DOPC  H17X19789   1.095   3.290  12.158 -1.3794  0.6575  1.8692
  163DOPC  H17Y19790   0.998   3.361  12.016  0.2832 -2.6166  0.3609
  163DOPC  C31819791   1.202   3.414  12.027 -0.4787 -0.1603 -0.3184
  163DOPC  H18X19792   1.184   3.503  11.962 -1.9227  0.8648  1.3551
  163DOPC  H18Y19793   1.271   3.448  12.107 -1.7862 -0.1865  0.8648
  163DOPC  H18Z19794   1.235   3.328  11.965 -2.2363 -2.7339  2.0701
  164DOPC     N19795   1.212   1.848  14.412 -0.0363 -0.0637  0.1220
  164DOPC   C1219796   1.140   1.883  14.276 -0.8124  0.4182  0.4168
  164DOPC  H12A19797   1.158   1.988  14.264  1.3166  0.0369 -0.0162
  164DOPC  H12B19798   1.033   1.875  14.289 -0.7445 -0.4484  0.5054
  164DOPC   C1319799   1.352   1.899  14.408 -1.1587 -0.3030 -0.0560
  164DOPC  H13A19800   1.361   2.006  14.397 -0.0042 -0.3046  0.7002
  164DOPC  H13B19801   1.402   1.878  14.501 -0.1589  1.9398 -0.0368
  164DOPC  H13C19802   1.405   1.848  14.329  0.6168  0.8308  0.3382
  164DOPC   C1419803   1.212   1.697  14.438  0.1448 -0.6277 -0.4733
  164DOPC  H14A19804   1.247   1.680  14.538 -1.5788 -1.0497  0.0880
  164DOPC  H14B19805   1.110   1.661  14.440 -0.1635  0.0642 -2.0350
  164DOPC  H14C19806   1.269   1.646  14.361 -0.1144 -0.4218 -0.8050
  164DOPC   C1519807   1.150   1.919  14.530 -0.2021  0.1222 -0.5911
  164DOPC  H15A19808   1.210   1.887  14.614 -0.5518  1.5081  0.2089
  164DOPC  H15B19809   1.049   1.882  14.538 -0.1120  0.1232  0.8737
  164DOPC  H15C19810   1.154   2.026  14.533  3.1430  0.0780 -0.5722
  164DOPC   C1119811   1.189   1.808  14.150  0.1039  0.1822 -0.0387
  164DOPC  H11A19812   1.153   1.870  14.065  0.0085 -0.2952 -0.3510
  164DOPC  H11B19813   1.300   1.813  14.148  0.0969  0.2386 -1.2413
  164DOPC     P19814   1.003   1.637  14.083  0.1230  0.2047 -0.1718
  164DOPC   O1319815   0.908   1.742  14.127 -0.2667  0.0005  0.1744
  164DOPC   O1419816   0.961   1.498  14.113  0.5461  0.5988  0.3186
  164DOPC   O1219817   1.154   1.668  14.140  0.7499 -0.1761 -0.0116
  164DOPC   O1119818   1.037   1.649  13.926 -0.0033 -0.2004 -1.7670
  164DOPC    C119819   1.143   1.578  13.875  0.3670 -0.0192  0.1412
  164DOPC    HA19820   1.173   1.494  13.942 -3.1278 -0.0088  1.9923
  164DOPC    HB19821   1.232   1.644  13.873  0.8764 -0.6697  0.8593
  164DOPC    C219822   1.106   1.522  13.731  0.1648 -0.0458 -0.1671
  164DOPC    HS19823   1.177   1.439  13.711  0.1956  0.0916 -0.6331
  164DOPC   O2119824   1.110   1.614  13.623 -0.1688 -0.0338 -0.3283
  164DOPC   C2119825   1.227   1.650  13.585 -0.0364 -0.3196 -0.3690
  164DOPC   O2219826   1.332   1.605  13.633  0.1566  0.7832  0.3535
  164DOPC   C2219827   1.214   1.748  13.473  0.1062 -0.2722 -0.0363
  164DOPC   H2R19828   1.189   1.847  13.517  0.2149  0.2980 -1.2024
  164DOPC   H2S19829   1.124   1.721  13.413 -0.2452 -3.2972  1.6873
  164DOPC    C319830   0.970   1.449  13.731  0.2874 -0.9972 -0.7581
  164DOPC    HX19831   0.899   1.525  13.769  0.9956 -1.0027  0.6770
  164DOPC    HY19832   0.970   1.372  13.812 -0.1242  0.1373  0.3600
  164DOPC   O3119833   0.943   1.388  13.607 -0.0023 -0.2363 -0.2134
  164DOPC   C3119834   0.809   1.386  13.584 -0.6880  0.4954  0.3078
  164DOPC   O3219835   0.724   1.408  13.666  0.1715 -0.1296 -0.2227
  164DOPC   C3219836   0.788   1.360  13.431  0.3253 -0.1257 -0.2866
  164DOPC   H2X19837   0.801   1.460  13.383 -2.3281  0.6119  0.3607
  164DOPC   H2Y19838   0.866   1.288  13.400  0.4656  0.0784 -0.4131
  164DOPC   C2319839   1.327   1.754  13.372  0.0897  0.6077  0.0629
  164DOPC   H3R19840   1.316   1.659  13.316 -1.4343  0.3434  0.7566
  164DOPC   H3S19841   1.422   1.750  13.429 -0.2268  0.0698  0.5538
  164DOPC   C2419842   1.332   1.867  13.268  0.2859 -0.0870 -0.3613
  164DOPC   H4R19843   1.337   1.959  13.331 -0.1769 -1.0303  1.1010
  164DOPC   H4S19844   1.242   1.860  13.203  0.7371 -1.1272 -0.9064
  164DOPC   C2519845   1.461   1.874  13.185  0.8396  0.3730  0.2041
  164DOPC   H5R19846   1.458   1.804  13.098  1.3811 -0.7757  1.0826
  164DOPC   H5S19847   1.546   1.841  13.249  0.0329  2.6110  2.5938
  164DOPC   C2619848   1.490   2.013  13.141 -0.0639 -0.8806  0.2359
  164DOPC   H6R19849   1.533   2.071  13.226 -1.9387  1.2185 -0.1378
  164DOPC   H6S19850   1.402   2.075  13.111 -0.3274 -0.8259  1.1014
  164DOPC   C2719851   1.601   2.015  13.029  0.0833  0.8826  0.1726
  164DOPC   H7R19852   1.581   1.916  12.984 -0.3512 -0.4213  3.0044
  164DOPC   H7S19853   1.703   2.012  13.072  0.3614 -0.3763 -0.5396
  164DOPC   C2819854   1.574   2.120  12.923 -1.0470 -0.3852  0.7423
  164DOPC   H8R19855   1.579   2.206  12.993 -3.1301 -1.8141  2.8318
  164DOPC   H8S19856   1.468   2.108  12.892 -0.6899 -1.1134 -0.2708
  164DOPC   C2919857   1.666   2.123  12.809  0.7207  0.6459  0.5947
  164DOPC   H9R19858   1.619   2.075  12.721  0.2617 -0.6404  1.5049
  164DOPC  C21019859   1.782   2.190  12.803 -0.9006 -0.6115  0.0813
  164DOPC  H10R19860   1.850   2.177  12.718 -0.1184  0.2552  0.5554
  164DOPC  C21119861   1.845   2.265  12.919 -0.1695  0.0233 -0.8710
  164DOPC  H11R19862   1.955   2.254  12.929 -0.1863 -1.5234 -1.9422
  164DOPC  H11S19863   1.805   2.241  13.020 -1.4109  2.3006 -0.7598
  164DOPC  C21219864   1.817   2.416  12.899  0.0422 -0.1973  0.1710
  164DOPC  H12R19865   1.817   2.467  12.998  0.1974  3.6978 -1.6358
  164DOPC  H12S19866   1.728   2.439  12.838  0.8345  1.0930 -0.5531
  164DOPC  C21319867   1.942   2.482  12.833 -0.2256  0.2243  0.0139
  164DOPC  H13R19868   1.960   2.452  12.728  0.7599  1.9216 -0.3417
  164DOPC  H13S19869   2.026   2.464  12.903  1.8638  1.1994 -2.0962
  164DOPC  C21419870   1.918   2.631  12.825 -0.0445 -0.2006 -0.5347
  164DOPC  H14R19871   2.013   2.683  12.800 -0.0646  0.6184  0.9851
  164DOPC  H14S19872   1.906   2.670  12.928 -0.2602  1.0482 -1.0120
  164DOPC  C21519873   1.805   2.689  12.748  0.9447 -0.6048 -0.4687
  164DOPC  H15R19874   1.806   2.798  12.771  0.0175 -0.7683  0.4156
  164DOPC  H15S19875   1.705   2.652  12.778  2.4444 -2.0928  3.2507
  164DOPC  C21619876   1.829   2.668  12.601  0.1778  0.0251  0.5101
  164DOPC  H16R19877   1.837   2.566  12.558  2.8438 -0.6097  2.2667
  164DOPC  H16S19878   1.927   2.716  12.583 -0.2255  0.7687  0.2785
  164DOPC  C21719879   1.725   2.741  12.521  0.1667 -0.0246  0.3600
  164DOPC  H17R19880   1.769   2.766  12.422 -1.3083 -3.6641 -1.3971
  164DOPC  H17S19881   1.689   2.836  12.566 -2.8688 -1.9367  2.3177
  164DOPC  C21819882   1.602   2.658  12.488 -0.0935  0.2248  0.4845
  164DOPC  H18R19883   1.554   2.630  12.584 -0.8929  0.8639  0.2887
  164DOPC  H18S19884   1.632   2.566  12.435 -0.4993  0.6597 -0.5186
  164DOPC  H18T19885   1.521   2.703  12.427 -0.5793 -1.0370  0.1629
  164DOPC   C3319886   0.652   1.304  13.401 -0.3647  0.7212 -0.3569
  164DOPC   H3X19887   0.576   1.386  13.400 -0.6914  0.4207 -0.9452
  164DOPC   H3Y19888   0.632   1.222  13.474  1.6105  2.7178  2.6250
  164DOPC   C3419889   0.626   1.252  13.254 -0.2297 -0.1864 -0.1448
  164DOPC   H4X19890   0.692   1.166  13.229 -1.1905 -0.9823 -0.0004
  164DOPC   H4Y19891   0.653   1.334  13.184 -0.6694  2.1128  2.2226
  164DOPC   C3519892   0.488   1.220  13.217  0.1128 -0.3000  0.2845
  164DOPC   H5X19893   0.418   1.302  13.244 -1.5276 -1.7945  0.7631
  164DOPC   H5Y19894   0.453   1.135  13.278  2.8640 -2.0183 -0.3803
  164DOPC   C3619895   0.465   1.176  13.071 -0.1430  0.1695  0.2566
  164DOPC   H6X19896   0.546   1.105  13.042  0.7136  1.7487 -1.4534
  164DOPC   H6Y19897   0.367   1.126  13.062 -1.2875  1.9268  1.9726
  164DOPC   C3719898   0.478   1.299  12.970  0.3371  0.2658  0.0849
  164DOPC   H7X19899   0.449   1.393  13.020  3.2189  0.8848  0.8048
  164DOPC   H7Y19900   0.588   1.312  12.960  0.9076 -3.4897 -0.0909
  164DOPC   C3819901   0.422   1.282  12.822  0.0971 -0.1043  0.6349
  164DOPC   H8X19902   0.310   1.278  12.823  0.0827 -1.2614 -1.1645
  164DOPC   H8Y19903   0.454   1.177  12.802  0.0030  0.4346 -2.7830
  164DOPC   C3919904   0.483   1.386  12.727  0.0776  0.5038 -0.0642
  164DOPC   H9X19905   0.589   1.409  12.744  0.7566 -0.7072 -2.2343
  164DOPC  C31019906   0.419   1.448  12.631  0.4434 -0.5509 -0.4333
  164DOPC  H10X19907   0.479   1.513  12.565  0.8926 -1.1769 -0.6606
  164DOPC  C31119908   0.274   1.439  12.596 -0.4797 -0.0109  0.4996
  164DOPC  H11X19909   0.212   1.526  12.627 -1.6318 -0.2894 -0.8993
  164DOPC  H11Y19910   0.227   1.350  12.643  0.5365 -0.1176  1.3278
  164DOPC  C31219911   0.243   1.424  12.448  0.0807 -0.2586  0.0366
  164DOPC  H12X19912   0.302   1.345  12.398  0.9337  2.4880 -3.7681
  164DOPC  H12Y19913   0.279   1.514  12.393  0.4711 -1.6488 -2.0966
  164DOPC  C31319914   0.096   1.406  12.413  0.1613 -0.4547  0.3655
  164DOPC  H13X19915   0.024   1.466  12.472 -2.3577 -0.8637 -2.0922
  164DOPC  H13Y19916   0.081   1.448  12.311 -1.4336 -0.0787  0.7302
  164DOPC  C31419917   0.047   1.255  12.411  0.1777 -0.1763  0.0346
  164DOPC  H14X19918  -0.061   1.262  12.434  0.2734  1.1790  0.1140
  164DOPC  H14Y19919   0.099   1.193  12.487  2.0186  0.9829 -0.2139
  164DOPC  C31519920   0.064   1.183  12.273  1.0149 -0.2220  0.4316
  164DOPC  H15X19921   0.172   1.178  12.248  0.9596  0.5825 -0.0047
  164DOPC  H15Y19922   0.029   1.257  12.198  1.0355 -0.8301 -0.1897
  164DOPC  C31619923   0.002   1.036  12.272 -0.3105 -0.0155  0.3754
  164DOPC  H16X19924   0.028   0.990  12.174 -1.8650 -1.1104  0.4319
  164DOPC  H16Y19925   0.045   0.979  12.357  2.8084 -0.1534 -1.1115
  164DOPC  C31719926  -0.147   1.045  12.295  0.2311 -0.3317 -0.1336
  164DOPC  H17X19927  -0.168   1.085  12.396 -0.7182 -1.6506  0.2163
  164DOPC  H17Y19928  -0.198   1.119  12.230 -0.3753 -0.0288  0.6777
  164DOPC  C31819929  -0.232   0.916  12.279  0.3231  0.0910  0.2602
  164DOPC  H18X19930  -0.167   0.838  12.324  0.6287  0.2829  0.1581
  164DOPC  H18Y19931  -0.333   0.928  12.323  0.2577  3.2703 -0.5096
  164DOPC  H18Z19932  -0.249   0.895  12.171 -0.7805  0.1368  0.4203
  165DOPC     N19933   6.435   1.055  14.319 -0.1094 -0.3344 -0.1231
  165DOPC   C1219934   6.323   1.114  14.237  0.0334 -0.4602  0.2975
  165DOPC  H12A19935   6.317   1.054  14.147 -1.5145  1.7777 -1.1913
  165DOPC  H12B19936   6.346   1.210  14.195  1.0328 -1.7281 -2.2435
  165DOPC   C1319937   6.560   1.038  14.238 -0.8540  0.0916 -0.2788
  165DOPC  H13A19938   6.539   0.983  14.148  0.0225  1.0331 -1.0852
  165DOPC  H13B19939   6.598   1.132  14.199  1.4452  0.6979  3.0037
  165DOPC  H13C19940   6.644   0.992  14.290 -0.5364 -0.5658 -1.3510
  165DOPC   C1419941   6.394   0.923  14.373 -0.9943  0.7707 -0.0722
  165DOPC  H14A19942   6.472   0.884  14.437 -0.0706 -2.4187 -2.8134
  165DOPC  H14B19943   6.308   0.918  14.437  0.2183 -2.3922  1.5797
  165DOPC  H14C19944   6.382   0.852  14.292 -3.1179  1.5305 -0.4762
  165DOPC   C1519945   6.463   1.138  14.440  0.6177  0.0933 -0.3371
  165DOPC  H15A19946   6.530   1.076  14.498 -0.6074 -1.5515 -0.6148
  165DOPC  H15B19947   6.370   1.157  14.491  0.1486 -0.7642 -0.8576
  165DOPC  H15C19948   6.516   1.228  14.411  1.1303 -0.0613  0.0967
  165DOPC   C1119949   6.183   1.112  14.293 -0.3691 -0.1970 -0.7300
  165DOPC  H11A19950   6.107   1.123  14.212 -0.2525 -0.4106 -0.8718
  165DOPC  H11B19951   6.161   1.011  14.334 -1.6619  0.5469  0.4536
  165DOPC     P19952   6.106   1.345  14.368  0.1787 -0.2998  0.0358
  165DOPC   O1319953   6.221   1.433  14.333 -0.3123  0.0891 -0.7037
  165DOPC   O1419954   6.027   1.396  14.482 -0.3323  0.6629 -0.1601
  165DOPC   O1219955   6.161   1.200  14.401 -0.2826 -0.2909  0.3289
  165DOPC   O1119956   6.008   1.328  14.246 -0.3366  0.0953 -0.3334
  165DOPC    C119957   5.976   1.439  14.160 -0.0351 -0.1639 -0.5464
  165DOPC    HA19958   6.068   1.490  14.124  1.2361 -1.7423  0.3376
  165DOPC    HB19959   5.904   1.507  14.208  0.5433 -0.3195  0.5591
  165DOPC    C219960   5.929   1.388  14.017  0.4007 -0.4091 -0.4692
  165DOPC    HS19961   5.840   1.326  14.038 -1.0481  0.5454 -3.2534
  165DOPC   O2119962   6.030   1.317  13.946  0.2256 -0.2864  0.0879
  165DOPC   C2119963   5.984   1.238  13.848  0.3973  0.3121  0.5142
  165DOPC   O2219964   5.870   1.227  13.813  0.3177  0.7413 -0.1829
  165DOPC   C2219965   6.100   1.166  13.784  0.0232  0.5871 -0.2287
  165DOPC   H2R19966   6.129   1.081  13.851 -1.5705 -0.5580 -0.9170
  165DOPC   H2S19967   6.181   1.240  13.774 -0.2142  0.9601  0.4848
  165DOPC    C319968   5.890   1.523  13.937  0.8044 -0.2002 -0.2027
  165DOPC    HX19969   5.983   1.574  13.902  0.5450  1.2885  1.1880
  165DOPC    HY19970   5.838   1.592  14.007 -0.4584  0.1131 -1.4169
  165DOPC   O3119971   5.805   1.497  13.823 -0.0845 -0.1214 -0.0697
  165DOPC   C3119972   5.768   1.607  13.757  0.2946  0.2493  0.2919
  165DOPC   O3219973   5.794   1.719  13.789  0.1954 -0.1384  0.1047
  165DOPC   C3219974   5.682   1.573  13.631 -0.2545 -0.2367  0.2199
  165DOPC   H2X19975   5.713   1.475  13.587 -0.2114 -0.2400  0.2582
  165DOPC   H2Y19976   5.578   1.561  13.667  0.3240  0.2087  2.1608
  165DOPC   C2319977   6.059   1.107  13.648 -0.1558 -0.1527  0.3162
  165DOPC   H3R19978   6.044   1.188  13.573  1.6267  0.6155  0.7318
  165DOPC   H3S19979   5.966   1.047  13.646 -1.0953  1.2684  0.5310
  165DOPC   C2419980   6.165   1.012  13.580 -0.3684  0.6055 -0.5103
  165DOPC   H4R19981   6.162   0.912  13.628 -0.7111  1.2946  0.9783
  165DOPC   H4S19982   6.269   1.049  13.595 -0.5187 -0.0979  3.2826
  165DOPC   C2519983   6.144   0.985  13.428  0.5860 -0.0725  0.2166
  165DOPC   H5R19984   6.130   1.075  13.365  0.8059  1.6987  2.5704
  165DOPC   H5S19985   6.051   0.925  13.417 -0.0992  1.0939 -0.7008
  165DOPC   C2619986   6.269   0.908  13.374 -0.3746  0.1047  0.1974
  165DOPC   H6R19987   6.241   0.875  13.272  0.0289  1.5118 -0.3852
  165DOPC   H6S19988   6.283   0.822  13.443  1.1642  1.5734  1.8300
  165DOPC   C2719989   6.396   0.990  13.371 -0.0422 -0.5514 -0.5564
  165DOPC   H7R19990   6.439   1.025  13.467  1.7733 -0.5160 -1.3393
  165DOPC   H7S19991   6.364   1.085  13.324 -0.2906 -0.7429 -0.7782
  165DOPC   C2819992   6.508   0.925  13.289  0.6427 -0.1299  0.6847
  165DOPC   H8R19993   6.574   1.003  13.244  0.1184 -0.1916 -0.2381
  165DOPC   H8S19994   6.448   0.890  13.202 -2.2369  2.5004  1.3857
  165DOPC   C2919995   6.575   0.807  13.354 -0.0880  0.7107 -0.1067
  165DOPC   H9R19996   6.507   0.724  13.378 -0.7718  2.1738  3.7034
  165DOPC  C21019997   6.707   0.786  13.346  0.1055  0.0520  0.1803
  165DOPC  H10R19998   6.762   0.711  13.405  3.4309  0.3183 -2.3080
  165DOPC  C21119999   6.810   0.884  13.291  0.0676 -0.1551 -0.1160
  165DOPC  H11R20000   6.907   0.887  13.344  0.3772  3.0662 -0.6512
  165DOPC  H11S20001   6.774   0.989  13.302 -1.8799 -0.7681 -0.2493
  165DOPC  C21220002   6.846   0.864  13.141 -0.2394 -0.6285  0.4366
  165DOPC  H12R20003   6.857   0.757  13.116 -1.7082 -0.7415  0.1856
  165DOPC  H12S20004   6.942   0.918  13.128 -1.1488  1.2454  1.0415
  165DOPC  C21320005   6.737   0.910  13.048  0.0119  0.4033 -0.2997
  165DOPC  H13R20006   6.717   1.015  13.080 -0.6933  0.3072 -0.4087
  165DOPC  H13S20007   6.645   0.852  13.068 -0.1131  1.3105  2.0996
  165DOPC  C21420008   6.777   0.899  12.899  0.2003  0.3395 -0.0315
  165DOPC  H14R20009   6.687   0.917  12.837  1.5249  1.5532 -1.7160
  165DOPC  H14S20010   6.809   0.800  12.860 -0.5036  0.5397 -1.1516
  165DOPC  C21520011   6.879   1.016  12.869 -0.5808  0.8803  0.1620
  165DOPC  H15R20012   6.975   0.972  12.905 -0.7624  1.1281  0.9708
  165DOPC  H15S20013   6.840   1.094  12.937 -0.5937 -1.1787  2.6476
  165DOPC  C21620014   6.880   1.057  12.719 -0.6532 -0.3264  0.1363
  165DOPC  H16R20015   6.772   1.061  12.696 -0.5002  2.8218 -0.4373
  165DOPC  H16S20016   6.921   0.987  12.642 -3.1446 -2.0808  0.3054
  165DOPC  C21720017   6.924   1.204  12.698 -0.0180 -0.4683  0.3609
  165DOPC  H17R20018   6.854   1.280  12.739 -2.2886 -4.2331  4.1936
  165DOPC  H17S20019   6.936   1.226  12.589 -1.3604  0.8823  0.4501
  165DOPC  C21820020   7.069   1.222  12.749  0.1438 -0.6004  0.2712
  165DOPC  H18R20021   7.101   1.328  12.742  0.1337 -0.6777 -1.2040
  165DOPC  H18S20022   7.137   1.146  12.704  1.3462  1.6154 -1.9157
  165DOPC  H18T20023   7.085   1.205  12.858  0.8318 -0.2952  0.2264
  165DOPC   C3320024   5.680   1.684  13.525 -0.1736  0.3426  0.7077
  165DOPC   H3X20025   5.786   1.709  13.500 -0.2753  0.4945  0.4208
  165DOPC   H3Y20026   5.641   1.773  13.579  0.7293  0.5441  1.0412
  165DOPC   C3420027   5.614   1.642  13.390 -0.0267 -0.7696  0.7231
  165DOPC   H4X20028   5.592   1.731  13.328  0.8233  0.3828  1.9972
  165DOPC   H4Y20029   5.519   1.594  13.420 -1.2471 -0.6693 -2.6389
  165DOPC   C3520030   5.689   1.533  13.307  0.0736  0.2861 -0.2622
  165DOPC   H5X20031   5.629   1.488  13.225  2.2162 -0.5291 -1.4684
  165DOPC   H5Y20032   5.705   1.447  13.376  0.8875 -0.1081 -0.9297
  165DOPC   C3620033   5.823   1.578  13.270  0.7759 -0.2880  0.0400
  165DOPC   H6X20034   5.818   1.664  13.200 -0.1875 -0.3484  0.0325
  165DOPC   H6Y20035   5.886   1.595  13.361  1.4307 -3.8608  0.4211
  165DOPC   C3720036   5.897   1.455  13.199 -0.1825 -0.3617  0.0132
  165DOPC   H7X20037   5.834   1.423  13.113 -1.0801  1.5682 -0.1138
  165DOPC   H7Y20038   5.903   1.371  13.270  2.8627 -1.9102 -1.8585
  165DOPC   C3820039   6.035   1.493  13.145 -0.0152  0.1067  0.3758
  165DOPC   H8X20040   6.096   1.531  13.230 -0.3975  0.6958  0.3920
  165DOPC   H8Y20041   6.028   1.581  13.076  1.6325  0.3323  0.4378
  165DOPC   C3920042   6.101   1.371  13.084 -0.6564 -0.8708 -1.1120
  165DOPC   H9X20043   6.112   1.290  13.157 -0.5864 -0.0064 -0.1492
  165DOPC  C31020044   6.124   1.356  12.953 -0.4127  0.1753  0.6690
  165DOPC  H10X20045   6.152   1.255  12.921 -0.7740  0.7847 -1.7368
  165DOPC  C31120046   6.087   1.446  12.837  0.0538  0.9628 -0.0307
  165DOPC  H11X20047   6.155   1.436  12.749 -1.3941  0.8162 -1.1691
  165DOPC  H11Y20048   6.106   1.551  12.868  0.7225  0.6429  0.6691
  165DOPC  C31220049   5.940   1.433  12.809 -0.1298  0.1250 -0.6326
  165DOPC  H12X20050   5.896   1.522  12.758  0.0654 -0.2634 -1.4880
  165DOPC  H12Y20051   5.885   1.442  12.906  2.9315  1.7109  1.1416
  165DOPC  C31320052   5.900   1.307  12.732 -0.3252 -0.1394 -0.0321
  165DOPC  H13X20053   5.915   1.216  12.794  3.2929  0.6692  0.4807
  165DOPC  H13Y20054   5.794   1.318  12.701 -0.2224  1.1645  0.0395
  165DOPC  C31420055   5.985   1.291  12.601  0.1611 -0.3903 -0.2490
  165DOPC  H14X20056   6.005   1.390  12.555  0.8482 -0.6258 -0.4703
  165DOPC  H14Y20057   6.083   1.247  12.627  1.0100  0.6830 -1.5082
  165DOPC  C31520058   5.937   1.196  12.495  0.1594 -0.1008 -0.1413
  165DOPC  H15X20059   5.915   1.094  12.532  0.6164  0.9681  3.4806
  165DOPC  H15Y20060   6.020   1.199  12.421 -0.1088  2.2995 -0.4420
  165DOPC  C31620061   5.827   1.264  12.413 -0.0554 -0.0054 -0.0185
  165DOPC  H16X20062   5.732   1.272  12.470 -0.0554 -0.7548  0.1067
  165DOPC  H16Y20063   5.845   1.372  12.395 -0.1301 -0.0935 -0.6421
  165DOPC  C31720064   5.792   1.185  12.281 -0.0081  0.1048 -0.4099
  165DOPC  H17X20065   5.878   1.170  12.212  0.9882 -1.2988  1.0798
  165DOPC  H17Y20066   5.774   1.082  12.318  1.2614  0.3989  1.1515
  165DOPC  C31820067   5.665   1.240  12.205 -0.4910  0.8513 -0.1949
  165DOPC  H18X20068   5.602   1.156  12.170  3.0166 -2.0366 -0.1969
  165DOPC  H18Y20069   5.605   1.311  12.266 -2.3618 -0.2755 -0.6650
  165DOPC  H18Z20070   5.694   1.290  12.110 -0.4290  1.8802  0.3485
  166DOPC     N20071   0.222   2.814  14.161 -0.3916 -0.5402 -0.3608
  166DOPC   C1220072   0.084   2.809  14.097  0.0524 -0.1848 -0.8277
  166DOPC  H12A20073   0.013   2.870  14.150  1.0787 -0.1133  0.5003
  166DOPC  H12B20074   0.039   2.712  14.112  0.8454 -0.4838 -0.3258
  166DOPC   C1320075   0.277   2.950  14.173  0.0821 -0.0270  0.1098
  166DOPC  H13A20076   0.229   2.995  14.259  0.2099 -0.3374  0.3450
  166DOPC  H13B20077   0.384   2.955  14.189  0.3579 -1.1377 -1.1961
  166DOPC  H13C20078   0.247   3.013  14.090  1.8042 -0.3241 -0.7982
  166DOPC   C1420079   0.326   2.729  14.090  0.5180 -0.1290  0.0216
  166DOPC  H14A20080   0.421   2.714  14.139  0.5424 -2.3207 -0.6158
  166DOPC  H14B20081   0.280   2.633  14.071 -1.9115  1.1390 -0.9730
  166DOPC  H14C20082   0.358   2.782  14.002  1.2539 -0.8801 -0.1696
  166DOPC   C1520083   0.210   2.750  14.293 -0.2441 -0.3937 -0.3702
  166DOPC  H15A20084   0.129   2.797  14.346  0.8036  2.3284 -1.0419
  166DOPC  H15B20085   0.298   2.769  14.353  1.0910 -1.1286 -2.0016
  166DOPC  H15C20086   0.189   2.644  14.301  1.8990 -0.7950  0.5017
  166DOPC   C1120087   0.083   2.857  13.949 -0.0006  0.4928 -0.5159
  166DOPC  H11A20088   0.170   2.816  13.894  1.1527  1.0312  0.8621
  166DOPC  H11B20089  -0.005   2.811  13.898  0.6471 -0.1240 -1.1069
  166DOPC     P20090  -0.028   3.091  13.903 -0.3187  0.0099  0.1904
  166DOPC   O1320091   0.022   3.224  13.873 -0.1726 -0.7134 -0.0876
  166DOPC   O1420092  -0.127   3.088  14.012  0.1330  0.1117 -0.3452
  166DOPC   O1220093   0.092   2.996  13.944  0.5032  0.2051  0.1996
  166DOPC   O1120094  -0.093   3.020  13.775 -0.1118  0.7360  0.4239
  166DOPC    C120095  -0.109   3.101  13.659  0.8660 -0.5148  0.4463
  166DOPC    HA20096  -0.124   3.038  13.569 -0.6318 -0.4964  0.6551
  166DOPC    HB20097  -0.020   3.166  13.640  0.0674  0.3064 -0.6053
  166DOPC    C220098  -0.244   3.189  13.676  0.1825  0.4786  0.1613
  166DOPC    HS20099  -0.262   3.220  13.781 -1.2994  0.0296  0.0579
  166DOPC   O2120100  -0.355   3.114  13.615 -0.0036 -0.6524  0.2640
  166DOPC   C2120101  -0.469   3.114  13.679  0.1709  0.0221  0.0821
  166DOPC   O2220102  -0.501   3.188  13.773 -0.0888  0.1222  0.4681
  166DOPC   C2220103  -0.564   3.017  13.613  0.2483  0.0910  0.1829
  166DOPC   H2R20104  -0.607   2.947  13.688  1.0677 -1.3670 -0.6371
  166DOPC   H2S20105  -0.513   2.959  13.533  1.6385  1.8688 -0.2760
  166DOPC    C320106  -0.225   3.320  13.594 -0.1295  0.2840  0.3617
  166DOPC    HX20107  -0.192   3.299  13.489 -2.0062 -1.1410  0.0049
  166DOPC    HY20108  -0.137   3.377  13.629 -0.9373  2.9373 -1.6069
  166DOPC   O3120109  -0.338   3.407  13.580  0.4388  0.2851 -0.0651
  166DOPC   C3120110  -0.375   3.463  13.691 -0.2612 -0.3984 -0.1693
  166DOPC   O3220111  -0.316   3.458  13.797 -0.7722  0.1419 -0.0073
  166DOPC   C3220112  -0.479   3.569  13.659 -0.6732  0.2184 -0.9389
  166DOPC   H2X20113  -0.472   3.582  13.548 -2.2437 -0.8188 -1.1939
  166DOPC   H2Y20114  -0.587   3.554  13.682 -0.7683  3.8584  2.0177
  166DOPC   C2320115  -0.679   3.099  13.557 -0.2054 -0.5387 -0.0043
  166DOPC   H3R20116  -0.714   3.182  13.622 -0.6411  0.1179 -1.0497
  166DOPC   H3S20117  -0.772   3.037  13.551  0.5474 -1.6782 -0.1264
  166DOPC   C2420118  -0.654   3.165  13.418 -0.1449  0.3840  0.5553
  166DOPC   H4R20119  -0.590   3.255  13.432  0.3610  0.1571 -0.2645
  166DOPC   H4S20120  -0.754   3.192  13.380 -0.3715  1.2223  1.6834
  166DOPC   C2520121  -0.584   3.088  13.298  0.3196 -0.2152 -0.2405
  166DOPC   H5R20122  -0.635   2.989  13.300 -1.5813  0.5969 -2.6322
  166DOPC   H5S20123  -0.477   3.076  13.324 -0.0074 -1.9386  0.4262
  166DOPC   C2620124  -0.598   3.146  13.155 -0.2861 -0.0397  0.0489
  166DOPC   H6R20125  -0.549   3.244  13.168  2.6419 -1.5573  1.5897
  166DOPC   H6S20126  -0.706   3.162  13.136 -0.6128 -0.9952  0.9496
  166DOPC   C2720127  -0.541   3.049  13.057 -0.5280 -0.3535  0.7982
  166DOPC   H7R20128  -0.606   2.962  13.034  1.5219 -2.0284  0.9821
  166DOPC   H7S20129  -0.441   3.018  13.096  1.3001  2.1954 -1.4847
  166DOPC   C2820130  -0.512   3.118  12.914  0.0496  0.3399 -0.6995
  166DOPC   H8R20131  -0.606   3.117  12.854  0.0128 -0.8576 -0.6596
  166DOPC   H8S20132  -0.444   3.047  12.862  1.8147 -0.2603  2.1793
  166DOPC   C2920133  -0.437   3.250  12.945  0.0689 -0.6883 -0.2242
  166DOPC   H9R20134  -0.386   3.252  13.043 -0.3451  2.3168  0.0393
  166DOPC  C21020135  -0.447   3.364  12.876 -0.3176  0.3349 -0.4040
  166DOPC  H10R20136  -0.389   3.448  12.917 -0.8787 -0.9624  3.4274
  166DOPC  C21120137  -0.530   3.398  12.754  0.7045 -0.4501  1.0156
  166DOPC  H11R20138  -0.634   3.406  12.790  0.0546 -0.0399 -0.8158
  166DOPC  H11S20139  -0.524   3.317  12.677  2.4329 -1.5085  2.1833
  166DOPC  C21220140  -0.510   3.533  12.688 -0.4715 -0.0708  0.6092
  166DOPC  H12R20141  -0.585   3.547  12.607 -0.8905  0.2525  1.0457
  166DOPC  H12S20142  -0.410   3.523  12.640 -0.6487  0.4328  0.1339
  166DOPC  C21320143  -0.522   3.652  12.789  0.9134  0.6005  0.0072
  166DOPC  H13R20144  -0.423   3.660  12.838  1.2064 -1.8089 -0.0780
  166DOPC  H13S20145  -0.601   3.632  12.865 -0.1603  1.6655 -0.7821
  166DOPC  C21420146  -0.550   3.783  12.717  0.1018 -0.0486  0.4312
  166DOPC  H14R20147  -0.550   3.875  12.779  0.5696  2.2873 -2.7769
  166DOPC  H14S20148  -0.648   3.771  12.665  0.1623  1.2185  0.0031
  166DOPC  C21520149  -0.441   3.828  12.620 -0.3821  0.7366  0.3310
  166DOPC  H15R20150  -0.467   3.771  12.529 -1.6175  0.3005  0.9235
  166DOPC  H15S20151  -0.341   3.801  12.658 -1.2364  0.9720  2.9745
  166DOPC  C21620152  -0.446   3.972  12.588  0.1348 -0.2041 -0.2198
  166DOPC  H16R20153  -0.442   4.024  12.687 -1.7445  0.2932 -0.3543
  166DOPC  H16S20154  -0.546   3.992  12.542 -0.4990  0.2907  1.2901
  166DOPC  C21720155  -0.341   4.029  12.483  0.3946 -0.3241 -0.1733
  166DOPC  H17R20156  -0.344   3.976  12.386  0.6907  1.9982 -1.5176
  166DOPC  H17S20157  -0.249   4.010  12.543  0.0782  1.0282  0.7918
  166DOPC  C21820158  -0.375   4.179  12.476  0.7309  0.6745 -0.6778
  166DOPC  H18R20159  -0.480   4.187  12.440  1.4287  1.5993 -2.6433
  166DOPC  H18S20160  -0.316   4.236  12.401  0.2591  0.7839 -0.9711
  166DOPC  H18T20161  -0.382   4.225  12.577 -5.1128 -2.1188  0.6206
  166DOPC   C3320162  -0.465   3.678  13.769  0.5828 -0.3878  0.1991
  166DOPC   H3X20163  -0.363   3.720  13.772  0.8482 -0.9853 -0.2476
  166DOPC   H3Y20164  -0.479   3.627  13.867 -0.8612 -0.1931  0.1240
  166DOPC   C3420165  -0.567   3.794  13.750  0.1254 -0.5561 -0.4793
  166DOPC   H4X20166  -0.542   3.872  13.825 -3.5266  0.8013 -0.4718
  166DOPC   H4Y20167  -0.666   3.771  13.795  1.2379  0.6277  2.8896
  166DOPC   C3520168  -0.571   3.858  13.610 -0.6559  0.6582  0.1556
  166DOPC   H5X20169  -0.628   3.789  13.544  1.8241 -0.1885 -1.2090
  166DOPC   H5Y20170  -0.466   3.869  13.577 -0.1511  0.2055  1.5214
  166DOPC   C3620171  -0.642   3.991  13.608 -0.4309  1.1711 -0.3186
  166DOPC   H6X20172  -0.742   3.958  13.642 -0.4835  0.3540 -1.2421
  166DOPC   H6Y20173  -0.584   4.049  13.683  2.0469 -0.9470 -0.4492
  166DOPC   C3720174  -0.651   4.041  13.471  0.6952 -0.6681 -0.1326
  166DOPC   H7X20175  -0.545   4.063  13.446  0.8350 -0.5410  0.5456
  166DOPC   H7Y20176  -0.683   3.973  13.390 -1.6801  0.7640 -0.4743
  166DOPC   C3820177  -0.726   4.171  13.466  0.0715  0.1571  0.9719
  166DOPC   H8X20178  -0.836   4.154  13.474  0.1637 -2.4087 -1.6393
  166DOPC   H8Y20179  -0.715   4.197  13.359 -1.3128  0.3994  0.8725
  166DOPC   C3920180  -0.674   4.286  13.551 -0.4191  0.0889 -0.3749
  166DOPC   H9X20181  -0.629   4.258  13.648 -2.1956 -1.5414  0.0352
  166DOPC  C31020182  -0.681   4.418  13.522 -0.0526  0.7339 -0.0230
  166DOPC  H10X20183  -0.659   4.492  13.600 -1.9352  1.5334 -0.1945
  166DOPC  C31120184  -0.730   4.486  13.395 -0.2226  0.4068  0.6412
  166DOPC  H11X20185  -0.768   4.588  13.416 -0.8162  0.2376  0.4253
  166DOPC  H11Y20186  -0.803   4.416  13.348  0.3006 -1.7601  2.8023
  166DOPC  C31220187  -0.626   4.499  13.291 -0.2501 -0.5955  0.0739
  166DOPC  H12X20188  -0.578   4.405  13.255  0.6205  0.6197 -2.1122
  166DOPC  H12Y20189  -0.547   4.572  13.320  0.1112 -0.8243 -0.3232
  166DOPC  C31320190  -0.684   4.550  13.155 -0.5828 -0.0469  0.3463
  166DOPC  H13X20191  -0.773   4.492  13.124 -1.6179  1.3275  0.6129
  166DOPC  H13Y20192  -0.727   4.652  13.171  0.0175  0.8183 -2.8897
  166DOPC  C31420193  -0.591   4.571  13.041 -0.3239 -0.2098 -0.3470
  166DOPC  H14X20194  -0.512   4.641  13.077  0.4761 -0.4422 -1.5752
  166DOPC  H14Y20195  -0.529   4.483  13.012  0.9063  0.8997 -1.2147
  166DOPC  C31520196  -0.660   4.624  12.909  0.1842 -0.4776  0.2537
  166DOPC  H15X20197  -0.686   4.730  12.925 -1.9611 -1.2670  2.7655
  166DOPC  H15Y20198  -0.754   4.565  12.901 -0.0645 -0.2344  1.2193
  166DOPC  C31620199  -0.576   4.611  12.781 -0.0381  0.2406  0.0272
  166DOPC  H16X20200  -0.533   4.511  12.764 -0.1486  0.1684  0.1671
  166DOPC  H16Y20201  -0.653   4.626  12.702  0.4762  2.3744 -0.1510
  166DOPC  C31720202  -0.456   4.706  12.762 -0.0599  0.1778  0.6729
  166DOPC  H17X20203  -0.384   4.687  12.845  1.0106  1.5211  0.0828
  166DOPC  H17Y20204  -0.396   4.682  12.672 -0.5425  0.5920  0.2315
  166DOPC  C31820205  -0.498   4.854  12.742 -0.2481  0.3117 -0.0520
  166DOPC  H18X20206  -0.567   4.867  12.656 -0.4188 -1.1711 -0.1728
  166DOPC  H18Y20207  -0.548   4.884  12.837 -2.2783 -2.1933 -0.2180
  166DOPC  H18Z20208  -0.407   4.917  12.736  0.1429 -0.1338  0.9201
  167DOPC     N20209   6.983   0.120  14.452  0.1626 -0.0038 -0.5754
  167DOPC   C1220210   6.960  -0.031  14.409  0.3457 -0.0035  0.0240
  167DOPC  H12A20211   6.880  -0.024  14.336  0.3949  0.1978 -0.0107
  167DOPC  H12B20212   6.918  -0.087  14.492  2.3042 -1.7376 -0.0790
  167DOPC   C1320213   7.060   0.112  14.582 -0.0971 -0.1131 -0.0115
  167DOPC  H13A20214   7.166   0.093  14.573  0.5830  2.4834  1.5551
  167DOPC  H13B20215   7.064   0.206  14.634 -2.4476 -1.0428  2.0586
  167DOPC  H13C20216   7.020   0.030  14.640  1.9247 -1.6454 -0.6604
  167DOPC   C1420217   6.857   0.198  14.472 -0.4318  0.9961  0.1619
  167DOPC  H14A20218   6.877   0.302  14.489 -0.4926  1.0377 -0.0136
  167DOPC  H14B20219   6.792   0.201  14.385 -0.1536  0.4243 -0.0696
  167DOPC  H14C20220   6.799   0.159  14.555  0.7323 -2.5941 -0.5381
  167DOPC   C1520221   7.062   0.197  14.353 -0.3611 -0.3136 -0.1955
  167DOPC  H15A20222   6.997   0.225  14.272 -0.8184 -0.3396  0.1534
  167DOPC  H15B20223   7.146   0.140  14.317 -0.9525 -0.7418 -0.9250
  167DOPC  H15C20224   7.097   0.291  14.395  1.5037 -1.4118  0.8501
  167DOPC   C1120225   7.077  -0.113  14.347 -0.4961  0.5918  0.1410
  167DOPC  H11A20226   7.045  -0.219  14.340  3.6711 -0.7923 -1.6775
  167DOPC  H11B20227   7.089  -0.069  14.245  0.5194  1.6328  0.6759
  167DOPC     P20228   7.338  -0.064  14.382 -0.2748 -0.0238  0.0065
  167DOPC   O1320229   7.445  -0.133  14.457 -0.2079  0.4703  0.6589
  167DOPC   O1420230   7.349   0.083  14.391 -0.3527  0.0727  0.4994
  167DOPC   O1220231   7.195  -0.108  14.432 -0.4129  0.4701 -0.4674
  167DOPC   O1120232   7.343  -0.105  14.234  0.3605 -0.3989  0.2024
  167DOPC    C120233   7.418  -0.035  14.132 -0.3385  0.6288 -0.0424
  167DOPC    HA20234   7.450  -0.116  14.062 -1.8570 -0.5011  0.5158
  167DOPC    HB20235   7.508   0.018  14.171  0.9305  0.6489 -2.7787
  167DOPC    C220236   7.333   0.063  14.049  0.2737  0.0692 -0.2381
  167DOPC    HS20237   7.289   0.125  14.130 -0.0814 -0.4572 -0.0251
  167DOPC   O2120238   7.238  -0.016  13.983  0.5507 -0.1479  0.5932
  167DOPC   C2120239   7.116   0.035  13.986  0.4014 -0.0329 -0.0880
  167DOPC   O2220240   7.069   0.116  14.064  0.1875 -0.4159 -0.1912
  167DOPC   C2220241   7.029  -0.038  13.879 -0.5029  0.1413 -0.0759
  167DOPC   H2R20242   6.958  -0.099  13.939 -2.5927  1.2237 -1.3303
  167DOPC   H2S20243   7.100  -0.102  13.823 -2.4380 -1.5516 -0.7444
  167DOPC    C320244   7.409   0.155  13.943 -0.3305  0.1175 -0.0421
  167DOPC    HX20245   7.452   0.085  13.868  0.1824  0.0619  0.3002
  167DOPC    HY20246   7.494   0.203  13.996  0.5470 -0.8063 -0.5770
  167DOPC   O3120247   7.321   0.249  13.882 -0.1070 -0.0503 -0.1969
  167DOPC   C3120248   7.293   0.363  13.949 -0.5820 -0.4268  0.7799
  167DOPC   O3220249   7.332   0.383  14.063  0.7033  0.2674  0.5273
  167DOPC   C3220250   7.220   0.472  13.870  0.1164  0.6177 -0.3647
  167DOPC   H2X20251   7.211   0.436  13.765  0.5827 -2.0077  0.4117
  167DOPC   H2Y20252   7.125   0.473  13.928  0.0265  0.5469 -0.5106
  167DOPC   C2320253   6.952   0.058  13.787 -0.2513 -0.6652 -0.0152
  167DOPC   H3R20254   6.881   0.118  13.848 -0.1507 -0.7826  0.2188
  167DOPC   H3S20255   6.886  -0.002  13.721 -1.5919 -1.2666  1.7817
  167DOPC   C2420256   7.039   0.146  13.697  0.1379  0.1410 -0.5267
  167DOPC   H4R20257   7.089   0.221  13.761  0.1818  1.1811 -1.7441
  167DOPC   H4S20258   6.975   0.201  13.625 -0.6771 -1.6778 -1.2686
  167DOPC   C2520259   7.149   0.070  13.638  0.1134  0.4347 -0.2438
  167DOPC   H5R20260   7.118  -0.028  13.594  1.4644 -0.4633  0.7123
  167DOPC   H5S20261   7.224   0.043  13.715  0.2673  1.9352  0.1488
  167DOPC   C2620262   7.230   0.144  13.524  0.4615 -0.2589 -0.0393
  167DOPC   H6R20263   7.316   0.080  13.494 -0.5849 -0.9387 -1.7455
  167DOPC   H6S20264   7.261   0.243  13.564  1.8989  0.2300 -2.2477
  167DOPC   C2720265   7.151   0.150  13.401  0.5517 -0.4444 -0.0388
  167DOPC   H7R20266   7.044   0.169  13.426  0.8783  0.6040  0.6258
  167DOPC   H7S20267   7.144   0.053  13.348 -1.3301 -1.1670  1.4126
  167DOPC   C2820268   7.206   0.254  13.303 -0.2053 -0.7976 -0.1436
  167DOPC   H8R20269   7.142   0.250  13.212  0.1662 -1.4209 -0.3819
  167DOPC   H8S20270   7.305   0.214  13.272  0.1518 -0.5691  0.6666
  167DOPC   C2920271   7.216   0.396  13.353  0.2757 -0.2219 -0.1073
  167DOPC   H9R20272   7.292   0.405  13.431  1.2636  1.1372 -1.1616
  167DOPC  C21020273   7.142   0.498  13.318 -0.5586 -0.1753 -0.3402
  167DOPC  H10R20274   7.178   0.599  13.342  2.6370 -1.2672 -0.0716
  167DOPC  C21120275   7.033   0.492  13.206  0.3424 -0.7875 -0.5975
  167DOPC  H11R20276   6.953   0.557  13.247  1.1312 -1.1937  1.7451
  167DOPC  H11S20277   6.982   0.394  13.210  0.1706 -0.6685  0.1880
  167DOPC  C21220278   7.090   0.527  13.075  0.2338 -0.1863  0.8933
  167DOPC  H12R20279   7.114   0.635  13.075  0.3723 -0.2126  1.7356
  167DOPC  H12S20280   7.185   0.470  13.060 -0.6653 -1.8436  1.2267
  167DOPC  C21320281   6.998   0.517  12.957  0.3212 -0.7838  0.3028
  167DOPC  H13R20282   6.927   0.602  12.950  1.3131  0.3520  2.8307
  167DOPC  H13S20283   6.941   0.421  12.958  1.1227 -1.2800  1.8569
  167DOPC  C21420284   7.076   0.510  12.832 -0.1922  0.8343  0.8869
  167DOPC  H14R20285   7.163   0.441  12.839 -0.1222  0.5814 -1.5021
  167DOPC  H14S20286   7.103   0.616  12.814 -0.2783  0.4771 -1.8975
  167DOPC  C21520287   6.992   0.452  12.716 -0.3822 -1.1270 -0.2907
  167DOPC  H15R20288   6.899   0.513  12.707 -0.4881 -0.8371  2.0340
  167DOPC  H15S20289   6.954   0.353  12.748  2.9080 -1.9254  1.5944
  167DOPC  C21620290   7.065   0.449  12.579  0.2496  0.1219 -0.4852
  167DOPC  H16R20291   7.126   0.356  12.576  1.5011  0.9421 -1.9530
  167DOPC  H16S20292   7.146   0.525  12.586 -0.6808  1.1694 -0.8806
  167DOPC  C21720293   6.972   0.470  12.461  0.5268  0.3596 -0.0153
  167DOPC  H17R20294   6.954   0.579  12.452 -1.3219  0.0363 -0.7926
  167DOPC  H17S20295   6.877   0.425  12.498  0.2151  0.2650 -0.9107
  167DOPC  C21820296   7.023   0.413  12.331 -0.3295 -0.6186 -0.7545
  167DOPC  H18R20297   7.127   0.443  12.306 -0.7799  1.0052 -0.7844
  167DOPC  H18S20298   6.948   0.438  12.253  0.3934  1.2282 -0.9231
  167DOPC  H18T20299   7.024   0.303  12.344 -0.5826 -0.4392  1.1924
  167DOPC   C3320300   7.289   0.612  13.877  0.7634 -0.5513  0.0252
  167DOPC   H3X20301   7.333   0.633  13.977  2.0055  2.8586 -1.1046
  167DOPC   H3Y20302   7.214   0.689  13.850  1.3719 -0.4976 -1.6259
  167DOPC   C3420303   7.398   0.629  13.772 -0.0870  0.5008 -0.6808
  167DOPC   H4X20304   7.360   0.614  13.669 -0.3625 -0.8713 -0.4015
  167DOPC   H4Y20305   7.475   0.551  13.789 -0.1850  0.5586  0.0587
  167DOPC   C3520306   7.475   0.762  13.789 -0.0280  0.8182  0.2703
  167DOPC   H5X20307   7.583   0.754  13.766 -0.3641  1.2027 -1.5365
  167DOPC   H5Y20308   7.478   0.778  13.899 -1.0915  2.1783  0.1319
  167DOPC   C3620309   7.409   0.880  13.717  0.6328 -0.0276 -0.1224
  167DOPC   H6X20310   7.302   0.864  13.692  1.2145 -0.4628 -2.6052
  167DOPC   H6Y20311   7.408   0.966  13.787 -0.9361  1.4058 -1.7864
  167DOPC   C3720312   7.484   0.936  13.595 -0.8584 -0.2990  0.2474
  167DOPC   H7X20313   7.588   0.967  13.618 -1.9186  2.1252  2.2580
  167DOPC   H7Y20314   7.498   0.844  13.535  0.5234 -0.6195  1.0345
  167DOPC   C3820315   7.404   1.045  13.520  0.8146  0.1579 -0.6377
  167DOPC   H8X20316   7.386   1.131  13.587  1.2007 -0.0419 -0.2759
  167DOPC   H8Y20317   7.304   1.002  13.498  0.9483 -0.3426 -0.2743
  167DOPC   C3920318   7.475   1.084  13.390 -0.2956 -0.9185  0.0518
  167DOPC   H9X20319   7.563   1.148  13.406  0.1623 -1.6060  0.3587
  167DOPC  C31020320   7.418   1.065  13.269 -0.5920  0.0505 -0.6923
  167DOPC  H10X20321   7.469   1.111  13.182 -0.1837  0.4272 -0.2570
  167DOPC  C31120322   7.294   0.985  13.241 -0.6094 -0.8348 -0.6221
  167DOPC  H11X20323   7.290   0.899  13.312 -1.7453 -0.3114 -0.0325
  167DOPC  H11Y20324   7.307   0.934  13.143  0.0715 -0.6741 -0.6238
  167DOPC  C31220325   7.164   1.067  13.263  0.1376 -0.1558  0.5670
  167DOPC  H12X20326   7.177   1.125  13.357 -1.4999 -0.8534  1.2561
  167DOPC  H12Y20327   7.087   0.988  13.269  1.6445 -1.6767  0.8217
  167DOPC  C31320328   7.136   1.174  13.154 -0.3332  0.6182 -0.9353
  167DOPC  H13X20329   7.232   1.224  13.131 -1.1026  2.8432  0.3492
  167DOPC  H13Y20330   7.104   1.110  13.068 -1.6016 -0.2597  0.1544
  167DOPC  C31420331   7.022   1.266  13.179 -0.0869 -0.2690 -0.4548
  167DOPC  H14X20332   6.934   1.204  13.209  1.5645 -1.8302  1.4592
  167DOPC  H14Y20333   7.040   1.333  13.266  1.6190 -0.2589 -0.7943
  167DOPC  C31520334   6.986   1.361  13.060  0.4087  0.9200  0.0058
  167DOPC  H15X20335   6.932   1.296  12.989 -0.1872  0.6343  0.7002
  167DOPC  H15Y20336   7.076   1.403  13.010 -0.8052  1.3555 -1.9166
  167DOPC  C31620337   6.891   1.472  13.106 -0.2679 -0.5080 -0.7280
  167DOPC  H16X20338   6.835   1.511  13.018 -0.3409  3.9199  1.0088
  167DOPC  H16Y20339   6.815   1.438  13.179 -0.1431  0.5204 -0.0976
  167DOPC  C31720340   6.961   1.599  13.161  0.3780  0.7914  0.0746
  167DOPC  H17X20341   6.915   1.620  13.260 -1.0344 -2.1006  0.1528
  167DOPC  H17Y20342   7.070   1.585  13.182  0.7925  0.3365 -2.1235
  167DOPC  C31820343   6.944   1.721  13.069  0.3806 -0.3136  0.2348
  167DOPC  H18X20344   7.021   1.721  12.988  0.8228  1.2160  0.6272
  167DOPC  H18Y20345   6.840   1.739  13.035  0.2329  1.5173  1.5314
  167DOPC  H18Z20346   6.966   1.815  13.123 -2.1125  0.7388 -0.4216
  168DOPC     N20347   1.384   0.992  14.085  0.2389  0.3114  0.8125
  168DOPC   C1220348   1.528   0.989  14.042  0.3865  0.0300 -0.0639
  168DOPC  H12A20349   1.592   1.041  14.111 -1.1866  1.0241  0.7027
  168DOPC  H12B20350   1.536   1.056  13.957 -1.3288  1.8066  1.0835
  168DOPC   C1320351   1.350   0.900  14.196  0.3141 -0.4492 -0.2890
  168DOPC  H13A20352   1.246   0.919  14.218  0.8316  0.9659  1.1970
  168DOPC  H13B20353   1.359   0.799  14.161 -1.1635 -0.5822 -0.3281
  168DOPC  H13C20354   1.411   0.925  14.282 -0.1683 -1.6159  0.4093
  168DOPC   C1420355   1.301   0.961  13.972 -0.4808  0.1393 -0.1515
  168DOPC  H14A20356   1.334   0.870  13.926  0.8007  0.1341  0.7318
  168DOPC  H14B20357   1.195   0.955  13.990 -0.9032 -1.9473 -2.8453
  168DOPC  H14C20358   1.312   1.038  13.897  1.4621 -1.5173 -1.6674
  168DOPC   C1520359   1.354   1.130  14.133  0.6176 -0.4143 -0.1175
  168DOPC  H15A20360   1.249   1.151  14.151 -0.7835 -4.7490 -2.0377
  168DOPC  H15B20361   1.382   1.208  14.064  0.4001 -1.3036 -1.2381
  168DOPC  H15C20362   1.403   1.146  14.228 -1.8489  0.8049  1.0414
  168DOPC   C1120363   1.589   0.844  14.005  0.0481 -1.0776  0.5549
  168DOPC  H11A20364   1.696   0.856  13.977 -0.5327  0.2897 -1.2474
  168DOPC  H11B20365   1.601   0.786  14.099 -1.7453 -0.1823  1.3935
  168DOPC     P20366   1.564   0.630  13.850  0.2947 -0.3094 -0.2641
  168DOPC   O1320367   1.460   0.529  13.853 -0.6226  1.0673 -0.3769
  168DOPC   O1420368   1.694   0.593  13.899  0.4545  0.2383 -0.2104
  168DOPC   O1220369   1.513   0.763  13.915  0.3220  0.2400 -1.0235
  168DOPC   O1120370   1.591   0.658  13.701 -0.4087 -0.4485  0.2258
  168DOPC    C120371   1.640   0.786  13.650  0.4337  0.4649 -0.2493
  168DOPC    HA20372   1.706   0.826  13.730  1.5172  0.6075 -1.1955
  168DOPC    HB20373   1.554   0.857  13.648  0.1068  0.0626 -0.7014
  168DOPC    C220374   1.701   0.773  13.508 -0.3444  0.9100 -0.1150
  168DOPC    HS20375   1.748   0.867  13.471  0.9191  0.3839  0.1198
  168DOPC   O2120376   1.594   0.745  13.418  0.4964 -0.3314 -0.2226
  168DOPC   C2120377   1.531   0.849  13.374 -0.2200  0.4413  0.5342
  168DOPC   O2220378   1.528   0.956  13.426  0.1994 -0.0529 -0.1100
  168DOPC   C2220379   1.443   0.807  13.247  0.1868 -0.2457  0.3062
  168DOPC   H2R20380   1.335   0.814  13.271 -0.0318 -0.7841 -0.4628
  168DOPC   H2S20381   1.472   0.704  13.217  3.3691  0.2733  1.1915
  168DOPC    C320382   1.799   0.655  13.512 -0.1367  0.3901  0.0222
  168DOPC    HX20383   1.744   0.575  13.565  2.9357 -1.0603  1.2542
  168DOPC    HY20384   1.889   0.695  13.563 -0.4495  1.1245  0.0017
  168DOPC   O3120385   1.838   0.609  13.381  0.4607  1.1159  0.0935
  168DOPC   C3120386   1.911   0.692  13.302  0.6262 -0.0236 -0.4256
  168DOPC   O3220387   1.970   0.791  13.340 -0.4547  0.3546 -0.1065
  168DOPC   C3220388   1.915   0.633  13.165  0.0268 -0.0966  0.5832
  168DOPC   H2X20389   1.976   0.541  13.176 -0.1432 -0.2780  0.0301
  168DOPC   H2Y20390   1.811   0.609  13.136 -0.4173  3.4683 -1.3011
  168DOPC   C2320391   1.489   0.895  13.131 -0.0686  0.1070  0.2109
  168DOPC   H3R20392   1.476   1.005  13.140  1.1681  0.3191 -0.4071
  168DOPC   H3S20393   1.426   0.877  13.041 -1.9555  1.6013  1.1336
  168DOPC   C2420394   1.636   0.872  13.099 -0.4164 -0.2609  0.9605
  168DOPC   H4R20395   1.670   0.766  13.097  3.6662  0.8564  1.8029
  168DOPC   H4S20396   1.684   0.926  13.183 -3.4030  0.0594  2.5803
  168DOPC   C2520397   1.667   0.947  12.968 -0.4729  0.6490 -0.4955
  168DOPC   H5R20398   1.775   0.969  12.977 -0.0405 -1.6332  0.5152
  168DOPC   H5S20399   1.615   1.045  12.965 -1.1043  0.3188 -0.4607
  168DOPC   C2620400   1.648   0.858  12.842  0.8090  0.1875  0.5609
  168DOPC   H6R20401   1.538   0.849  12.825  0.7699  1.5158 -0.1042
  168DOPC   H6S20402   1.696   0.760  12.856  0.3957 -0.2871 -1.1090
  168DOPC   C2720403   1.726   0.922  12.722  0.0039 -0.4364 -1.0851
  168DOPC   H7R20404   1.835   0.908  12.732  0.0649  1.1621  1.1681
  168DOPC   H7S20405   1.725   1.033  12.715 -0.1825 -0.2250  1.3987
  168DOPC   C2820406   1.680   0.859  12.586  0.1673 -0.3768 -0.1876
  168DOPC   H8R20407   1.572   0.887  12.581 -0.1174 -0.6929  2.5440
  168DOPC   H8S20408   1.669   0.748  12.583  1.4423 -0.6572  2.5879
  168DOPC   C2920409   1.758   0.922  12.477 -0.3759  0.3484  0.0827
  168DOPC   H9R20410   1.765   1.032  12.476 -1.5008  0.4266 -0.0022
  168DOPC  C21020411   1.797   0.851  12.370 -0.1335  0.2152 -1.0973
  168DOPC  H10R20412   1.840   0.909  12.287 -0.6758 -1.2957 -2.4952
  168DOPC  C21120413   1.796   0.702  12.347 -0.0593  0.1346  0.6454
  168DOPC  H11R20414   1.754   0.644  12.432 -1.2890  0.6874  0.4486
  168DOPC  H11S20415   1.897   0.660  12.328 -0.5536 -1.7721  1.9805
  168DOPC  C21220416   1.699   0.664  12.234  0.1043 -0.2509 -1.1457
  168DOPC  H12R20417   1.600   0.708  12.257  0.0136 -0.7860 -0.4866
  168DOPC  H12S20418   1.694   0.553  12.226  1.3581 -0.3558 -0.6977
  168DOPC  C21320419   1.751   0.705  12.097 -0.3478 -0.0494  0.6348
  168DOPC  H13R20420   1.856   0.668  12.091  0.8062  3.0471 -0.2805
  168DOPC  H13S20421   1.755   0.816  12.096  0.6317 -0.0498  2.1169
  168DOPC  C21420422   1.678   0.652  11.976  0.8410  0.7091  0.0861
  168DOPC  H14R20423   1.678   0.541  11.987  2.3877  0.6484 -0.2768
  168DOPC  H14S20424   1.731   0.674  11.881  1.6681 -4.1581 -0.8515
  168DOPC  C21520425   1.533   0.699  11.980 -0.2303 -0.9509  0.0327
  168DOPC  H15R20426   1.538   0.808  11.960 -0.4165 -0.9688 -0.1153
  168DOPC  H15S20427   1.481   0.683  12.077 -1.1219 -4.0760 -0.8590
  168DOPC  C21620428   1.448   0.658  11.861 -0.3368 -0.3836  0.1865
  168DOPC  H16R20429   1.346   0.654  11.904 -0.4730 -1.8054 -0.2046
  168DOPC  H16S20430   1.473   0.558  11.818 -1.2499 -0.1676 -0.9189
  168DOPC  C21720431   1.438   0.763  11.741  0.1638  0.8595 -0.2283
  168DOPC  H17R20432   1.537   0.786  11.697  1.0092  0.0646  1.2016
  168DOPC  H17S20433   1.389   0.855  11.782 -2.9602 -0.4737 -0.6881
  168DOPC  C21820434   1.340   0.710  11.623 -0.3869  0.1451  0.7818
  168DOPC  H18R20435   1.385   0.611  11.598 -2.0543 -0.4492 -0.0173
  168DOPC  H18S20436   1.347   0.787  11.543 -0.6399  0.2677  0.8767
  168DOPC  H18T20437   1.234   0.706  11.657 -0.1697  2.4380  1.9290
  168DOPC   C3320438   1.981   0.735  13.077  0.2019 -0.0245 -0.2070
  168DOPC   H3X20439   2.080   0.765  13.118 -0.9454  0.5430  2.3170
  168DOPC   H3Y20440   1.923   0.830  13.068 -0.9345 -0.5885  0.9120
  168DOPC   C3420441   1.994   0.693  12.927 -0.0667 -1.0884  0.1799
  168DOPC   H4X20442   1.891   0.679  12.887  0.5197 -3.3939 -0.6846
  168DOPC   H4Y20443   2.043   0.595  12.914  1.7514 -0.3722  1.2401
  168DOPC   C3520444   2.065   0.803  12.838  0.5228  0.4693  0.2979
  168DOPC   H5X20445   2.167   0.823  12.878  0.2292  1.6890  0.4791
  168DOPC   H5Y20446   2.011   0.899  12.854 -0.6499  0.0418 -0.8657
  168DOPC   C3620447   2.062   0.775  12.691  0.5095  0.1958 -0.8868
  168DOPC   H6X20448   2.118   0.679  12.685  2.1174  1.1015 -0.7819
  168DOPC   H6Y20449   1.958   0.765  12.653 -0.5224  1.3810  1.3937
  168DOPC   C3720450   2.133   0.873  12.603 -0.0417 -0.2910 -0.1712
  168DOPC   H7X20451   2.076   0.967  12.591 -0.5225 -0.6644 -0.8437
  168DOPC   H7Y20452   2.224   0.900  12.661  0.1585 -1.4839  0.1062
  168DOPC   C3820453   2.148   0.832  12.458 -0.2367 -0.2569  0.6202
  168DOPC   H8X20454   2.047   0.825  12.412 -1.4952 -0.0957  3.1641
  168DOPC   H8Y20455   2.200   0.734  12.449  0.5662  0.1751  0.4886
  168DOPC   C3920456   2.229   0.939  12.396  0.4591  0.0463  0.4465
  168DOPC   H9X20457   2.338   0.922  12.403  0.9195  1.6348 -1.9084
  168DOPC  C31020458   2.194   1.041  12.310 -0.1696 -0.2747 -0.6885
  168DOPC  H10X20459   2.270   1.119  12.295  0.6541 -0.5414  1.6605
  168DOPC  C31120460   2.056   1.080  12.255 -0.1645  0.1006 -0.6242
  168DOPC  H11X20461   1.981   1.100  12.334 -4.1337  0.1599 -4.1025
  168DOPC  H11Y20462   2.012   1.001  12.191  0.9562 -0.4769 -0.7057
  168DOPC  C31220463   2.067   1.202  12.163 -1.0483  0.2860  0.5729
  168DOPC  H12X20464   2.119   1.158  12.075 -2.7495 -1.0544  0.1801
  168DOPC  H12Y20465   2.136   1.282  12.198  0.8363 -1.0597  0.1086
  168DOPC  C31320466   1.943   1.266  12.114  0.4430  0.1007 -0.7682
  168DOPC  H13X20467   1.875   1.190  12.070 -1.5730 -0.5478  3.0821
  168DOPC  H13Y20468   1.885   1.287  12.206  0.7188 -1.5679 -0.1894
  168DOPC  C31420469   1.965   1.394  12.028  0.5314 -0.0577 -0.6380
  168DOPC  H14X20470   1.861   1.431  12.014  0.4025 -0.4547 -0.7415
  168DOPC  H14Y20471   2.024   1.476  12.076 -0.0882 -0.2653  0.5088
  168DOPC  C31520472   2.024   1.366  11.890 -0.7474  0.0432 -1.0957
  168DOPC  H15X20473   1.972   1.274  11.855 -2.3010  0.0655  0.9236
  168DOPC  H15Y20474   2.134   1.353  11.898 -0.5230  2.5374  1.6998
  168DOPC  C31620475   1.985   1.466  11.788 -0.0306 -0.3866  0.9479
  168DOPC  H16X20476   1.878   1.495  11.795 -0.0143  0.4054 -1.2182
  168DOPC  H16Y20477   2.044   1.560  11.795 -2.0059  0.8401  1.9631
  168DOPC  C31720478   2.006   1.414  11.644  0.0778  0.2253  0.5870
  168DOPC  H17X20479   2.110   1.378  11.631 -0.0505 -0.5128  1.4395
  168DOPC  H17Y20480   1.939   1.329  11.615 -0.0597 -0.1947  2.0615
  168DOPC  C31820481   1.982   1.512  11.524  0.3332 -0.1073  0.6346
  168DOPC  H18X20482   2.045   1.603  11.534 -0.8580  0.9779 -1.1144
  168DOPC  H18Y20483   1.998   1.458  11.429  1.8158  1.8596 -0.2974
  168DOPC  H18Z20484   1.879   1.554  11.518  0.1936 -0.2464  1.7284
  169DOPC     N20485   7.659   0.602  14.369  0.4783 -0.7470 -0.2128
  169DOPC   C1220486   7.626   0.619  14.226  0.0967  0.8133 -0.1827
  169DOPC  H12A20487   7.571   0.710  14.206 -2.3573 -0.4828  0.2785
  169DOPC  H12B20488   7.556   0.538  14.212  1.5382 -0.4570 -0.3828
  169DOPC   C1320489   7.725   0.470  14.400  0.0751 -0.1582  0.3258
  169DOPC  H13A20490   7.659   0.396  14.357  0.5654 -0.8600  0.7612
  169DOPC  H13B20491   7.825   0.458  14.361  0.8667  2.1772  1.4803
  169DOPC  H13C20492   7.723   0.446  14.505 -2.1045 -2.2169 -0.1019
  169DOPC   C1420493   7.534   0.612  14.451 -0.3598  0.1490 -0.0078
  169DOPC  H14A20494   7.475   0.685  14.396 -0.2144  0.6255  0.4634
  169DOPC  H14B20495   7.478   0.519  14.446  3.5323 -2.4269 -0.3356
  169DOPC  H14C20496   7.554   0.654  14.548 -1.6547  0.2274  0.2552
  169DOPC   C1520497   7.751   0.711  14.407 -0.1316 -0.5902 -0.2172
  169DOPC  H15A20498   7.781   0.714  14.511 -0.9061  0.3411 -0.0026
  169DOPC  H15B20499   7.702   0.804  14.384  1.2082 -0.4715 -3.0699
  169DOPC  H15C20500   7.835   0.717  14.340  0.2407 -0.2786  0.2681
  169DOPC   C1120501   7.729   0.610  14.117  0.2036 -0.6026  0.0934
  169DOPC  H11A20502   7.767   0.506  14.125 -0.0720 -1.0092 -2.8017
  169DOPC  H11B20503   7.683   0.617  14.016  1.0986  0.4942 -0.2580
  169DOPC     P20504   7.823   0.855  14.082  0.1597  0.0295  0.2036
  169DOPC   O1320505   7.961   0.907  14.072 -0.2568  0.2082  0.4787
  169DOPC   O1420506   7.740   0.935  14.169  0.0694 -0.2206  0.5903
  169DOPC   O1220507   7.830   0.706  14.141 -0.9667  0.2809  0.3913
  169DOPC   O1120508   7.756   0.835  13.936 -0.4165  0.0734  0.4904
  169DOPC    C120509   7.843   0.761  13.846  0.0943  0.4957 -0.5915
  169DOPC    HA20510   7.779   0.692  13.787 -1.3316  1.6266 -0.4020
  169DOPC    HB20511   7.921   0.699  13.897  1.0157  2.0258 -0.0772
  169DOPC    C220512   7.914   0.859  13.758  0.2023 -0.4997  0.7465
  169DOPC    HS20513   8.007   0.902  13.802 -1.1855  2.7712  0.7562
  169DOPC   O2120514   7.832   0.971  13.726  0.1639  0.2595 -0.2879
  169DOPC   C2120515   7.893   1.080  13.693  0.5582  0.3999 -0.7881
  169DOPC   O2220516   8.012   1.093  13.673  0.7560 -0.8164 -0.1956
  169DOPC   C2220517   7.789   1.199  13.684 -0.6137  0.5566 -0.2930
  169DOPC   H2R20518   7.713   1.179  13.763  0.4657 -1.6313  0.2620
  169DOPC   H2S20519   7.737   1.183  13.587 -1.1726  1.7298 -0.1993
  169DOPC    C320520   7.962   0.793  13.634 -0.1251  0.6782 -0.5524
  169DOPC    HX20521   8.005   0.858  13.554  0.1285 -1.0523 -1.8937
  169DOPC    HY20522   7.883   0.735  13.581  0.5130 -2.0342  1.2162
  169DOPC   O3120523   8.053   0.686  13.663  0.5412  0.0796 -0.1236
  169DOPC   C3120524   8.180   0.718  13.692  1.0265  0.5237 -1.0271
  169DOPC   O3220525   8.231   0.827  13.690  0.8626 -0.1428  0.6163
  169DOPC   C3220526   8.243   0.589  13.758 -0.1590 -0.0142 -0.1129
  169DOPC   H2X20527   8.340   0.616  13.805 -1.5402  1.5569  2.0684
  169DOPC   H2Y20528   8.172   0.565  13.841  0.8523 -0.5491  0.6188
  169DOPC   C2320529   7.856   1.336  13.692  0.1904  0.2522  0.0674
  169DOPC   H3R20530   7.948   1.342  13.629  1.6377  0.8724  2.1577
  169DOPC   H3S20531   7.880   1.342  13.800 -0.7006 -2.0901  0.4625
  169DOPC   C2420532   7.752   1.442  13.648  0.0693 -0.0519 -0.1328
  169DOPC   H4R20533   7.649   1.419  13.681 -0.7604 -0.4100 -2.7604
  169DOPC   H4S20534   7.751   1.439  13.537 -1.9753 -0.0852 -0.1368
  169DOPC   C2520535   7.798   1.575  13.709 -1.0571 -0.4542  0.0012
  169DOPC   H5R20536   7.790   1.566  13.819 -1.8134  0.0812 -0.0008
  169DOPC   H5S20537   7.726   1.654  13.678  2.1362  2.2044 -1.2122
  169DOPC   C2620538   7.939   1.621  13.663  0.3651  0.8970 -0.1307
  169DOPC   H6R20539   7.943   1.633  13.552 -0.7934 -2.0254 -0.5874
  169DOPC   H6S20540   8.016   1.548  13.693 -0.3961 -0.6248 -1.6863
  169DOPC   C2720541   7.974   1.758  13.724  0.6239  0.3946  0.1981
  169DOPC   H7R20542   7.937   1.751  13.828 -1.1018  1.1040 -0.3469
  169DOPC   H7S20543   7.906   1.826  13.669  0.9023 -0.0604 -0.7468
  169DOPC   C2820544   8.120   1.800  13.726  0.6129 -0.5154 -1.2796
  169DOPC   H8R20545   8.177   1.730  13.790 -1.9878 -0.9888  0.6589
  169DOPC   H8S20546   8.126   1.897  13.780  0.0546 -1.5874  0.8040
  169DOPC   C2920547   8.187   1.798  13.591  0.6186 -0.5142  0.0536
  169DOPC   H9R20548   8.226   1.698  13.565 -1.1622 -1.2754  0.1588
  169DOPC  C21020549   8.202   1.902  13.504  0.0065  0.1688  0.1740
  169DOPC  H10R20550   8.246   1.875  13.407  0.3140  0.1287  0.3254
  169DOPC  C21120551   8.137   2.034  13.530  0.2419 -0.2746 -0.2042
  169DOPC  H11R20552   8.215   2.112  13.526  0.0822 -0.1365 -0.8489
  169DOPC  H11S20553   8.073   2.040  13.620  0.8167 -1.7550  0.3394
  169DOPC  C21220554   8.035   2.063  13.413  0.2805  0.2776  0.2598
  169DOPC  H12R20555   7.967   1.975  13.415  2.3265 -1.3848  0.1554
  169DOPC  H12S20556   8.092   2.066  13.317 -0.3424  1.5150 -0.0894
  169DOPC  C21320557   7.955   2.195  13.424 -0.8066 -0.6262 -0.0053
  169DOPC  H13R20558   8.024   2.280  13.443  0.5780 -1.4706 -1.0610
  169DOPC  H13S20559   7.901   2.194  13.521 -1.0209  1.0945 -0.0747
  169DOPC  C21420560   7.858   2.218  13.315  0.0943  0.2614  0.3792
  169DOPC  H14R20561   7.921   2.222  13.224  1.4223 -0.1116  1.2561
  169DOPC  H14S20562   7.812   2.318  13.336 -0.7244 -0.7234  4.0551
  169DOPC  C21520563   7.747   2.103  13.319 -0.1086 -0.4090  0.7156
  169DOPC  H15R20564   7.737   2.072  13.425 -0.1507  1.7769  1.3922
  169DOPC  H15S20565   7.782   2.019  13.255 -0.2914 -0.1991  0.3328
  169DOPC  C21620566   7.607   2.138  13.282 -0.9351 -1.0963 -0.0252
  169DOPC  H16R20567   7.597   2.175  13.177 -1.5983  1.8737  0.9722
  169DOPC  H16S20568   7.583   2.229  13.342 -0.2079  0.0639 -1.4246
  169DOPC  C21720569   7.496   2.035  13.311  0.2292 -0.2769  0.3044
  169DOPC  H17R20570   7.513   1.942  13.253  0.0282 -0.9337  1.2760
  169DOPC  H17S20571   7.397   2.066  13.269  0.4702 -0.6769 -0.5834
  169DOPC  C21820572   7.478   1.995  13.458 -0.4039 -0.6653 -0.3718
  169DOPC  H18R20573   7.482   2.086  13.522  0.5409 -0.8078 -0.2143
  169DOPC  H18S20574   7.552   1.917  13.485  0.2998  0.0577 -0.1773
  169DOPC  H18T20575   7.379   1.946  13.475 -0.4266 -0.5318 -0.1140
  169DOPC   C3320576   8.270   0.477  13.657  0.0146  0.0968 -0.3030
  169DOPC   H3X20577   8.169   0.454  13.618 -0.3459  0.5236  0.3686
  169DOPC   H3Y20578   8.303   0.380  13.701 -0.1836  0.4447  0.6136
  169DOPC   C3420579   8.374   0.504  13.545 -0.4488 -0.0930 -0.3881
  169DOPC   H4X20580   8.350   0.591  13.481  1.1930  1.5543  1.1404
  169DOPC   H4Y20581   8.381   0.414  13.481 -0.5005  0.5779 -1.3498
  169DOPC   C3520582   8.515   0.539  13.603  0.0690 -0.5317  0.0954
  169DOPC   H5X20583   8.546   0.465  13.680  0.4263  0.9370  1.3878
  169DOPC   H5Y20584   8.506   0.638  13.651  1.0010 -0.8119  0.8731
  169DOPC   C3620585   8.625   0.555  13.490 -0.1233  0.5821 -0.2410
  169DOPC   H6X20586   8.575   0.621  13.416 -0.4967 -1.1217 -1.5397
  169DOPC   H6Y20587   8.716   0.608  13.526  0.6068 -0.6921 -0.1584
  169DOPC   C3720588   8.658   0.428  13.414  0.6505 -1.2027  0.5405
  169DOPC   H7X20589   8.703   0.360  13.490 -0.1190  0.4642  2.5794
  169DOPC   H7Y20590   8.566   0.377  13.380  0.5914 -0.8460  0.1581
  169DOPC   C3820591   8.752   0.444  13.297  0.1103 -0.0690  0.2303
  169DOPC   H8X20592   8.817   0.355  13.281  1.9411  1.5126 -1.9507
  169DOPC   H8Y20593   8.837   0.509  13.326  1.6473 -1.7309 -0.3348
  169DOPC   C3920594   8.683   0.490  13.166 -0.8027  0.0777  0.0063
  169DOPC   H9X20595   8.653   0.596  13.171 -0.2360  0.1893  2.9302
  169DOPC  C31020596   8.681   0.419  13.053 -0.3999 -0.1040  0.2694
  169DOPC  H10X20597   8.631   0.464  12.966 -2.4191 -0.1094  1.3594
  169DOPC  C31120598   8.721   0.272  13.050 -0.3303 -0.3083 -0.1301
  169DOPC  H11X20599   8.740   0.226  13.149 -0.5991  1.1947  0.6500
  169DOPC  H11Y20600   8.815   0.265  12.991  0.2239  0.0106  0.6902
  169DOPC  C31220601   8.615   0.188  12.978 -0.4759 -0.2768  0.2219
  169DOPC  H12X20602   8.615   0.209  12.869 -0.1372  1.3831  0.5145
  169DOPC  H12Y20603   8.514   0.226  13.002 -0.8871 -1.2032 -0.0051
  169DOPC  C31320604   8.648   0.037  12.996  0.3307  0.1715 -0.7450
  169DOPC  H13X20605   8.605  -0.016  12.909  0.4426  2.6794 -2.4363
  169DOPC  H13Y20606   8.757   0.015  12.989 -0.1459 -2.8339 -0.0459
  169DOPC  C31420607   8.591  -0.017  13.133  0.1200  0.1646 -0.0310
  169DOPC  H14X20608   8.635   0.036  13.220 -0.5790 -2.7243  2.2371
  169DOPC  H14Y20609   8.482  -0.001  13.136  0.0417  0.6349 -2.8870
  169DOPC  C31520610   8.614  -0.170  13.145 -0.1196  0.0928 -0.3024
  169DOPC  H15X20611   8.721  -0.189  13.165  0.2383  1.2484 -0.9983
  169DOPC  H15Y20612   8.584  -0.216  13.048  1.0098  1.3798 -1.3067
  169DOPC  C31620613   8.520  -0.234  13.265  0.1707 -0.5324  0.7814
  169DOPC  H16X20614   8.552  -0.186  13.360 -1.4433 -2.2018  2.2579
  169DOPC  H16Y20615   8.414  -0.203  13.257  0.2472 -0.1398  1.2332
  169DOPC  C31720616   8.525  -0.394  13.273  0.4735 -0.5237 -0.1806
  169DOPC  H17X20617   8.460  -0.422  13.358  4.1136 -0.5570  2.8208
  169DOPC  H17Y20618   8.474  -0.422  13.178  1.3305  2.1336 -1.5223
  169DOPC  C31820619   8.661  -0.457  13.307 -0.7319 -0.4145 -0.8637
  169DOPC  H18X20620   8.727  -0.458  13.217 -1.0826 -0.2073 -1.1283
  169DOPC  H18Y20621   8.708  -0.395  13.386 -1.3329 -1.5231  0.4158
  169DOPC  H18Z20622   8.643  -0.562  13.338  0.4717 -0.7574 -1.2743
  170DOPC     N20623   0.364   8.435  14.192 -0.0013 -0.4876  0.1109
  170DOPC   C1220624   0.475   8.352  14.124 -0.0682  0.2866  0.5353
  170DOPC  H12A20625   0.552   8.423  14.097 -1.4483  1.7312  0.2242
  170DOPC  H12B20626   0.433   8.314  14.032 -1.6153  0.7989  0.9913
  170DOPC   C1320627   0.240   8.351  14.197 -0.6573 -0.5595 -0.5431
  170DOPC  H13A20628   0.165   8.398  14.258 -0.9207 -0.0425 -1.2586
  170DOPC  H13B20629   0.201   8.325  14.100  0.3397  2.6825 -1.9542
  170DOPC  H13C20630   0.266   8.262  14.253 -2.8743 -1.0821 -0.2651
  170DOPC   C1420631   0.342   8.564  14.113 -0.8332  0.7091 -0.4253
  170DOPC  H14A20632   0.300   8.533  14.019  0.3294 -0.0995 -0.7097
  170DOPC  H14B20633   0.272   8.633  14.156 -0.7337  0.2923  0.4370
  170DOPC  H14C20634   0.439   8.611  14.106 -0.5411  0.0881 -0.7133
  170DOPC   C1520635   0.398   8.470  14.328  0.5015  0.1244  0.8462
  170DOPC  H15A20636   0.322   8.538  14.365 -0.1228 -0.5386  0.8009
  170DOPC  H15B20637   0.487   8.531  14.318 -0.0451  0.5002 -3.4181
  170DOPC  H15C20638   0.412   8.381  14.388 -3.8242 -2.8261 -1.9346
  170DOPC   C1120639   0.537   8.231  14.199  0.2763  0.1186  0.1447
  170DOPC  H11A20640   0.641   8.206  14.168  0.4282  0.2537  0.5391
  170DOPC  H11B20641   0.550   8.258  14.306  1.0057 -0.9365  0.3437
  170DOPC     P20642   0.429   8.042  14.046 -0.3096 -0.2084  0.0764
  170DOPC   O1320643   0.362   7.920  14.069  0.0059  0.1362 -0.2252
  170DOPC   O1420644   0.554   8.041  13.966  0.5549 -0.6234  0.3961
  170DOPC   O1220645   0.454   8.117  14.187  0.3847 -0.0618 -0.0715
  170DOPC   O1120646   0.321   8.142  13.986  0.3583 -0.2950  0.5448
  170DOPC    C120647   0.288   8.147  13.844 -0.0576 -0.6568  0.1171
  170DOPC    HA20648   0.375   8.143  13.774 -0.0821 -2.4540  0.1442
  170DOPC    HB20649   0.229   8.239  13.822  3.6249  1.6553 -1.0572
  170DOPC    C220650   0.208   8.028  13.794  0.0910 -0.2756  0.6979
  170DOPC    HS20651   0.153   7.987  13.881  0.7709  1.4347  1.9944
  170DOPC   O2120652   0.306   7.928  13.763 -0.1641 -0.0258 -0.0555
  170DOPC   C2120653   0.262   7.802  13.784 -0.6262  0.4074  0.0085
  170DOPC   O2220654   0.150   7.764  13.803 -0.0216  0.0738 -0.3342
  170DOPC   C2220655   0.388   7.710  13.779 -0.6485  0.2399  0.1672
  170DOPC   H2R20656   0.393   7.661  13.878  1.1584  0.9765  0.4674
  170DOPC   H2S20657   0.484   7.763  13.760 -1.3220  1.2456 -0.5269
  170DOPC    C320658   0.122   8.058  13.670 -0.0207  0.0001 -0.8999
  170DOPC    HX20659   0.091   7.957  13.638  0.4625  0.4031 -2.7477
  170DOPC    HY20660   0.192   8.102  13.596 -0.5791  1.8363 -0.4051
  170DOPC   O3120661   0.010   8.152  13.691 -0.1182  0.5194 -0.1233
  170DOPC   C3120662  -0.107   8.092  13.726 -0.4419  0.8741 -0.8259
  170DOPC   O3220663  -0.115   7.980  13.779 -0.4049  0.1311 -0.2558
  170DOPC   C3220664  -0.225   8.178  13.679  0.4768  0.7943 -0.7286
  170DOPC   H2X20665  -0.315   8.154  13.739  0.0026 -1.4735 -2.2432
  170DOPC   H2Y20666  -0.205   8.284  13.706 -0.2534  0.8536 -0.3991
  170DOPC   C2320667   0.365   7.601  13.670 -0.0776  0.2295 -0.3708
  170DOPC   H3R20668   0.265   7.553  13.668 -0.1336  0.3568 -1.7148
  170DOPC   H3S20669   0.429   7.512  13.683 -0.1833  0.3790  1.2911
  170DOPC   C2420670   0.389   7.655  13.528  0.5185 -1.0183  0.1692
  170DOPC   H4R20671   0.480   7.716  13.510  0.0165 -0.0870  0.7257
  170DOPC   H4S20672   0.303   7.718  13.497  1.1281  0.4042  1.2635
  170DOPC   C2520673   0.416   7.542  13.424  0.6357  0.2126 -0.2818
  170DOPC   H5R20674   0.322   7.486  13.404  0.3822  0.0593  1.2810
  170DOPC   H5S20675   0.475   7.459  13.469 -0.6415  0.0818  1.2501
  170DOPC   C2620676   0.466   7.600  13.290  0.0306  0.1042  0.6335
  170DOPC   H6R20677   0.491   7.506  13.238  1.6314  0.8823 -0.0647
  170DOPC   H6S20678   0.555   7.665  13.303  1.2590 -1.8925  3.0273
  170DOPC   C2720679   0.359   7.688  13.218  0.1765 -0.3581  0.0798
  170DOPC   H7R20680   0.382   7.789  13.260  0.9855 -1.0094  1.2737
  170DOPC   H7S20681   0.256   7.656  13.241  0.3202 -0.8613  0.0340
  170DOPC   C2820682   0.385   7.694  13.069  0.1077  0.5435 -0.1801
  170DOPC   H8R20683   0.493   7.679  13.050  0.3046  2.5381 -0.9317
  170DOPC   H8S20684   0.351   7.789  13.021 -0.7463  1.3182  1.8426
  170DOPC   C2920685   0.314   7.581  12.995 -0.1267 -1.2244 -0.2841
  170DOPC   H9R20686   0.327   7.486  13.049  1.5117 -0.1431  1.3262
  170DOPC  C21020687   0.226   7.587  12.895 -0.0614  0.2653  0.2405
  170DOPC  H10R20688   0.205   7.489  12.851  0.1065 -0.7312  2.2629
  170DOPC  C21120689   0.202   7.712  12.816  0.0204 -0.6367 -0.5095
  170DOPC  H11R20690   0.180   7.699  12.708  0.4832  1.1044 -0.8385
  170DOPC  H11S20691   0.291   7.778  12.828 -1.2214  0.7005  1.8810
  170DOPC  C21220692   0.075   7.780  12.880  0.2825  0.0153  0.2653
  170DOPC  H12R20693   0.093   7.815  12.984  0.0465 -0.7412  0.5646
  170DOPC  H12S20694  -0.012   7.711  12.889  1.3829 -1.1771  3.4227
  170DOPC  C21320695   0.034   7.901  12.798  0.2701 -0.3235 -0.3214
  170DOPC  H13R20696   0.010   7.859  12.698 -0.4946 -0.5614 -0.0527
  170DOPC  H13S20697   0.121   7.966  12.778  0.2381  0.6317  2.3322
  170DOPC  C21420698  -0.082   7.980  12.856  0.9693  0.0188  0.5046
  170DOPC  H14R20699  -0.062   7.993  12.965  0.6878  3.1232  0.2652
  170DOPC  H14S20700  -0.177   7.923  12.845 -1.5521  3.8588  0.2216
  170DOPC  C21520701  -0.099   8.115  12.790  0.0232  0.4760  0.5346
  170DOPC  H15R20702  -0.128   8.102  12.683  1.2039  0.3016  0.2177
  170DOPC  H15S20703  -0.003   8.171  12.792 -0.1206  0.6954  1.6121
  170DOPC  C21620704  -0.217   8.193  12.851  0.1387 -0.2707  0.0708
  170DOPC  H16R20705  -0.301   8.123  12.871  0.0691 -0.1793  0.1000
  170DOPC  H16S20706  -0.258   8.252  12.767  0.5853 -1.1914 -0.8097
  170DOPC  C21720707  -0.178   8.279  12.970  0.4383 -0.1238  0.7033
  170DOPC  H17R20708  -0.076   8.313  12.940  0.4971 -0.2172  0.7921
  170DOPC  H17S20709  -0.151   8.217  13.058  0.1896 -0.3554  0.6192
  170DOPC  C21820710  -0.283   8.386  13.002  0.7362 -0.3046  0.0082
  170DOPC  H18R20711  -0.243   8.465  13.070 -1.1709  1.0380 -0.3291
  170DOPC  H18S20712  -0.361   8.341  13.067  0.0809 -1.1463 -1.3154
  170DOPC  H18T20713  -0.330   8.427  12.909 -0.5565  0.1967  0.8443
  170DOPC   C3320714  -0.248   8.167  13.529 -0.2463  0.0080 -0.1329
  170DOPC   H3X20715  -0.164   8.191  13.461 -0.3476  0.8394  0.0203
  170DOPC   H3Y20716  -0.320   8.247  13.503  0.6033  1.0481  0.6329
  170DOPC   C3420717  -0.300   8.033  13.480  0.4804  0.2423  0.5242
  170DOPC   H4X20718  -0.404   8.020  13.518  0.8117 -3.0201  0.6001
  170DOPC   H4Y20719  -0.252   7.947  13.533  1.3025  0.3770  0.0121
  170DOPC   C3520720  -0.299   8.025  13.324 -0.4755 -0.4913  0.0071
  170DOPC   H5X20721  -0.323   7.919  13.303 -0.7893 -0.6744  1.2313
  170DOPC   H5Y20722  -0.197   8.044  13.284 -0.5373 -0.7416 -0.2736
  170DOPC   C3620723  -0.412   8.105  13.256 -0.3805 -0.1693  0.5793
  170DOPC   H6X20724  -0.417   8.204  13.306  0.5667 -0.6451  1.6398
  170DOPC   H6Y20725  -0.405   8.130  13.148 -1.0477  0.2798  0.6355
  170DOPC   C3720726  -0.554   8.036  13.260 -0.2382  0.5014 -0.0448
  170DOPC   H7X20727  -0.573   7.993  13.361 -0.5936 -0.8307 -0.6580
  170DOPC   H7Y20728  -0.631   8.113  13.239 -0.6854 -0.4248 -2.0232
  170DOPC   C3820729  -0.574   7.925  13.157  0.6380  0.2673 -0.5216
  170DOPC   H8X20730  -0.673   7.883  13.184  1.1646 -0.4537  0.3439
  170DOPC   H8Y20731  -0.500   7.844  13.171  0.4166  0.5390  2.9368
  170DOPC   C3920732  -0.567   7.965  13.007  0.0969 -1.0341 -0.0896
  170DOPC   H9X20733  -0.462   7.966  12.973 -0.4052 -1.8407 -1.7437
  170DOPC  C31020734  -0.674   7.983  12.925  0.2569  0.4027  0.1508
  170DOPC  H10X20735  -0.654   8.015  12.822  1.2588  0.5657  0.3848
  170DOPC  C31120736  -0.823   7.985  12.956 -0.5028 -0.3863 -1.0582
  170DOPC  H11X20737  -0.869   8.081  12.925 -2.4267 -1.3384 -1.2951
  170DOPC  H11Y20738  -0.838   7.978  13.066 -0.0276 -0.8769 -1.0185
  170DOPC  C31220739  -0.904   7.871  12.900 -0.1796  0.1761 -0.0549
  170DOPC  H12X20740  -0.854   7.773  12.915 -0.2851  0.2739  1.0677
  170DOPC  H12Y20741  -0.897   7.883  12.790  0.1030  0.0768 -0.0458
  170DOPC  C31320742  -1.045   7.856  12.951  0.1754 -0.1372  0.1707
  170DOPC  H13X20743  -1.086   7.956  12.977  1.9633  1.2448 -1.9333
  170DOPC  H13Y20744  -1.101   7.809  12.868  2.1771 -0.0086 -1.3293
  170DOPC  C31420745  -1.054   7.770  13.078  0.3803 -0.4556 -0.8137
  170DOPC  H14X20746  -0.999   7.674  13.070 -0.0803 -1.0549  2.2369
  170DOPC  H14Y20747  -0.996   7.819  13.158  1.3424 -2.0221 -0.5147
  170DOPC  C31520748  -1.195   7.729  13.122 -0.3617  0.1758 -0.4989
  170DOPC  H15X20749  -1.248   7.688  13.034  3.1753 -1.7935 -1.9329
  170DOPC  H15Y20750  -1.252   7.807  13.177 -0.3394 -1.4883  1.9906
  170DOPC  C31620751  -1.197   7.620  13.226  0.5016 -0.3493 -0.4455
  170DOPC  H16X20752  -1.299   7.576  13.232  0.6350 -0.5694  0.4049
  170DOPC  H16Y20753  -1.136   7.532  13.196 -1.5875 -2.7987  1.9652
  170DOPC  C31720754  -1.134   7.650  13.367 -0.2881 -0.2144  0.1349
  170DOPC  H17X20755  -1.026   7.670  13.352 -0.2209 -0.8519 -0.3057
  170DOPC  H17Y20756  -1.180   7.744  13.403  0.5467  1.1674 -2.1776
  170DOPC  C31820757  -1.164   7.540  13.474 -0.7027 -0.5034  0.1030
  170DOPC  H18X20758  -1.187   7.442  13.426 -1.4658 -0.8670  1.1797
  170DOPC  H18Y20759  -1.073   7.509  13.529  1.0464  0.0742 -2.2965
  170DOPC  H18Z20760  -1.246   7.566  13.544 -0.2736 -0.4003  0.5714
  171DOPC     N20761   4.325   4.617  10.442  0.4118  0.2323  0.0870
  171DOPC   C1220762   4.394   4.483  10.424  0.1038  0.0305  0.0420
  171DOPC  H12A20763   4.486   4.478  10.480 -0.5758 -1.3573  1.0970
  171DOPC  H12B20764   4.430   4.467  10.323  1.0106  1.2650  0.1481
  171DOPC   C1320765   4.204   4.626  10.351  0.1127  0.0760 -0.6704
  171DOPC  H13A20766   4.133   4.701  10.383  1.3016  0.8856  0.1870
  171DOPC  H13B20767   4.228   4.641  10.246  0.5345  0.4786 -0.5228
  171DOPC  H13C20768   4.153   4.532  10.346  2.5875 -1.4037  0.0886
  171DOPC   C1420769   4.425   4.714  10.404 -0.1191 -0.2309 -0.5064
  171DOPC  H14A20770   4.524   4.677  10.429  0.2241 -0.3192 -1.9257
  171DOPC  H14B20771   4.427   4.729  10.297 -3.5569 -0.0543 -0.6603
  171DOPC  H14C20772   4.403   4.807  10.454 -1.3347 -1.7355  1.9713
  171DOPC   C1520773   4.270   4.635  10.580  0.1541 -0.0262 -0.1940
  171DOPC  H15A20774   4.348   4.614  10.651 -0.6893 -0.5855  0.5848
  171DOPC  H15B20775   4.197   4.560  10.606 -0.5524  1.0701  1.1593
  171DOPC  H15C20776   4.230   4.732  10.607 -1.4475 -0.6266 -0.2960
  171DOPC   C1120777   4.310   4.355  10.459  0.0864 -0.0576  0.3471
  171DOPC  H11A20778   4.368   4.272  10.413  0.2782 -1.2805  2.6380
  171DOPC  H11B20779   4.306   4.365  10.570  0.9430  0.7857  0.3239
  171DOPC     P20780   4.089   4.219  10.407  0.1017  0.3147  0.1161
  171DOPC   O1320781   4.164   4.093  10.411 -0.2543  0.0629  0.0183
  171DOPC   O1420782   3.977   4.234  10.317 -0.3255 -0.6280 -0.2400
  171DOPC   O1220783   4.178   4.346  10.402 -0.3778 -0.0922 -0.4308
  171DOPC   O1120784   4.039   4.235  10.556  0.4566  0.0851  0.1565
  171DOPC    C120785   3.966   4.346  10.611  0.6825 -0.8179  0.1112
  171DOPC    HA20786   3.867   4.351  10.561  0.3302 -0.5046  0.8147
  171DOPC    HB20787   4.017   4.443  10.597  0.1268 -0.1394  2.2638
  171DOPC    C220788   3.959   4.316  10.756  0.3339  0.6812  0.4051
  171DOPC    HS20789   3.905   4.398  10.809  0.4971  1.2795 -0.3368
  171DOPC   O2120790   4.083   4.294  10.815  0.1947 -0.3562  0.0226
  171DOPC   C2120791   4.141   4.402  10.862  0.4650  0.4965 -0.3611
  171DOPC   O2220792   4.113   4.518  10.825 -0.1042 -0.2636 -0.2892
  171DOPC   C2220793   4.239   4.362  10.969 -0.5115 -0.3256 -0.0348
  171DOPC   H2R20794   4.323   4.434  10.968 -0.0111 -0.9010 -0.6205
  171DOPC   H2S20795   4.286   4.263  10.950  3.6586  1.6093 -0.8467
  171DOPC    C320796   3.869   4.186  10.762 -0.3987  0.6777  0.1997
  171DOPC    HX20797   3.905   4.112  10.687 -2.6113  1.1780 -1.4723
  171DOPC    HY20798   3.766   4.217  10.735  0.6732  1.1318 -4.0623
  171DOPC   O3120799   3.858   4.132  10.894 -0.8926  0.2142  0.0408
  171DOPC   C3120800   3.957   4.056  10.939  0.5611 -0.3434 -0.1424
  171DOPC   O3220801   4.045   4.005  10.870  0.0688  0.0219  0.2615
  171DOPC   C3220802   3.934   4.033  11.094 -0.3762  0.0899  0.3260
  171DOPC   H2X20803   4.014   4.095  11.139 -0.4651  0.0586  0.5296
  171DOPC   H2Y20804   3.836   4.069  11.131 -0.4836 -0.5973  0.7268
  171DOPC   C2320805   4.163   4.371  11.107 -0.0711  0.8238  0.2120
  171DOPC   H3R20806   4.072   4.308  11.101  1.7200 -1.8764 -0.2987
  171DOPC   H3S20807   4.141   4.478  11.129  0.5576  0.8270  0.8725
  171DOPC   C2420808   4.242   4.319  11.224 -0.6101  0.3500 -0.4914
  171DOPC   H4R20809   4.353   4.329  11.216 -0.1177 -1.9264  2.0697
  171DOPC   H4S20810   4.233   4.209  11.237 -0.3864  0.3623 -0.2017
  171DOPC   C2520811   4.195   4.381  11.355 -0.0208  0.1242 -0.5192
  171DOPC   H5R20812   4.086   4.362  11.362 -0.5583  2.6659 -0.8088
  171DOPC   H5S20813   4.211   4.491  11.352 -1.9363  0.4572  0.0456
  171DOPC   C2620814   4.268   4.315  11.476  0.1159  0.1378 -0.1734
  171DOPC   H6R20815   4.377   4.330  11.462  0.0500  0.1227 -0.7410
  171DOPC   H6S20816   4.244   4.206  11.479  1.3396 -0.1379  0.4981
  171DOPC   C2720817   4.246   4.366  11.612  0.8395  0.2883 -0.4268
  171DOPC   H7R20818   4.271   4.279  11.677 -1.6813  0.6799  1.1903
  171DOPC   H7S20819   4.139   4.394  11.623  0.8371  0.5368 -1.0278
  171DOPC   C2820820   4.334   4.485  11.670 -0.3958  0.2102 -0.6059
  171DOPC   H8R20821   4.319   4.568  11.597  0.1491 -0.2388 -1.2472
  171DOPC   H8S20822   4.432   4.433  11.659  0.1967  1.2591 -0.4310
  171DOPC   C2920823   4.309   4.522  11.811  0.6180 -0.0120  0.0442
  171DOPC   H9R20824   4.236   4.603  11.826 -1.3303 -1.0475 -2.7839
  171DOPC  C21020825   4.377   4.486  11.922  0.8702 -0.4408  0.3592
  171DOPC  H10R20826   4.335   4.523  12.016  1.0788  0.6274  0.0461
  171DOPC  C21120827   4.483   4.385  11.921 -0.2607  0.3377  0.6037
  171DOPC  H11R20828   4.574   4.419  11.867  0.9361 -0.1757  2.1952
  171DOPC  H11S20829   4.455   4.289  11.873 -0.4492  1.3260 -1.3488
  171DOPC  C21220830   4.538   4.354  12.063  0.5817  0.2864 -0.2636
  171DOPC  H12R20831   4.600   4.262  12.061  1.0167  0.5761 -2.2895
  171DOPC  H12S20832   4.461   4.325  12.138 -2.0434  1.0092 -2.5217
  171DOPC  C21320833   4.625   4.473  12.118  0.2642  0.5943  0.0607
  171DOPC  H13R20834   4.551   4.555  12.130 -1.0910 -0.5269 -0.3795
  171DOPC  H13S20835   4.712   4.508  12.059 -0.8208  2.4773 -0.5122
  171DOPC  C21420836   4.690   4.432  12.252 -0.0941  0.4965 -0.5167
  171DOPC  H14R20837   4.743   4.334  12.246 -0.4566  0.1448  1.4299
  171DOPC  H14S20838   4.616   4.421  12.334  0.5189  0.7077  0.0742
  171DOPC  C21520839   4.793   4.537  12.294 -0.2293  0.5943  0.0456
  171DOPC  H15R20840   4.738   4.633  12.292 -3.6611 -1.2173 -1.2841
  171DOPC  H15S20841   4.878   4.555  12.225 -0.5635 -1.5852 -1.0030
  171DOPC  C21620842   4.860   4.530  12.433  0.0834  0.0578  0.2335
  171DOPC  H16R20843   4.901   4.427  12.438  1.1392  0.4050 -0.7605
  171DOPC  H16S20844   4.783   4.538  12.512  0.7343 -2.1202  1.1590
  171DOPC  C21720845   4.972   4.624  12.454 -0.3363  0.0988  0.1660
  171DOPC  H17R20846   5.064   4.580  12.410 -1.0006 -2.9755  1.5907
  171DOPC  H17S20847   4.987   4.624  12.564 -0.3193  0.2048  0.1636
  171DOPC  C21820848   4.931   4.764  12.414 -0.2234  0.2606  0.4451
  171DOPC  H18R20849   5.012   4.832  12.447  0.6180 -1.2658  1.6376
  171DOPC  H18S20850   4.835   4.793  12.463 -0.2743 -0.9505  1.0814
  171DOPC  H18T20851   4.904   4.772  12.307 -0.6632 -2.1720  0.3336
  171DOPC   C3320852   3.950   3.883  11.134 -0.5571 -0.5200  0.2741
  171DOPC   H3X20853   3.994   3.814  11.058 -1.2523  0.8477 -1.4444
  171DOPC   H3Y20854   3.848   3.851  11.164 -0.6113 -1.2757 -0.6528
  171DOPC   C3420855   4.032   3.872  11.268  0.4456  0.4157  0.7040
  171DOPC   H4X20856   3.998   3.777  11.315 -1.9223  1.8836  2.1592
  171DOPC   H4Y20857   3.989   3.954  11.329  0.1832  2.0194 -1.5305
  171DOPC   C3520858   4.181   3.861  11.249 -0.2211 -0.9221 -0.6035
  171DOPC   H5X20859   4.224   3.963  11.236  0.3987 -1.3461 -1.9854
  171DOPC   H5Y20860   4.205   3.799  11.161  0.1750 -1.0504 -0.4121
  171DOPC   C3620861   4.244   3.797  11.377  0.1932 -0.0274 -0.5802
  171DOPC   H6X20862   4.208   3.694  11.397  0.9305 -0.0948  0.4964
  171DOPC   H6Y20863   4.352   3.794  11.350  0.6075 -0.4466  1.0382
  171DOPC   C3720864   4.226   3.881  11.505 -0.7535 -0.5701 -0.2228
  171DOPC   H7X20865   4.278   3.979  11.504  0.4859 -1.1905  0.6145
  171DOPC   H7Y20866   4.116   3.899  11.510 -0.7682 -0.9719  1.3922
  171DOPC   C3820867   4.273   3.799  11.631 -0.5892  0.3237  0.3313
  171DOPC   H8X20868   4.312   3.871  11.706 -2.4712  0.0169  1.6901
  171DOPC   H8Y20869   4.369   3.749  11.607 -0.6060 -0.0312  0.9797
  171DOPC   C3920870   4.177   3.707  11.698  0.1340 -0.6670 -0.5956
  171DOPC   H9X20871   4.142   3.627  11.631  0.0539  0.5970 -2.1073
  171DOPC  C31020872   4.120   3.724  11.820  0.3692  0.4697 -0.2274
  171DOPC  H10X20873   4.044   3.647  11.836  1.1311 -0.3713 -0.5637
  171DOPC  C31120874   4.135   3.825  11.930  0.4022 -0.4028 -0.1791
  171DOPC  H11X20875   4.236   3.814  11.976 -0.0792 -0.9708  0.7613
  171DOPC  H11Y20876   4.073   3.809  12.020 -2.8989 -1.4813 -2.4711
  171DOPC  C31220877   4.131   3.973  11.883 -0.4823 -0.0139 -0.7880
  171DOPC  H12X20878   4.043   3.976  11.815  0.1918 -2.0879 -1.8354
  171DOPC  H12Y20879   4.224   4.012  11.838  0.3059  0.4719  1.1438
  171DOPC  C31320880   4.102   4.063  11.998  0.1710 -0.1521  0.1411
  171DOPC  H13X20881   4.080   4.163  11.954  0.0958 -0.6367 -0.9623
  171DOPC  H13Y20882   4.021   4.020  12.061 -0.7418  1.1573 -0.0931
  171DOPC  C31420883   4.222   4.078  12.100 -0.8756 -0.4294 -0.2759
  171DOPC  H14X20884   4.242   3.975  12.136 -1.3167 -1.8705 -3.7255
  171DOPC  H14Y20885   4.307   4.109  12.036 -0.9164 -2.4297 -1.3942
  171DOPC  C31520886   4.190   4.168  12.221  0.2206  0.3522 -0.0039
  171DOPC  H15X20887   4.089   4.146  12.263 -0.2389 -0.5167 -1.5219
  171DOPC  H15Y20888   4.175   4.274  12.193 -1.1394 -0.2263 -1.6110
  171DOPC  C31620889   4.303   4.160  12.328 -0.3758 -0.5013  0.5136
  171DOPC  H16X20890   4.328   4.057  12.359  0.8477  0.2267  2.0682
  171DOPC  H16Y20891   4.392   4.215  12.289 -0.4924 -1.5590 -1.3745
  171DOPC  C31720892   4.272   4.230  12.461 -0.3432  0.3813  0.3117
  171DOPC  H17X20893   4.245   4.338  12.457  0.5782  0.6720  1.2828
  171DOPC  H17Y20894   4.180   4.175  12.490 -0.4811 -0.7252 -2.0119
  171DOPC  C31820895   4.373   4.214  12.572  0.1333  0.0450  0.6114
  171DOPC  H18X20896   4.374   4.114  12.619 -1.5584 -1.8297 -2.9047
  171DOPC  H18Y20897   4.471   4.233  12.523  0.2154 -1.8011 -0.0103
  171DOPC  H18Z20898   4.367   4.297  12.645  1.8541 -0.9886  1.9879
  172DOPC     N20899   3.759   6.267  10.348 -0.6646  0.5809 -0.9597
  172DOPC   C1220900   3.616   6.248  10.398  0.6259  0.1985 -0.5584
  172DOPC  H12A20901   3.546   6.258  10.316 -0.3350  1.0011  0.3310
  172DOPC  H12B20902   3.597   6.337  10.457  1.6569  2.0852 -2.9093
  172DOPC   C1320903   3.855   6.233  10.465 -0.2174  0.2291 -0.4287
  172DOPC  H13A20904   3.817   6.285  10.552 -0.6660  1.7540 -1.4931
  172DOPC  H13B20905   3.845   6.126  10.464  1.3311  0.0648 -1.8700
  172DOPC  H13C20906   3.957   6.261  10.446  0.0721 -1.2690 -1.2278
  172DOPC   C1420907   3.783   6.408  10.308  0.4572  0.7383 -0.5339
  172DOPC  H14A20908   3.795   6.473  10.393  2.3205  1.3016 -1.1722
  172DOPC  H14B20909   3.876   6.417  10.254  0.6934 -1.1213 -0.5118
  172DOPC  H14C20910   3.712   6.446  10.237  0.3969  0.3556 -0.6818
  172DOPC   C1520911   3.791   6.174  10.238  0.9778  0.0401  0.1608
  172DOPC  H15A20912   3.888   6.190  10.192  1.0871  0.1222  0.4199
  172DOPC  H15B20913   3.714   6.182  10.163  0.5045 -0.4271  0.5870
  172DOPC  H15C20914   3.772   6.075  10.275 -4.8739  0.0287 -1.8123
  172DOPC   C1120915   3.581   6.125  10.492 -0.5041 -0.1866  0.4105
  172DOPC  H11A20916   3.625   6.156  10.589 -0.2778 -0.1651  0.3009
  172DOPC  H11B20917   3.471   6.111  10.504 -0.7505 -0.2965 -1.6160
  172DOPC     P20918   3.709   5.894  10.514 -0.0724 -0.0688  0.1307
  172DOPC   O1320919   3.848   5.939  10.549  0.4286 -0.5830  0.2033
  172DOPC   O1420920   3.699   5.769  10.443 -0.6978  0.4335  0.1571
  172DOPC   O1220921   3.639   6.012  10.432 -0.1458 -0.4583 -0.1809
  172DOPC   O1120922   3.630   5.883  10.644  0.1400  0.1247  0.0197
  172DOPC    C120923   3.680   5.932  10.767 -0.3102 -1.0817  0.1152
  172DOPC    HA20924   3.589   5.954  10.826  0.0144 -1.6816  0.8452
  172DOPC    HB20925   3.735   6.027  10.749 -1.5957 -0.0609  1.3424
  172DOPC    C220926   3.762   5.835  10.859  0.1560  0.2024 -0.7235
  172DOPC    HS20927   3.854   5.815  10.799  1.4339 -0.3631  1.3282
  172DOPC   O2120928   3.690   5.714  10.882  0.6203 -0.0333 -0.1132
  172DOPC   C2120929   3.748   5.596  10.901  0.0470 -0.6231  0.1198
  172DOPC   O2220930   3.867   5.577  10.877 -0.2451  0.0593  0.2799
  172DOPC   C2220931   3.650   5.489  10.933 -0.2866  0.2931  0.0308
  172DOPC   H2R20932   3.651   5.416  10.849  3.0223 -1.5342  1.4520
  172DOPC   H2S20933   3.547   5.530  10.936 -0.7378 -0.8803  1.0727
  172DOPC    C320934   3.802   5.901  10.997  0.0950  0.8119 -0.5645
  172DOPC    HX20935   3.708   5.924  11.051 -0.5731 -0.5297 -1.1117
  172DOPC    HY20936   3.845   5.995  10.954  1.2078  0.1406 -0.9437
  172DOPC   O3120937   3.903   5.821  11.064  0.5178 -0.9138 -0.4990
  172DOPC   C3120938   4.022   5.810  11.006  0.1928 -0.5293 -0.1522
  172DOPC   O3220939   4.061   5.879  10.909  0.0212 -0.7714 -0.1637
  172DOPC   C3220940   4.097   5.696  11.086  0.2114  0.1421 -0.2209
  172DOPC   H2X20941   4.103   5.613  11.012 -0.4941  3.2031 -3.9843
  172DOPC   H2Y20942   4.201   5.731  11.105  0.1512 -0.2121  0.8256
  172DOPC   C2320943   3.675   5.408  11.061  0.2540  0.2586  0.6468
  172DOPC   H3R20944   3.580   5.357  11.089 -0.0197 -0.2041 -1.0031
  172DOPC   H3S20945   3.694   5.473  11.149 -1.3531  0.1470  1.1057
  172DOPC   C2420946   3.791   5.309  11.056 -0.1329 -0.2074 -0.0804
  172DOPC   H4R20947   3.877   5.373  11.024 -1.1978  1.7902  0.8236
  172DOPC   H4S20948   3.788   5.224  10.985 -0.3785 -1.5398  1.4932
  172DOPC   C2520949   3.814   5.250  11.198  0.3721 -0.3042  0.0209
  172DOPC   H5R20950   3.735   5.179  11.232  0.4601 -0.7154 -0.6114
  172DOPC   H5S20951   3.805   5.341  11.260 -0.2828  0.4082 -1.0829
  172DOPC   C2620952   3.952   5.184  11.206 -0.2125 -0.3575  0.0530
  172DOPC   H6R20953   4.033   5.250  11.243 -1.3689  1.2404 -0.1344
  172DOPC   H6S20954   3.990   5.165  11.104 -0.4339  0.8162 -0.2645
  172DOPC   C2720955   3.944   5.048  11.279  0.6787  0.0049 -0.0786
  172DOPC   H7R20956   3.861   4.989  11.235  0.7762 -0.2432  0.0704
  172DOPC   H7S20957   3.932   5.054  11.389 -0.9642 -0.2790 -0.2241
  172DOPC   C2820958   4.072   4.958  11.256 -0.0376 -0.0908 -0.1544
  172DOPC   H8R20959   4.097   4.938  11.149 -0.9379 -1.3608 -0.1461
  172DOPC   H8S20960   4.045   4.864  11.307  1.3955  0.8130  2.4404
  172DOPC   C2920961   4.198   5.014  11.324  0.5591 -0.1047 -0.4523
  172DOPC   H9R20962   4.275   5.040  11.249 -1.2659 -0.7980 -2.6840
  172DOPC  C21020963   4.223   5.030  11.456 -0.3618  0.4204  0.5842
  172DOPC  H10R20964   4.311   5.088  11.490 -0.1267  0.0221  0.6542
  172DOPC  C21120965   4.147   4.966  11.566  0.1005  0.1206 -0.3725
  172DOPC  H11R20966   4.075   4.896  11.519  0.3639 -1.1169  0.9698
  172DOPC  H11S20967   4.099   5.047  11.625  2.2448  0.5723  0.8953
  172DOPC  C21220968   4.237   4.873  11.657  0.9031 -0.1991 -0.4961
  172DOPC  H12R20969   4.297   4.795  11.605  3.1977  1.6758 -0.7943
  172DOPC  H12S20970   4.171   4.820  11.728 -0.0903  2.2497  0.5224
  172DOPC  C21320971   4.323   4.961  11.753 -0.4287 -0.0424  0.2170
  172DOPC  H13R20972   4.261   5.046  11.787 -0.1966  0.0687  0.3599
  172DOPC  H13S20973   4.414   5.007  11.708  0.3845 -1.9827 -0.2347
  172DOPC  C21420974   4.367   4.872  11.875  0.5966  0.7118 -0.5591
  172DOPC  H14R20975   4.419   4.779  11.843  0.4447  0.0655  0.9598
  172DOPC  H14S20976   4.276   4.842  11.931  0.4973  1.7468 -0.1510
  172DOPC  C21520977   4.458   4.958  11.961  0.4949 -0.2826  0.0984
  172DOPC  H15R20978   4.399   5.050  11.980 -0.1094 -0.5194 -0.5746
  172DOPC  H15S20979   4.540   4.991  11.895 -1.8151  0.4427 -2.6038
  172DOPC  C21620980   4.492   4.882  12.088  0.8180  0.4086  0.6226
  172DOPC  H16R20981   4.570   4.807  12.064  1.4620  1.0343  0.7561
  172DOPC  H16S20982   4.389   4.843  12.107  0.4876  0.2579 -1.2303
  172DOPC  C21720983   4.553   4.965  12.202 -0.4204  0.5586 -0.6648
  172DOPC  H17R20984   4.505   5.062  12.229  1.2923  0.8881  1.5694
  172DOPC  H17S20985   4.648   5.012  12.168  0.4186 -0.6255 -0.0415
  172DOPC  C21820986   4.566   4.885  12.330  0.2929 -0.1729  0.1433
  172DOPC  H18R20987   4.467   4.875  12.379 -0.3015 -0.5475 -1.0980
  172DOPC  H18S20988   4.638   4.939  12.395  1.6671 -0.2549 -1.2704
  172DOPC  H18T20989   4.601   4.786  12.295  0.5968 -0.1943  0.5004
  172DOPC   C3320990   4.030   5.662  11.216  0.5253  0.3133  0.4889
  172DOPC   H3X20991   3.924   5.629  11.212  0.5731  0.2653 -0.5439
  172DOPC   H3Y20992   4.030   5.755  11.277 -2.2144  1.2516 -0.7566
  172DOPC   C3420993   4.103   5.553  11.288 -0.0852  0.4932  0.4669
  172DOPC   H4X20994   4.208   5.585  11.306 -0.1141  1.5997 -1.0968
  172DOPC   H4Y20995   4.103   5.462  11.224 -0.7361  1.2150 -0.6059
  172DOPC   C3520996   4.046   5.516  11.424  0.1494  0.1739 -0.3826
  172DOPC   H5X20997   3.949   5.464  11.404  0.6166 -0.4341 -1.1250
  172DOPC   H5Y20998   4.032   5.606  11.488 -0.0502  1.8949 -2.7423
  172DOPC   C3620999   4.143   5.424  11.501 -0.1938  0.4628  0.1528
  172DOPC   H6X21000   4.176   5.339  11.437  1.7920  1.3458 -0.0855
  172DOPC   H6Y21001   4.233   5.485  11.520  0.5240 -1.1233  2.3071
  172DOPC   C3721002   4.094   5.368  11.632  0.2517  0.2674 -0.6977
  172DOPC   H7X21003   3.995   5.411  11.660  0.3025 -0.5218  0.8206
  172DOPC   H7Y21004   4.065   5.261  11.626 -0.8669  0.6291 -2.5401
  172DOPC   C3821005   4.185   5.399  11.753  0.3900 -0.1091  0.2930
  172DOPC   H8X21006   4.152   5.498  11.790 -1.2083 -0.5413  0.0918
  172DOPC   H8Y21007   4.289   5.416  11.717 -0.1659  2.5101 -0.2413
  172DOPC   C3921008   4.172   5.303  11.870 -0.2211 -0.3719 -0.4320
  172DOPC   H9X21009   4.160   5.200  11.833  0.1107 -0.7193  0.4248
  172DOPC  C31021010   4.147   5.331  12.003  0.6240  0.2043 -0.2842
  172DOPC  H10X21011   4.147   5.253  12.080 -1.7211  0.1292 -0.2918
  172DOPC  C31121012   4.125   5.462  12.069 -0.7023  0.1179 -0.5736
  172DOPC  H11X21013   4.027   5.468  12.120 -2.0929  0.4504 -3.1017
  172DOPC  H11Y21014   4.115   5.547  11.999 -0.0104  1.1156  0.5156
  172DOPC  C31221015   4.243   5.501  12.162  0.5447  0.3420 -0.3739
  172DOPC  H12X21016   4.335   5.511  12.100  1.0000  0.8553  0.3799
  172DOPC  H12Y21017   4.262   5.421  12.237  3.8748 -0.3925 -1.7943
  172DOPC  C31321018   4.213   5.630  12.238  0.4085  0.2539  0.7013
  172DOPC  H13X21019   4.164   5.703  12.170 -1.3640 -0.1684  1.4454
  172DOPC  H13Y21020   4.129   5.615  12.309  0.0646 -1.4999 -0.0105
  172DOPC  C31421021   4.337   5.691  12.286  0.0919  0.3974 -0.1405
  172DOPC  H14X21022   4.386   5.610  12.345  1.6053 -1.0606 -3.1784
  172DOPC  H14Y21023   4.411   5.700  12.204 -0.5854  1.6295 -0.6360
  172DOPC  C31521024   4.332   5.826  12.370  0.3909 -0.3659  1.4588
  172DOPC  H15X21025   4.425   5.846  12.426 -0.7662 -0.7125  3.6029
  172DOPC  H15Y21026   4.246   5.817  12.440 -1.8532  1.2976 -0.8541
  172DOPC  C31621027   4.292   5.947  12.288  0.5326  0.2705  0.0672
  172DOPC  H16X21028   4.186   5.937  12.254  0.2821  1.0253  0.6016
  172DOPC  H16Y21029   4.287   6.040  12.348 -0.6361 -0.3200  0.9321
  172DOPC  C31721030   4.380   5.962  12.159  1.0340  0.1149 -0.5550
  172DOPC  H17X21031   4.478   5.911  12.171 -0.7317 -3.4541  0.2035
  172DOPC  H17Y21032   4.325   5.902  12.083  2.7523 -0.6291 -1.2534
  172DOPC  C31821033   4.401   6.110  12.116 -0.2593 -0.5873  0.7677
  172DOPC  H18X21034   4.454   6.122  12.019 -1.0265  2.4798  0.6422
  172DOPC  H18Y21035   4.297   6.143  12.098 -0.3763 -0.9140  0.8278
  172DOPC  H18Z21036   4.453   6.171  12.192 -1.3506  0.1615  0.9363
  173DOPC     N21037   1.953   3.255  10.364  0.2563 -0.0591 -0.0646
  173DOPC   C1221038   2.051   3.228  10.483  0.2285  0.1199  0.4150
  173DOPC  H12A21039   2.027   3.303  10.557  2.3277 -0.0652  1.3460
  173DOPC  H12B21040   2.155   3.241  10.458  0.3277 -2.7234 -1.0485
  173DOPC   C1321041   1.989   3.166  10.248  0.2123 -0.6850 -0.2487
  173DOPC  H13A21042   1.978   3.064  10.281  1.1388 -0.3193  1.3038
  173DOPC  H13B21043   1.915   3.190  10.174 -1.7716 -0.3911  1.7127
  173DOPC  H13C21044   2.087   3.188  10.208  0.2958 -0.3979  0.1078
  173DOPC   C1421045   1.953   3.392  10.325 -0.3098 -0.3018 -0.5463
  173DOPC  H14A21046   1.882   3.406  10.244  0.0552  0.9780 -0.6645
  173DOPC  H14B21047   1.921   3.454  10.407  4.0502 -1.7143  2.5352
  173DOPC  H14C21048   2.044   3.435  10.285  0.1254  0.3549  1.0931
  173DOPC   C1521049   1.807   3.220  10.389 -0.2074 -0.7118 -0.3558
  173DOPC  H15A21050   1.750   3.233  10.298 -0.6859  0.4904  0.0921
  173DOPC  H15B21051   1.761   3.269  10.473  0.4936 -0.9859  0.1980
  173DOPC  H15C21052   1.803   3.115  10.411 -1.6163 -0.5920  0.0445
  173DOPC   C1121053   2.054   3.077  10.535 -0.0926 -0.4212  0.3400
  173DOPC  H11A21054   2.097   3.087  10.637 -1.8049  1.9728  0.9118
  173DOPC  H11B21055   1.949   3.043  10.548 -0.0243 -0.1224  1.9188
  173DOPC     P21056   2.244   2.901  10.482  0.3633 -0.3650  0.1831
  173DOPC   O1321057   2.348   2.939  10.378 -0.3269  0.1202 -0.4580
  173DOPC   O1421058   2.197   2.763  10.478  0.2191  0.6013 -0.1423
  173DOPC   O1221059   2.115   2.991  10.437 -0.1819 -0.2987 -0.5248
  173DOPC   O1121060   2.282   2.942  10.630  0.0895 -0.4305  0.4117
  173DOPC    C121061   2.393   3.021  10.664  0.3532 -0.2904  0.0152
  173DOPC    HA21062   2.356   3.108  10.723 -0.5098 -0.9489  0.4560
  173DOPC    HB21063   2.440   3.066  10.573  0.9403 -0.2415  0.3424
  173DOPC    C221064   2.489   2.933  10.750 -0.5761 -0.5135 -0.2000
  173DOPC    HS21065   2.520   2.847  10.688 -0.8205 -1.6058  1.1502
  173DOPC   O2121066   2.421   2.876  10.860 -0.1017 -0.5476  0.1201
  173DOPC   C2121067   2.477   2.781  10.922  0.2876 -0.4318 -0.0798
  173DOPC   O2221068   2.589   2.734  10.903  0.7743  0.2804  0.3787
  173DOPC   C2221069   2.373   2.738  11.031 -0.4747  0.6097  0.3551
  173DOPC   H2R21070   2.377   2.628  11.016 -2.8856  0.5564 -0.2628
  173DOPC   H2S21071   2.269   2.768  11.009 -0.4549 -0.8947 -2.1659
  173DOPC    C321072   2.615   3.020  10.796  0.1637 -0.0629  0.2400
  173DOPC    HX21073   2.670   3.052  10.705 -1.2249  0.3676 -0.4703
  173DOPC    HY21074   2.689   2.963  10.857 -0.3531  0.6835  1.6097
  173DOPC   O3121075   2.573   3.137  10.873 -0.2782 -0.4103  0.2699
  173DOPC   C3121076   2.592   3.260  10.816 -1.0525 -0.1268 -0.2711
  173DOPC   O3221077   2.676   3.282  10.727 -0.4953 -0.3816 -0.4336
  173DOPC   C3221078   2.485   3.350  10.848  0.5137  0.0871 -0.0360
  173DOPC   H2X21079   2.413   3.348  10.763  2.6960  0.2542 -2.0118
  173DOPC   H2Y21080   2.435   3.320  10.942  2.0312 -1.6393  0.2563
  173DOPC   C2321081   2.428   2.776  11.170 -0.0612  0.1452 -0.0393
  173DOPC   H3R21082   2.535   2.758  11.195  0.1445  3.0282  1.6351
  173DOPC   H3S21083   2.371   2.722  11.249  0.4326  2.1342  1.8037
  173DOPC   C2421084   2.393   2.920  11.200  0.7531 -0.1541 -0.0778
  173DOPC   H4R21085   2.282   2.922  11.197  0.6937 -2.3366 -2.0064
  173DOPC   H4S21086   2.438   3.005  11.145 -0.7490  1.5220  1.1719
  173DOPC   C2521087   2.426   2.957  11.344 -0.1886  0.2306 -0.1346
  173DOPC   H5R21088   2.536   2.954  11.357 -0.3753 -0.1061  1.6161
  173DOPC   H5S21089   2.378   2.880  11.407 -2.1337  0.6428 -1.0179
  173DOPC   C2621090   2.389   3.099  11.391 -0.2116  0.0502 -0.0399
  173DOPC   H6R21091   2.279   3.109  11.382 -0.1617 -1.1733 -3.4466
  173DOPC   H6S21092   2.430   3.173  11.320  0.1260 -0.7083 -0.6500
  173DOPC   C2721093   2.448   3.121  11.534  0.1016 -0.4065  0.1261
  173DOPC   H7R21094   2.556   3.140  11.515  0.7825 -1.1748  2.8237
  173DOPC   H7S21095   2.420   3.029  11.589 -0.1244 -1.9512 -2.4228
  173DOPC   C2821096   2.390   3.251  11.603 -0.5071 -0.5075  0.2036
  173DOPC   H8R21097   2.409   3.333  11.531 -0.8823 -1.5152 -1.0839
  173DOPC   H8S21098   2.448   3.266  11.696 -0.9787  1.4577  0.2155
  173DOPC   C2921099   2.248   3.222  11.642 -0.8337 -0.6788 -0.5250
  173DOPC   H9R21100   2.210   3.126  11.603 -0.5866 -0.8609 -0.3292
  173DOPC  C21021101   2.162   3.305  11.712  0.0381  0.2970  0.7254
  173DOPC  H10R21102   2.065   3.260  11.740 -1.3072  1.6137 -1.5778
  173DOPC  C21121103   2.206   3.441  11.762  0.0979  0.1977  0.8852
  173DOPC  H11R21104   2.124   3.515  11.755  0.5216  0.6442  0.5663
  173DOPC  H11S21105   2.285   3.481  11.695  2.6200 -0.7056  3.1296
  173DOPC  C21221106   2.276   3.445  11.901  0.0906 -0.0015  0.6279
  173DOPC  H12R21107   2.366   3.382  11.884 -1.4114 -1.8774 -0.8356
  173DOPC  H12S21108   2.217   3.389  11.977 -0.1376 -0.9583 -0.2308
  173DOPC  C21321109   2.308   3.588  11.948  0.2616  0.3196  0.0496
  173DOPC  H13R21110   2.264   3.612  12.048  2.6701 -1.2397  1.5982
  173DOPC  H13S21111   2.276   3.650  11.862  0.7403 -1.3154 -1.3373
  173DOPC  C21421112   2.461   3.615  11.955 -0.2780  0.1838  0.8014
  173DOPC  H14R21113   2.511   3.556  11.875 -3.7067 -0.1316 -1.2858
  173DOPC  H14S21114   2.499   3.576  12.052  1.4420  2.8624  1.3227
  173DOPC  C21521115   2.489   3.767  11.945 -0.4755 -0.3581 -0.0626
  173DOPC  H15R21116   2.431   3.828  12.018  1.3486 -0.8469  1.8921
  173DOPC  H15S21117   2.477   3.809  11.843 -0.1027  0.2611  0.1383
  173DOPC  C21621118   2.639   3.796  11.971  0.0958  0.8398  0.1267
  173DOPC  H16R21119   2.655   3.750  12.071  0.7357 -0.6314 -0.6221
  173DOPC  H16S21120   2.657   3.905  11.983 -0.8022  1.0056  0.0080
  173DOPC  C21721121   2.731   3.723  11.869 -0.1734 -0.6265  1.3222
  173DOPC  H17R21122   2.658   3.686  11.794 -0.5897 -0.6856  1.7494
  173DOPC  H17S21123   2.795   3.643  11.913  2.3771  0.3576 -0.3807
  173DOPC  C21821124   2.836   3.816  11.804  0.6909  0.9914 -0.2241
  173DOPC  H18R21125   2.893   3.879  11.876  0.4111  0.1681  0.7440
  173DOPC  H18S21126   2.793   3.882  11.726  3.6051  1.9325 -1.1674
  173DOPC  H18T21127   2.921   3.757  11.765 -0.6183 -1.4493  0.4041
  173DOPC   C3321128   2.546   3.491  10.864 -0.0290 -0.4462 -0.6520
  173DOPC   H3X21129   2.575   3.543  10.771 -0.3135  1.5667  0.3251
  173DOPC   H3Y21130   2.643   3.484  10.918 -0.2116 -0.0390 -0.2554
  173DOPC   C3421131   2.454   3.583  10.943  0.0193 -0.3850  1.0255
  173DOPC   H4X21132   2.359   3.600  10.887  0.2967 -2.1588 -0.0671
  173DOPC   H4Y21133   2.505   3.681  10.950  1.7619 -1.1187 -0.5607
  173DOPC   C3521134   2.414   3.545  11.092  0.1573 -0.2407 -0.1372
  173DOPC   H5X21135   2.492   3.605  11.145  1.3046 -2.2121  0.5028
  173DOPC   H5Y21136   2.430   3.436  11.104 -1.2021 -0.5437 -0.9084
  173DOPC   C3621137   2.265   3.553  11.125  0.1872 -0.2408 -0.3421
  173DOPC   H6X21138   2.262   3.537  11.235 -0.0629  1.7859 -0.0283
  173DOPC   H6Y21139   2.227   3.653  11.097  0.6067 -0.4984 -1.9393
  173DOPC   C3721140   2.178   3.439  11.061  0.1620 -0.4558  0.1305
  173DOPC   H7X21141   2.074   3.465  11.090  0.2646 -1.2091  1.2241
  173DOPC   H7Y21142   2.188   3.425  10.951  1.4031 -1.6650  0.3778
  173DOPC   C3821143   2.212   3.297  11.121 -0.0880 -0.2524 -0.5310
  173DOPC   H8X21144   2.216   3.317  11.230 -2.9271 -3.9679  0.4808
  173DOPC   H8Y21145   2.305   3.252  11.081 -1.3685  1.1859 -5.9887
  173DOPC   C3921146   2.107   3.193  11.091  0.0420 -0.6143  0.1345
  173DOPC   H9X21147   2.113   3.145  10.993 -0.9844 -1.9933  0.7083
  173DOPC  C31021148   2.002   3.168  11.170  0.4290  0.3108  1.0040
  173DOPC  H10X21149   1.937   3.085  11.138  1.5693  0.3361 -1.5863
  173DOPC  C31121150   1.964   3.222  11.304  0.3503 -0.2345  0.1647
  173DOPC  H11X21151   2.027   3.312  11.324  0.1079  0.0383 -0.2757
  173DOPC  H11Y21152   1.987   3.143  11.378  0.3756  1.3831  1.9859
  173DOPC  C31221153   1.827   3.283  11.329 -0.1946 -0.0932  0.9043
  173DOPC  H12X21154   1.756   3.205  11.294  1.2378 -1.4433  0.8887
  173DOPC  H12Y21155   1.814   3.365  11.256  0.3338 -0.8542 -0.0780
  173DOPC  C31321156   1.805   3.320  11.474  0.4193 -0.5453  0.8121
  173DOPC  H13X21157   1.700   3.354  11.490  0.5715 -0.4257  1.6018
  173DOPC  H13Y21158   1.818   3.227  11.533 -0.1616 -0.1781  1.5363
  173DOPC  C31421159   1.902   3.429  11.528  0.0867  0.2467 -0.3065
  173DOPC  H14X21160   1.882   3.462  11.632  1.8519 -0.1205  0.1854
  173DOPC  H14Y21161   2.006   3.390  11.516 -0.4756 -0.9190 -1.6271
  173DOPC  C31521162   1.886   3.561  11.458 -0.7815  0.3529  0.4598
  173DOPC  H15X21163   1.782   3.594  11.476 -0.5695  0.5480  1.3503
  173DOPC  H15Y21164   1.908   3.552  11.349  1.0983  1.0433  0.7440
  173DOPC  C31621165   1.983   3.664  11.507 -0.7830  0.1171 -0.5832
  173DOPC  H16X21166   1.958   3.679  11.614  0.5509  2.3261 -0.5263
  173DOPC  H16Y21167   2.091   3.635  11.501 -0.6273  0.7203 -0.7123
  173DOPC  C31721168   1.967   3.804  11.452 -0.2429 -0.0734 -0.1677
  173DOPC  H17X21169   2.023   3.815  11.356  1.3109  1.7689  0.8678
  173DOPC  H17Y21170   1.857   3.814  11.442 -0.4672 -0.1847  1.8335
  173DOPC  C31821171   2.018   3.921  11.541 -0.1993 -0.6993 -0.2169
  173DOPC  H18X21172   1.975   4.022  11.523 -0.7107 -1.0806 -1.2579
  173DOPC  H18Y21173   2.003   3.885  11.645  0.6661 -1.2531 -0.2714
  173DOPC  H18Z21174   2.129   3.923  11.536 -0.1265  3.4995 -0.0495
  174DOPC     N21175   5.526   1.350  10.417 -0.0055  0.2614  0.0752
  174DOPC   C1221176   5.640   1.445  10.452 -0.0886  0.6419 -1.1503
  174DOPC  H12A21177   5.633   1.534  10.392 -0.2385 -0.7574 -3.3294
  174DOPC  H12B21178   5.735   1.401  10.423  0.7669  1.2428  0.5771
  174DOPC   C1321179   5.401   1.428  10.407 -0.6100  0.0104 -0.1094
  174DOPC  H13A21180   5.316   1.367  10.381  0.3663 -1.2339 -0.4828
  174DOPC  H13B21181   5.395   1.489  10.497  3.0541 -0.2347  0.4247
  174DOPC  H13C21182   5.407   1.491  10.320  2.6003 -1.4468 -1.0895
  174DOPC   C1421183   5.501   1.231  10.508  0.3790 -0.6372  0.1122
  174DOPC  H14A21184   5.412   1.176  10.481 -0.5815  1.1664 -0.5716
  174DOPC  H14B21185   5.585   1.165  10.524  0.6760  0.3439  3.1923
  174DOPC  H14C21186   5.474   1.276  10.602 -0.1851 -0.1010 -0.2940
  174DOPC   C1521187   5.545   1.289  10.280 -0.6682 -0.0591 -0.6528
  174DOPC  H15A21188   5.454   1.237  10.258 -0.5860 -0.9375  0.9176
  174DOPC  H15B21189   5.632   1.226  10.272 -1.1245 -0.5726 -1.7253
  174DOPC  H15C21190   5.556   1.367  10.205 -0.8665 -0.0231 -0.6422
  174DOPC   C1121191   5.648   1.482  10.599  0.1256  0.0025 -0.4850
  174DOPC  H11A21192   5.655   1.394  10.667  0.2848  1.3858  1.3695
  174DOPC  H11B21193   5.740   1.540  10.621  0.5991 -1.0361  0.3813
  174DOPC     P21194   5.509   1.690  10.663  0.5428 -0.1417  0.2941
  174DOPC   O1321195   5.383   1.709  10.737  0.3977  0.0180 -0.5614
  174DOPC   O1421196   5.530   1.768  10.541 -0.2522 -0.2702 -0.1763
  174DOPC   O1221197   5.520   1.540  10.639 -0.1504 -0.6244  0.2021
  174DOPC   O1121198   5.635   1.709  10.762 -0.1275  0.3854  0.2483
  174DOPC    C121199   5.612   1.737  10.900 -0.1597 -0.3056 -0.8638
  174DOPC    HA21200   5.510   1.714  10.935 -0.3179 -0.9853 -1.7350
  174DOPC    HB21201   5.631   1.843  10.930 -1.4137 -0.0220 -1.0221
  174DOPC    C221202   5.701   1.652  10.992 -0.0014  0.1615  0.6861
  174DOPC    HS21203   5.802   1.675  10.951 -0.1958 -1.3147 -0.7343
  174DOPC   O2121204   5.668   1.510  10.989 -0.5988 -0.0208 -0.1066
  174DOPC   C2121205   5.773   1.421  10.988 -0.2864  0.1392  0.4801
  174DOPC   O2221206   5.891   1.451  10.992  0.5450 -0.3792 -0.0552
  174DOPC   C2221207   5.727   1.280  10.971 -0.6119  0.2041 -0.6765
  174DOPC   H2R21208   5.807   1.244  10.902 -0.1130 -1.5213  0.7216
  174DOPC   H2S21209   5.629   1.286  10.921 -0.1419  1.8605 -1.4721
  174DOPC    C321210   5.683   1.697  11.138  0.4099  0.2396 -0.0899
  174DOPC    HX21211   5.581   1.656  11.152  0.5733 -0.0425  0.2729
  174DOPC    HY21212   5.678   1.807  11.155 -0.2323  0.6768 -2.5917
  174DOPC   O3121213   5.762   1.619  11.231  0.0353 -0.1274  0.0537
  174DOPC   C3121214   5.893   1.639  11.217 -0.0593 -0.6037  0.6011
  174DOPC   O3221215   5.941   1.724  11.147 -0.1866  0.6098 -0.0319
  174DOPC   C3221216   5.977   1.552  11.305  0.3835 -0.8518  0.1195
  174DOPC   H2X21217   5.986   1.453  11.257  1.3200 -1.2577  1.0802
  174DOPC   H2Y21218   6.077   1.601  11.304 -0.1233  0.2168 -1.1501
  174DOPC   C2321219   5.749   1.193  11.097  0.1164 -0.5130 -0.3711
  174DOPC   H3R21220   5.855   1.193  11.131 -0.8546 -0.6037  3.0169
  174DOPC   H3S21221   5.711   1.092  11.072  0.3095 -0.3912 -1.1593
  174DOPC   C2421222   5.673   1.262  11.214  0.2549  0.5160  0.1376
  174DOPC   H4R21223   5.568   1.281  11.181  0.5189 -0.3089 -1.2372
  174DOPC   H4S21224   5.724   1.355  11.248  0.3101  0.8790 -0.9222
  174DOPC   C2521225   5.664   1.158  11.329  0.1957  0.2238 -0.1627
  174DOPC   H5R21226   5.770   1.140  11.359  0.2355 -3.0373 -1.7551
  174DOPC   H5S21227   5.630   1.055  11.303  0.5974 -0.2541  1.1267
  174DOPC   C2621228   5.579   1.208  11.449  0.8741 -0.2639 -0.1564
  174DOPC   H6R21229   5.469   1.205  11.432  0.3848  0.7192  2.3281
  174DOPC   H6S21230   5.614   1.310  11.473  0.2471 -0.3335  1.1236
  174DOPC   C2721231   5.595   1.126  11.576 -0.4277  0.1443 -0.9793
  174DOPC   H7R21232   5.702   1.133  11.607 -0.7398  0.1548  0.1575
  174DOPC   H7S21233   5.579   1.018  11.559  1.1695 -0.0729 -1.2718
  174DOPC   C2821234   5.507   1.181  11.694 -0.9355  0.2784  0.1630
  174DOPC   H8R21235   5.522   1.291  11.690 -0.6573  0.3650  2.4797
  174DOPC   H8S21236   5.543   1.138  11.789 -2.5006 -0.9129  0.2623
  174DOPC   C2921237   5.355   1.157  11.680 -0.6297  0.0879 -0.3018
  174DOPC   H9R21238   5.306   1.210  11.597  1.0471  1.4831 -0.4612
  174DOPC  C21021239   5.287   1.075  11.759  1.3477  0.3534 -0.0135
  174DOPC  H10R21240   5.181   1.055  11.737  1.2917 -0.5329  1.0021
  174DOPC  C21121241   5.339   0.988  11.870  0.3811 -0.5548 -0.4144
  174DOPC  H11R21242   5.450   0.988  11.871  0.3892 -0.8743  0.6277
  174DOPC  H11S21243   5.324   0.879  11.853  0.5036 -0.5890 -0.3046
  174DOPC  C21221244   5.297   1.041  12.007 -0.0237  0.3116  0.6990
  174DOPC  H12R21245   5.187   1.050  12.021  0.1567  0.8023  1.9182
  174DOPC  H12S21246   5.339   1.141  12.026 -1.4473  0.5748  2.7575
  174DOPC  C21321247   5.354   0.961  12.128  0.3599 -0.1297  1.0460
  174DOPC  H13R21248   5.464   0.955  12.118  0.2989  1.0230 -0.8670
  174DOPC  H13S21249   5.305   0.861  12.127 -1.4953  0.7457  0.0001
  174DOPC  C21421250   5.309   1.028  12.255  0.0455  0.4164 -0.0698
  174DOPC  H14R21251   5.199   1.030  12.263  0.1513  0.0943  1.7925
  174DOPC  H14S21252   5.342   1.133  12.264 -0.2040  0.3281  2.6211
  174DOPC  C21521253   5.347   0.950  12.388 -0.1432  0.1529 -0.6377
  174DOPC  H15R21254   5.313   0.846  12.370  0.7373 -0.1428 -0.6126
  174DOPC  H15S21255   5.286   0.986  12.474  0.5329 -0.5382  0.1389
  174DOPC  C21621256   5.497   0.960  12.428  0.3466  0.2243 -0.4920
  174DOPC  H16R21257   5.521   1.066  12.449  3.4096 -0.3184 -0.8561
  174DOPC  H16S21258   5.561   0.939  12.339  1.0967  1.0734 -0.1601
  174DOPC  C21721259   5.552   0.860  12.534 -0.5712 -0.1157 -0.3034
  174DOPC  H17R21260   5.519   0.757  12.507  4.1896 -1.4953 -1.8816
  174DOPC  H17S21261   5.507   0.884  12.633  0.6535  0.8502  0.0343
  174DOPC  C21821262   5.701   0.881  12.550  0.1080  0.5389 -0.3323
  174DOPC  H18R21263   5.722   0.988  12.569  0.9238  0.2556  0.4613
  174DOPC  H18S21264   5.757   0.841  12.462  0.8039  0.5228  0.1040
  174DOPC  H18T21265   5.742   0.821  12.634 -1.6821 -0.9289 -0.4440
  174DOPC   C3321266   5.924   1.535  11.447  0.6463 -0.0666 -0.1812
  174DOPC   H3X21267   5.815   1.542  11.464  0.1942 -2.0363 -1.8664
  174DOPC   H3Y21268   5.964   1.618  11.509  1.4838 -1.3675  1.0896
  174DOPC   C3421269   5.971   1.406  11.506  0.0460 -0.0501  0.7180
  174DOPC   H4X21270   6.082   1.405  11.505  0.0701  0.1512  1.8540
  174DOPC   H4Y21271   5.947   1.328  11.431 -0.1372 -1.5767  2.2915
  174DOPC   C3521272   5.917   1.363  11.644  0.4835 -0.4347 -0.4213
  174DOPC   H5X21273   5.807   1.349  11.636  0.1851  1.5249 -0.1738
  174DOPC   H5Y21274   5.947   1.437  11.722  0.4608 -1.1197  0.2498
  174DOPC   C3621275   5.967   1.220  11.688 -0.2586 -0.3737  0.5780
  174DOPC   H6X21276   5.917   1.160  11.609  0.9087 -0.2839 -0.2426
  174DOPC   H6Y21277   6.078   1.224  11.692 -0.3102  1.2971  0.9550
  174DOPC   C3721278   5.916   1.174  11.822  0.2631  0.4438  0.3280
  174DOPC   H7X21279   5.972   1.237  11.894  1.2479  1.3092 -1.1540
  174DOPC   H7Y21280   5.807   1.191  11.834  0.3699  1.5673 -0.1469
  174DOPC   C3821281   5.962   1.025  11.849  0.4100  0.3455  0.1065
  174DOPC   H8X21282   6.070   1.034  11.870  0.2246  1.6003  0.5951
  174DOPC   H8Y21283   5.933   0.975  11.754  2.7666 -0.0939 -0.4445
  174DOPC   C3921284   5.893   0.976  11.972 -0.0322  0.1083 -0.4527
  174DOPC   H9X21285   5.915   1.036  12.062 -1.1792 -0.0999 -0.0142
  174DOPC  C31021286   5.791   0.889  11.978  0.0144  0.1206  0.5387
  174DOPC  H10X21287   5.749   0.854  12.074 -0.1760 -0.7985  0.1328
  174DOPC  C31121288   5.741   0.810  11.856  0.2629  0.3606 -0.4984
  174DOPC  H11X21289   5.761   0.866  11.763  0.3904  0.5473 -0.3584
  174DOPC  H11Y21290   5.630   0.802  11.865  0.4354  0.0476  3.5481
  174DOPC  C31221291   5.795   0.671  11.851 -0.8712  0.4396  0.1394
  174DOPC  H12X21292   5.736   0.611  11.923 -1.6172  1.1428  0.1204
  174DOPC  H12Y21293   5.901   0.672  11.886 -0.4165  1.0471 -1.1631
  174DOPC  C31321294   5.786   0.608  11.707 -0.3816  0.1700 -0.7001
  174DOPC  H13X21295   5.677   0.606  11.687 -0.7492  1.0502  0.9770
  174DOPC  H13Y21296   5.833   0.677  11.633  1.3431 -1.0524 -0.8032
  174DOPC  C31421297   5.842   0.464  11.701  0.3975  0.5106  0.3482
  174DOPC  H14X21298   5.901   0.451  11.795  0.0982 -2.7211  0.1809
  174DOPC  H14Y21299   5.757   0.393  11.710  1.6763 -0.9504  1.3958
  174DOPC  C31521300   5.914   0.441  11.566 -0.3653  0.6140 -0.1455
  174DOPC  H15X21301   6.014   0.393  11.564 -1.1925 -1.2340  0.4216
  174DOPC  H15Y21302   5.918   0.538  11.511  0.1490 -0.9500 -3.0373
  174DOPC  C31621303   5.826   0.339  11.484 -0.5100 -0.3258  0.1977
  174DOPC  H16X21304   5.821   0.249  11.549  1.1980  0.3481  1.3153
  174DOPC  H16Y21305   5.717   0.365  11.482 -0.9825 -1.9064  2.0623
  174DOPC  C31721306   5.881   0.307  11.347 -0.7670  0.2880  0.7726
  174DOPC  H17X21307   5.849   0.383  11.272  0.6472 -0.2271 -0.3979
  174DOPC  H17Y21308   5.992   0.313  11.339 -0.9070  0.9791 -1.3134
  174DOPC  C31821309   5.825   0.166  11.304  0.5131  0.4943  0.1961
  174DOPC  H18X21310   5.875   0.080  11.353 -0.7255 -0.5848 -0.3567
  174DOPC  H18Y21311   5.715   0.156  11.317  0.6078  0.2763  0.8400
  174DOPC  H18Z21312   5.847   0.151  11.196  1.6334 -1.1029  0.6126
  175DOPC     N21313   3.801   7.932  10.231  0.2585 -0.1898 -0.7519
  175DOPC   C1221314   3.872   8.065  10.224 -0.3728 -0.1488  0.5831
  175DOPC  H12A21315   3.798   8.132  10.265 -1.8039  0.0417 -2.0906
  175DOPC  H12B21316   3.888   8.090  10.120  0.7669 -1.1845  0.4913
  175DOPC   C1321317   3.899   7.817  10.207 -0.3481 -0.7752  0.0749
  175DOPC  H13A21318   3.950   7.791  10.298  0.5328  0.3429 -0.0702
  175DOPC  H13B21319   3.848   7.725  10.180 -0.3467 -0.7632  0.0295
  175DOPC  H13C21320   3.969   7.827  10.125  0.1498 -2.3511  0.2573
  175DOPC   C1421321   3.687   7.920  10.134  0.1837 -0.5076 -0.1980
  175DOPC  H14A21322   3.646   7.823  10.158  1.2277 -0.9306 -0.0541
  175DOPC  H14B21323   3.608   7.991  10.148 -1.0545 -1.9911  0.6340
  175DOPC  H14C21324   3.719   7.919  10.030 -0.0050 -1.0885 -0.2581
  175DOPC   C1521325   3.733   7.917  10.365 -0.7794  0.1454  0.1062
  175DOPC  H15A21326   3.708   7.815  10.388  0.5706  0.4603  3.6619
  175DOPC  H15B21327   3.653   7.989  10.362  0.5417  1.6365 -2.8348
  175DOPC  H15C21328   3.796   7.950  10.447 -0.3461  0.5811 -0.3943
  175DOPC   C1121329   3.994   8.095  10.310 -0.1617  0.6678 -0.0368
  175DOPC  H11A21330   4.077   8.028  10.281  0.1563  0.3179  1.5628
  175DOPC  H11B21331   4.027   8.196  10.277  1.5012  0.3033  0.4560
  175DOPC     P21332   4.049   8.028  10.562 -0.2534  0.3160 -0.1111
  175DOPC   O1321333   4.175   8.105  10.585 -0.2753  0.5305 -0.4340
  175DOPC   O1421334   4.062   7.887  10.524  0.2475 -0.0872 -0.3005
  175DOPC   O1221335   3.958   8.100  10.448 -0.0670 -0.0479 -0.0605
  175DOPC   O1121336   3.954   8.041  10.691  0.0248 -0.0252 -0.3992
  175DOPC    C121337   3.905   8.171  10.733  0.2146 -0.2002  0.4885
  175DOPC    HA21338   3.966   8.261  10.715  1.5320 -1.0911  0.3232
  175DOPC    HB21339   3.912   8.167  10.844  1.3368  0.3533  0.4516
  175DOPC    C221340   3.760   8.202  10.697  0.2493 -0.1615  0.7507
  175DOPC    HS21341   3.756   8.215  10.587  0.1380 -0.0643  0.7657
  175DOPC   O2121342   3.721   8.330  10.754  0.1152  0.1898 -0.1834
  175DOPC   C2121343   3.624   8.396  10.688  0.0521 -0.3188 -0.1862
  175DOPC   O2221344   3.578   8.371  10.575  0.6519 -0.0546 -0.3908
  175DOPC   C2221345   3.591   8.518  10.769  0.4985 -0.1338 -0.1158
  175DOPC   H2R21346   3.614   8.612  10.714 -0.9625  1.6227  2.0985
  175DOPC   H2S21347   3.644   8.504  10.866 -0.7768  3.6787  1.3142
  175DOPC    C321348   3.663   8.082  10.747 -0.1393 -0.2918 -0.1834
  175DOPC    HX21349   3.716   7.992  10.707 -0.9486 -0.4169 -1.0132
  175DOPC    HY21350   3.569   8.108  10.693 -0.0615 -0.8995 -0.6249
  175DOPC   O3121351   3.664   8.082  10.891  0.5527 -0.0106 -0.0781
  175DOPC   C3121352   3.555   8.135  10.945  0.3954 -0.0419 -0.0531
  175DOPC   O3221353   3.455   8.175  10.887 -0.2544 -0.2944 -0.0236
  175DOPC   C3221354   3.567   8.124  11.097 -0.7461  0.1621 -0.7147
  175DOPC   H2X21355   3.578   8.015  11.119 -0.0157  0.4824  0.5958
  175DOPC   H2Y21356   3.665   8.173  11.114 -0.1872 -0.9521 -0.6518
  175DOPC   C2321357   3.438   8.525  10.790 -0.0983  0.2478  0.9468
  175DOPC   H3R21358   3.401   8.435  10.842  1.3902 -0.9178  0.0738
  175DOPC   H3S21359   3.385   8.544  10.694  1.8142 -1.5155 -0.5255
  175DOPC   C2421360   3.404   8.654  10.865  0.6485 -0.5817  0.0706
  175DOPC   H4R21361   3.294   8.646  10.854  0.7971 -1.6224 -0.7969
  175DOPC   H4S21362   3.442   8.742  10.809  2.3960 -1.1525  0.3109
  175DOPC   C2521363   3.452   8.668  11.013  0.5995  0.0178 -0.3983
  175DOPC   H5R21364   3.563   8.679  11.013  0.5811  0.5845  1.6436
  175DOPC   H5S21365   3.431   8.567  11.056  0.2087  0.1009 -0.3914
  175DOPC   C2621366   3.389   8.779  11.098  0.3101  0.8608  0.2429
  175DOPC   H6R21367   3.279   8.767  11.088  0.1050 -1.0865  3.3804
  175DOPC   H6S21368   3.423   8.872  11.048  1.4972  0.1658 -0.2643
  175DOPC   C2721369   3.411   8.779  11.248  0.4698 -0.0062 -0.6843
  175DOPC   H7R21370   3.359   8.871  11.283  1.0016  0.3127 -0.7087
  175DOPC   H7S21371   3.522   8.776  11.254  0.5948 -1.2963 -2.7481
  175DOPC   C2821372   3.354   8.664  11.330 -0.6572 -0.0022 -0.5642
  175DOPC   H8R21373   3.401   8.665  11.430 -3.4111 -1.7150  0.8701
  175DOPC   H8S21374   3.390   8.567  11.290 -0.0373 -0.0566  0.1278
  175DOPC   C2921375   3.205   8.670  11.350 -0.0198 -0.0689  0.6566
  175DOPC   H9R21376   3.155   8.630  11.261  1.9334 -1.4979  0.1613
  175DOPC  C21021377   3.138   8.721  11.452 -0.8017 -0.0873 -0.3424
  175DOPC  H10R21378   3.028   8.717  11.457 -0.7637  0.3562  1.8635
  175DOPC  C21121379   3.193   8.783  11.578  0.1783 -0.1368 -0.5003
  175DOPC  H11R21380   3.127   8.872  11.590 -1.8383 -1.7604  1.2913
  175DOPC  H11S21381   3.300   8.811  11.568  1.1169 -1.8315  3.1247
  175DOPC  C21221382   3.171   8.688  11.697  0.2371  0.5816  1.0785
  175DOPC  H12R21383   3.216   8.734  11.788  0.5588 -1.9350  2.2870
  175DOPC  H12S21384   3.221   8.589  11.687 -0.5312  0.1499  1.4010
  175DOPC  C21321385   3.027   8.656  11.745  0.5099 -0.2571 -0.0985
  175DOPC  H13R21386   2.981   8.587  11.671  0.3940  1.2555 -1.5213
  175DOPC  H13S21387   2.975   8.754  11.742 -3.9652 -2.4032  0.0247
  175DOPC  C21421388   3.021   8.610  11.891  0.2845  0.6160  0.3586
  175DOPC  H14R21389   2.917   8.582  11.918  0.6218 -2.5245 -1.1321
  175DOPC  H14S21390   3.049   8.685  11.967 -0.3061  1.6304 -0.3964
  175DOPC  C21521391   3.094   8.474  11.909 -0.4260  0.0257  0.0660
  175DOPC  H15R21392   3.203   8.495  11.909 -0.0618 -1.6891  0.3759
  175DOPC  H15S21393   3.072   8.414  11.818  0.2695 -1.0374  0.5817
  175DOPC  C21621394   3.060   8.402  12.043  0.3099 -0.1274 -0.6226
  175DOPC  H16R21395   3.093   8.297  12.030  0.2636  0.0624 -2.6422
  175DOPC  H16S21396   2.950   8.388  12.056 -0.2290  2.5686 -1.4662
  175DOPC  C21721397   3.113   8.477  12.166 -0.2386 -0.0939 -0.4658
  175DOPC  H17R21398   3.088   8.432  12.265  1.1515  1.7534  0.7915
  175DOPC  H17S21399   3.062   8.575  12.175  0.9241  0.3211  2.4139
  175DOPC  C21821400   3.269   8.505  12.165  0.7572  0.2973  0.1881
  175DOPC  H18R21401   3.287   8.584  12.241  1.1291 -1.6978  2.2922
  175DOPC  H18S21402   3.308   8.541  12.068  1.3521 -0.7569  0.0207
  175DOPC  H18T21403   3.331   8.416  12.189  0.6229 -0.0730 -0.8176
  175DOPC   C3321404   3.465   8.202  11.181  0.2306  0.3492  0.0059
  175DOPC   H3X21405   3.450   8.301  11.133 -0.2897 -0.0745 -0.7232
  175DOPC   H3Y21406   3.507   8.216  11.283 -1.6107  1.7271  0.6367
  175DOPC   C3421407   3.327   8.133  11.194 -0.3407 -0.7663  0.1076
  175DOPC   H4X21408   3.356   8.027  11.181 -1.0022 -0.6353 -3.4285
  175DOPC   H4Y21409   3.271   8.148  11.099  0.8171 -0.4980 -0.5436
  175DOPC   C3521410   3.252   8.175  11.316  0.3053 -0.7250  0.1091
  175DOPC   H5X21411   3.152   8.126  11.315 -0.9160  1.4239  2.5452
  175DOPC   H5Y21412   3.230   8.284  11.308  1.8505 -0.4523 -0.7936
  175DOPC   C3621413   3.324   8.127  11.442 -0.5447 -0.9085 -0.1410
  175DOPC   H6X21414   3.377   8.030  11.434  0.4056 -0.3300 -1.1259
  175DOPC   H6Y21415   3.405   8.200  11.462  0.1115 -1.7342  0.2499
  175DOPC   C3721416   3.241   8.128  11.567 -0.1245 -0.1116  0.1248
  175DOPC   H7X21417   3.180   8.222  11.571  1.3144  0.8768 -0.4957
  175DOPC   H7Y21418   3.167   8.046  11.556  0.8255 -0.9187 -0.3829
  175DOPC   C3821419   3.333   8.113  11.695 -0.2558 -0.2891 -0.1223
  175DOPC   H8X21420   3.410   8.190  11.714 -0.6666  0.2884 -0.7801
  175DOPC   H8Y21421   3.388   8.019  11.673  0.4949  0.5125 -1.8872
  175DOPC   C3921422   3.244   8.099  11.820  0.1255 -0.2714  0.2557
  175DOPC   H9X21423   3.179   8.186  11.837  1.6667  1.1221 -0.7153
  175DOPC  C31021424   3.250   7.995  11.908 -0.4883  0.2213  0.2423
  175DOPC  H10X21425   3.180   7.984  11.992 -2.8431 -2.6681 -1.8820
  175DOPC  C31121426   3.348   7.881  11.908  0.0399 -0.1029 -0.0095
  175DOPC  H11X21427   3.424   7.883  11.827 -3.0824  0.7326 -3.1516
  175DOPC  H11Y21428   3.288   7.790  11.887 -0.2206 -0.2390  1.2652
  175DOPC  C31221429   3.418   7.852  12.042 -0.0803 -0.1701  0.4296
  175DOPC  H12X21430   3.346   7.859  12.126  0.3966  1.1544  0.7526
  175DOPC  H12Y21431   3.494   7.929  12.067 -1.7655  1.2279  1.4727
  175DOPC  C31321432   3.486   7.719  12.038 -0.8073 -0.7814  0.0744
  175DOPC  H13X21433   3.521   7.695  12.141 -0.4591  0.2601  0.2117
  175DOPC  H13Y21434   3.409   7.641  12.020  1.0245 -2.1728 -2.3267
  175DOPC  C31421435   3.598   7.696  11.936 -0.1112 -0.2610 -0.2879
  175DOPC  H14X21436   3.550   7.704  11.837 -2.4712  1.2750  0.9033
  175DOPC  H14Y21437   3.672   7.779  11.926  1.1594 -1.0308  1.9003
  175DOPC  C31521438   3.664   7.557  11.951  0.0198  0.2055  0.4561
  175DOPC  H15X21439   3.583   7.481  11.962 -0.5831  0.8201  0.3258
  175DOPC  H15Y21440   3.719   7.562  12.048 -0.2596  0.1772  0.6193
  175DOPC  C31621441   3.771   7.541  11.848  0.6171  0.5233  0.3777
  175DOPC  H16X21442   3.727   7.558  11.747 -3.8402 -0.5263  1.9097
  175DOPC  H16Y21443   3.848   7.621  11.854  2.2341 -0.9951  0.6409
  175DOPC  C31721444   3.852   7.413  11.861 -0.6446  0.0642  0.5515
  175DOPC  H17X21445   3.923   7.401  11.776  1.2734  1.3246  1.8789
  175DOPC  H17Y21446   3.918   7.423  11.950 -1.2323 -0.4334  1.0465
  175DOPC  C31821447   3.784   7.275  11.872  0.3517  0.6306  0.8337
  175DOPC  H18X21448   3.718   7.272  11.782  0.0778  0.8302  1.0223
  175DOPC  H18Y21449   3.856   7.192  11.864 -0.4930  0.0588 -3.6797
  175DOPC  H18Z21450   3.722   7.260  11.963 -3.4054 -0.8991 -1.6902
  176DOPC     N21451   3.155   3.201  10.438  0.0645 -0.5140  0.1550
  176DOPC   C1221452   3.265   3.109  10.394  0.3785  0.0293 -0.0461
  176DOPC  H12A21453   3.234   3.086  10.293 -1.1067  0.0882  0.3867
  176DOPC  H12B21454   3.259   3.015  10.446  0.9311 -0.0476 -0.1152
  176DOPC   C1321455   3.182   3.224  10.586  0.2770 -0.1568  0.6209
  176DOPC  H13A21456   3.270   3.284  10.605 -0.4538  1.2906 -0.3608
  176DOPC  H13B21457   3.090   3.260  10.630 -1.3959 -1.1897 -1.8458
  176DOPC  H13C21458   3.207   3.129  10.632  0.4260 -0.9838 -1.0795
  176DOPC   C1421459   3.021   3.144  10.418 -0.0951 -0.1480  0.1469
  176DOPC  H14A21460   3.003   3.044  10.456  2.8052 -1.0254 -0.5079
  176DOPC  H14B21461   2.946   3.210  10.458  1.5177  1.2305  1.0205
  176DOPC  H14C21462   3.005   3.140  10.311  0.1760 -0.3748  0.1130
  176DOPC   C1521463   3.166   3.334  10.373  0.1756 -0.6908 -0.2894
  176DOPC  H15A21464   3.266   3.371  10.391  0.5649 -1.8191 -0.0598
  176DOPC  H15B21465   3.111   3.406  10.433  1.5776 -1.0535  1.4946
  176DOPC  H15C21466   3.122   3.345  10.275 -1.5546  1.5164  0.6272
  176DOPC   C1121467   3.416   3.153  10.394 -0.2627 -0.3208 -0.0984
  176DOPC  H11A21468   3.469   3.069  10.343 -2.7694 -0.9993 -1.8204
  176DOPC  H11B21469   3.430   3.238  10.324 -2.6522 -0.7806 -1.2645
  176DOPC     P21470   3.565   3.096  10.602 -0.6314  0.5273  0.4798
  176DOPC   O1321471   3.697   3.094  10.539  0.2304  0.3898 -0.1711
  176DOPC   O1421472   3.505   2.960  10.622 -0.5094 -0.1651 -0.9005
  176DOPC   O1221473   3.464   3.190  10.526 -0.3429 -0.4395  0.6534
  176DOPC   O1121474   3.583   3.162  10.740 -0.2826  0.1226  0.2641
  176DOPC    C121475   3.513   3.274  10.803  0.0463 -0.2119 -0.4439
  176DOPC    HA21476   3.432   3.310  10.735  0.6309  1.2675 -0.3794
  176DOPC    HB21477   3.581   3.361  10.813 -0.4892  0.2636 -0.8725
  176DOPC    C221478   3.444   3.240  10.941  0.5095 -0.4891  0.0545
  176DOPC    HS21479   3.383   3.326  10.974 -1.0161 -1.4413 -0.1808
  176DOPC   O2121480   3.545   3.216  11.041  0.0368  0.2718  0.1878
  176DOPC   C2121481   3.510   3.231  11.172  0.6227 -0.7315 -0.0278
  176DOPC   O2221482   3.404   3.251  11.219  0.5951 -0.3451 -0.1924
  176DOPC   C2221483   3.640   3.217  11.250 -0.2173  0.2381 -0.0907
  176DOPC   H2R21484   3.680   3.317  11.277 -0.9919  0.7991 -0.9399
  176DOPC   H2S21485   3.711   3.161  11.185  0.7497 -0.2273  1.3135
  176DOPC    C321486   3.340   3.121  10.914  0.3435 -0.8545 -0.1632
  176DOPC    HX21487   3.397   3.025  10.915  1.1076 -0.4539  2.5406
  176DOPC    HY21488   3.315   3.116  10.806  2.7985 -2.1066 -0.7554
  176DOPC   O3121489   3.232   3.108  11.017 -0.7213  0.2110 -0.1601
  176DOPC   C3121490   3.114   3.138  10.979  0.2032 -0.8981  0.1703
  176DOPC   O3221491   3.089   3.204  10.876  0.3032 -0.4373 -0.0987
  176DOPC   C3221492   3.005   3.080  11.069  1.0168  0.1422 -0.3402
  176DOPC   H2X21493   2.975   2.982  11.026  0.5592  0.6459 -1.1978
  176DOPC   H2Y21494   3.037   3.064  11.175 -0.7040 -0.5728  0.1095
  176DOPC   C2321495   3.604   3.136  11.376  0.2257  0.3224 -0.0092
  176DOPC   H3R21496   3.556   3.037  11.357  0.9833 -0.4113  1.7044
  176DOPC   H3S21497   3.542   3.199  11.442  0.8715  0.0586  0.8696
  176DOPC   C2421498   3.728   3.086  11.452  0.8676 -0.3831 -0.0438
  176DOPC   H4R21499   3.782   3.174  11.492 -1.6527  1.7735 -1.1018
  176DOPC   H4S21500   3.788   3.024  11.382 -0.2765 -2.9451  1.0939
  176DOPC   C2521501   3.679   2.996  11.564  0.6788 -0.1283  0.0943
  176DOPC   H5R21502   3.651   2.900  11.514 -1.1736  0.2384  0.3413
  176DOPC   H5S21503   3.594   3.044  11.617  0.2405 -1.3597  0.5222
  176DOPC   C2621504   3.794   2.972  11.668  1.0514 -0.6061  0.7792
  176DOPC   H6R21505   3.825   3.072  11.703 -2.3788 -0.2320  3.3678
  176DOPC   H6S21506   3.883   2.925  11.621  2.4942  3.6326 -1.1827
  176DOPC   C2721507   3.768   2.870  11.788  0.1676 -0.6937  0.5103
  176DOPC   H7R21508   3.736   2.773  11.744 -0.5992 -0.0090 -0.4881
  176DOPC   H7S21509   3.698   2.918  11.859  1.7732  1.2645  0.8514
  176DOPC   C2821510   3.893   2.846  11.873  0.1957 -0.2370 -0.1556
  176DOPC   H8R21511   3.923   2.942  11.920  3.2897 -1.1394 -0.0616
  176DOPC   H8S21512   3.981   2.823  11.809  1.0324  0.0181  0.8778
  176DOPC   C2921513   3.875   2.730  11.969 -0.4864 -0.1256  0.4572
  176DOPC   H9R21514   3.904   2.636  11.921  1.3677  0.7035 -0.1671
  176DOPC  C21021515   3.841   2.739  12.097 -0.1597  0.6361 -0.3864
  176DOPC  H10R21516   3.854   2.652  12.164 -2.1387  1.1914  0.7838
  176DOPC  C21121517   3.801   2.859  12.180 -0.0415  0.0795  0.3240
  176DOPC  H11R21518   3.819   2.954  12.125 -2.6489  0.8855  0.7129
  176DOPC  H11S21519   3.857   2.876  12.274 -0.1234  0.8231  0.2490
  176DOPC  C21221520   3.645   2.858  12.203 -0.0925  0.3226 -0.7304
  176DOPC  H12R21521   3.617   2.774  12.271  2.7103  0.4867  0.8024
  176DOPC  H12S21522   3.590   2.847  12.107 -1.0666  0.0330 -0.1600
  176DOPC  C21321523   3.607   2.984  12.285  0.5977  0.2430  0.0392
  176DOPC  H13R21524   3.496   2.993  12.291  0.3602 -2.0319  0.2036
  176DOPC  H13S21525   3.664   3.068  12.241 -1.5036  2.6087  1.5378
  176DOPC  C21421526   3.644   2.986  12.436 -0.0374 -1.0638 -0.7246
  176DOPC  H14R21527   3.709   3.069  12.471  0.6035 -1.7382 -0.2865
  176DOPC  H14S21528   3.688   2.887  12.459  0.1234 -0.8545 -0.1238
  176DOPC  C21521529   3.514   2.986  12.522 -0.1151 -0.0096 -0.4334
  176DOPC  H15R21530   3.439   2.910  12.491  0.0087 -0.3676  0.1254
  176DOPC  H15S21531   3.461   3.083  12.511  1.4850  1.0037  0.5213
  176DOPC  C21621532   3.568   2.960  12.668  0.6662 -0.3212 -0.0880
  176DOPC  H16R21533   3.653   3.025  12.699 -0.0386  0.6304 -0.0851
  176DOPC  H16S21534   3.605   2.856  12.666  1.1735 -0.1768  1.1228
  176DOPC  C21721535   3.471   2.980  12.783 -0.4441  0.2307  0.5101
  176DOPC  H17R21536   3.507   2.930  12.875 -1.7585  1.7958  1.9440
  176DOPC  H17S21537   3.384   2.920  12.748  0.7967 -0.0714 -2.4076
  176DOPC  C21821538   3.436   3.127  12.797  0.3058  0.1704  0.5773
  176DOPC  H18R21539   3.408   3.180  12.703 -0.7512 -2.2514 -0.5682
  176DOPC  H18S21540   3.535   3.166  12.828  1.8792 -2.5225 -0.7025
  176DOPC  H18T21541   3.356   3.141  12.872  0.3223  1.5448  0.3576
  176DOPC   C3321542   2.864   3.148  11.058  0.0327  0.1754 -0.2036
  176DOPC   H3X21543   2.778   3.085  11.088 -0.6399  2.4737  3.3327
  176DOPC   H3Y21544   2.843   3.172  10.952  1.6949 -1.2987 -0.9195
  176DOPC   C3421545   2.845   3.284  11.124  0.1299 -0.2105  0.6081
  176DOPC   H4X21546   2.871   3.375  11.066  0.0471  1.3877  2.9367
  176DOPC   H4Y21547   2.921   3.292  11.204 -0.9635  0.3163  1.6195
  176DOPC   C3521548   2.705   3.303  11.179 -0.5901  0.3255  0.1575
  176DOPC   H5X21549   2.675   3.214  11.238  1.5448 -0.6785 -0.1536
  176DOPC   H5Y21550   2.638   3.325  11.093  0.6101  1.0190 -0.6262
  176DOPC   C3621551   2.703   3.433  11.265  1.1658  0.7322  0.2388
  176DOPC   H6X21552   2.759   3.513  11.213  0.5598  0.3681 -1.0099
  176DOPC   H6Y21553   2.597   3.464  11.266  0.4634 -1.4563  0.5877
  176DOPC   C3721554   2.750   3.400  11.408 -0.5444 -0.0072 -0.1655
  176DOPC   H7X21555   2.697   3.306  11.436  2.1483 -1.2959  0.9969
  176DOPC   H7Y21556   2.857   3.379  11.386 -1.0076 -2.7962 -0.2003
  176DOPC   C3821557   2.750   3.523  11.508 -0.1216 -0.0071  0.1244
  176DOPC   H8X21558   2.785   3.609  11.446  2.9939 -0.4302  1.1399
  176DOPC   H8Y21559   2.828   3.502  11.583 -2.0835 -2.0123  1.7642
  176DOPC   C3921560   2.614   3.546  11.567 -0.6339  0.4699  0.8647
  176DOPC   H9X21561   2.564   3.462  11.617  0.4069 -1.4907 -1.1759
  176DOPC  C31021562   2.541   3.645  11.531  0.1464 -0.0366 -0.0489
  176DOPC  H10X21563   2.450   3.662  11.591  0.0548 -0.9453  0.0692
  176DOPC  C31121564   2.568   3.776  11.456  0.0719 -0.3055 -0.1712
  176DOPC  H11X21565   2.647   3.764  11.378 -0.3390 -0.3141 -0.5914
  176DOPC  H11Y21566   2.602   3.850  11.532  0.0383 -0.9586  0.4930
  176DOPC  C31221567   2.442   3.822  11.384  0.2597 -0.5011 -0.1089
  176DOPC  H12X21568   2.359   3.812  11.458  0.3260  0.1075  0.0553
  176DOPC  H12Y21569   2.420   3.756  11.297  0.4762 -2.2243  1.0908
  176DOPC  C31321570   2.455   3.956  11.325  0.1722 -0.8193  0.0161
  176DOPC  H13X21571   2.510   4.031  11.385 -0.0738  0.6529 -1.5098
  176DOPC  H13Y21572   2.515   3.939  11.233  0.3813 -0.5924  0.1069
  176DOPC  C31421573   2.319   4.017  11.287  0.3981 -0.1636  0.5649
  176DOPC  H14X21574   2.277   3.935  11.225  1.1505 -0.9891  1.1052
  176DOPC  H14Y21575   2.259   4.045  11.377  1.1021  1.2421  0.6138
  176DOPC  C31521576   2.338   4.148  11.211  0.2502 -0.6187  0.7568
  176DOPC  H15X21577   2.421   4.205  11.257 -1.1505  1.4475  0.8963
  176DOPC  H15Y21578   2.243   4.207  11.211 -0.5079 -1.7089 -1.3695
  176DOPC  C31621579   2.364   4.122  11.060 -0.2931 -0.4097 -0.5094
  176DOPC  H16X21580   2.395   4.215  11.007  0.2363 -1.5927 -2.3863
  176DOPC  H16Y21581   2.445   4.047  11.049  1.2208  0.8161  1.5278
  176DOPC  C31721582   2.229   4.082  10.999 -0.0545 -0.1534  0.2309
  176DOPC  H17X21583   2.175   4.016  11.071 -2.1023  1.2734  0.0874
  176DOPC  H17Y21584   2.173   4.178  10.996  1.2754  0.6413  0.1528
  176DOPC  C31821585   2.239   4.028  10.857 -0.1955  0.1408  0.4078
  176DOPC  H18X21586   2.140   4.020  10.806  0.0306  0.8047 -0.1483
  176DOPC  H18Y21587   2.301   4.098  10.799 -1.1481 -0.5446 -1.5311
  176DOPC  H18Z21588   2.282   3.927  10.873  0.8047  0.6922  1.3277
  177DOPC     N21589   5.584   5.000  10.811  0.6346  0.0714  0.2953
  177DOPC   C1221590   5.508   5.086  10.708  0.0738  0.0904  0.1959
  177DOPC  H12A21591   5.404   5.063  10.725  0.3991 -0.8742  0.9809
  177DOPC  H12B21592   5.522   5.056  10.605  0.5791  2.7104 -0.5669
  177DOPC   C1321593   5.545   5.062  10.942  0.0734 -0.0728  0.1761
  177DOPC  H13A21594   5.598   5.155  10.959  0.6494 -0.3130 -0.2750
  177DOPC  H13B21595   5.440   5.086  10.950  0.5960  1.9653  2.2995
  177DOPC  H13C21596   5.579   5.001  11.024  1.6960 -1.4880 -1.4758
  177DOPC   C1421597   5.727   5.009  10.791  0.4110 -0.2407  0.1587
  177DOPC  H14A21598   5.765   4.973  10.696 -0.6815 -1.1612  0.0530
  177DOPC  H14B21599   5.750   5.114  10.784 -1.2945  0.1574  0.1217
  177DOPC  H14C21600   5.779   4.960  10.872  0.4897 -0.1862  0.1417
  177DOPC   C1521601   5.531   4.861  10.803  0.4750  0.5107  0.7684
  177DOPC  H15A21602   5.426   4.850  10.827  0.2502 -2.1407 -0.9184
  177DOPC  H15B21603   5.587   4.800  10.872 -1.3124 -2.7061 -0.3616
  177DOPC  H15C21604   5.551   4.814  10.707  0.6813  1.3183  0.4138
  177DOPC   C1121605   5.508   5.242  10.715  0.0030 -0.1075 -0.1078
  177DOPC  H11A21606   5.448   5.282  10.631 -0.4426  0.3997  0.4442
  177DOPC  H11B21607   5.449   5.276  10.802 -0.3082  1.2342 -0.8192
  177DOPC     P21608   5.690   5.392  10.826  0.2324 -0.0892  0.5102
  177DOPC   O1321609   5.807   5.466  10.769 -0.4584  0.2264  0.0684
  177DOPC   O1421610   5.711   5.308  10.947 -0.1340 -0.0783  0.1227
  177DOPC   O1221611   5.638   5.299  10.712 -0.3713  0.4374  0.5631
  177DOPC   O1121612   5.565   5.490  10.854 -0.4710 -0.7483  0.0789
  177DOPC    C121613   5.534   5.597  10.768  0.3945  1.0645  0.1751
  177DOPC    HA21614   5.423   5.604  10.766  0.3506  1.6509  2.3863
  177DOPC    HB21615   5.575   5.584  10.665 -0.5315  2.2556 -0.3548
  177DOPC    C221616   5.591   5.725  10.830  0.5090  0.2919 -0.4368
  177DOPC    HS21617   5.696   5.714  10.794  0.6696 -1.8768  0.5069
  177DOPC   O2121618   5.579   5.730  10.973  0.1049 -0.1443 -0.0453
  177DOPC   C2121619   5.663   5.793  11.045 -0.5446 -0.2183  0.4580
  177DOPC   O2221620   5.761   5.859  11.005 -0.4180 -0.0147  0.6516
  177DOPC   C2221621   5.613   5.789  11.190  0.0160  0.9110  0.1560
  177DOPC   H2R21622   5.684   5.854  11.245  0.3434  1.2434 -0.6554
  177DOPC   H2S21623   5.631   5.685  11.223 -1.2879  1.3187  2.3561
  177DOPC    C321624   5.529   5.846  10.764  0.0669 -0.0067  0.6091
  177DOPC    HX21625   5.555   5.864  10.657  0.6004  0.5041  0.8162
  177DOPC    HY21626   5.572   5.932  10.821  0.7327 -0.0419  0.1708
  177DOPC   O3121627   5.387   5.841  10.777  0.2100  0.3003 -0.0548
  177DOPC   C3121628   5.322   5.954  10.790 -0.4613  0.2319  0.2602
  177DOPC   O3221629   5.365   6.068  10.783  0.0955  0.9421  0.2099
  177DOPC   C3221630   5.181   5.918  10.830  0.2046 -0.2325  0.1036
  177DOPC   H2X21631   5.128   5.856  10.754 -0.1252 -1.5530  1.3498
  177DOPC   H2Y21632   5.193   5.851  10.918 -1.8502 -1.6067 -0.5846
  177DOPC   C2321633   5.470   5.851  11.205  0.1256 -0.6879  0.0754
  177DOPC   H3R21634   5.452   5.830  11.313  1.1256 -1.9404  0.0266
  177DOPC   H3S21635   5.394   5.788  11.154 -1.7159  1.7236 -0.3509
  177DOPC   C2421636   5.471   5.999  11.182  1.1025  0.8112  0.0069
  177DOPC   H4R21637   5.484   6.030  11.077  2.2330  1.1819  0.2489
  177DOPC   H4S21638   5.551   6.052  11.237 -0.3492 -0.0753  3.2350
  177DOPC   C2521639   5.338   6.064  11.234 -0.4440  0.6871 -0.1273
  177DOPC   H5R21640   5.310   6.004  11.323 -0.3013  0.1770 -0.4179
  177DOPC   H5S21641   5.261   6.044  11.156 -1.4589  2.0611  0.4925
  177DOPC   C2621642   5.353   6.216  11.240  0.1841 -0.4216 -0.6504
  177DOPC   H6R21643   5.381   6.244  11.136 -1.1222 -1.8584 -1.4313
  177DOPC   H6S21644   5.436   6.238  11.311 -0.1807  2.9335 -1.1032
  177DOPC   C2721645   5.226   6.294  11.264 -0.3325 -0.3468 -0.2442
  177DOPC   H7R21646   5.200   6.269  11.369  1.1723 -0.8988  0.0105
  177DOPC   H7S21647   5.143   6.254  11.202 -2.0863  0.9236  1.1739
  177DOPC   C2821648   5.236   6.448  11.246 -0.0087  0.1292 -0.6655
  177DOPC   H8R21649   5.296   6.473  11.156  0.2725 -2.2864 -1.2089
  177DOPC   H8S21650   5.294   6.492  11.330 -2.3063  0.8286  0.6596
  177DOPC   C2921651   5.096   6.512  11.242 -0.9962 -0.1034  0.6060
  177DOPC   H9R21652   5.029   6.485  11.158 -1.4204  0.7343  0.6627
  177DOPC  C21021653   5.023   6.560  11.341  0.0873  0.0166 -0.3244
  177DOPC  H10R21654   4.923   6.600  11.322 -1.0098 -3.0407 -1.5608
  177DOPC  C21121655   5.061   6.563  11.488 -0.4017 -0.9725  0.8548
  177DOPC  H11R21656   5.165   6.528  11.506 -0.7260 -3.0042 -0.7524
  177DOPC  H11S21657   5.000   6.491  11.546  0.8175 -0.9029  2.2597
  177DOPC  C21221658   5.056   6.695  11.564 -0.2019 -0.8899  0.1660
  177DOPC  H12R21659   4.999   6.774  11.510 -0.6660  0.0111  1.8859
  177DOPC  H12S21660   5.158   6.733  11.585  0.2379 -2.2043  0.4954
  177DOPC  C21321661   4.992   6.676  11.696 -0.2811 -0.0788 -0.3714
  177DOPC  H13R21662   5.059   6.614  11.760  0.7928  0.1857 -1.1978
  177DOPC  H13S21663   4.907   6.605  11.692  1.1225 -2.0176  1.3688
  177DOPC  C21421664   4.958   6.817  11.756 -0.6033  0.4784 -0.1963
  177DOPC  H14R21665   4.884   6.800  11.837  1.3220 -1.7190  1.2178
  177DOPC  H14S21666   4.922   6.879  11.670  1.7963  1.2298 -0.7318
  177DOPC  C21521667   5.084   6.889  11.803  0.1715 -0.3506  0.1358
  177DOPC  H15R21668   5.066   6.997  11.820  1.1074 -0.2483  0.4841
  177DOPC  H15S21669   5.163   6.877  11.726  1.0618 -0.2393  1.0207
  177DOPC  C21621670   5.149   6.821  11.925  0.4443 -0.2511 -0.4555
  177DOPC  H16R21671   5.242   6.876  11.950 -0.9762  0.4404  4.3305
  177DOPC  H16S21672   5.188   6.718  11.911  1.7995  0.2420 -0.4536
  177DOPC  C21721673   5.042   6.806  12.045 -0.6046 -0.5953  0.7181
  177DOPC  H17R21674   4.982   6.714  12.027  2.9518 -2.7043 -1.3777
  177DOPC  H17S21675   4.979   6.897  12.039  1.5181  0.8510 -1.5002
  177DOPC  C21821676   5.090   6.800  12.191 -0.0980  0.4145 -0.9399
  177DOPC  H18R21677   5.192   6.843  12.205 -0.3461  0.7199  0.0220
  177DOPC  H18S21678   5.095   6.694  12.222 -1.4209  0.4116 -0.6823
  177DOPC  H18T21679   5.029   6.860  12.261 -0.6962  1.2733 -2.1577
  177DOPC   C3321680   5.106   6.040  10.884 -0.1979  0.3546 -0.4143
  177DOPC   H3X21681   5.092   6.106  10.796 -1.2536  0.1441 -0.4235
  177DOPC   H3Y21682   5.151   6.101  10.965 -1.3679  1.2409 -0.3967
  177DOPC   C3421683   4.977   5.999  10.957  0.7335 -0.0973 -0.1369
  177DOPC   H4X21684   5.000   5.947  11.052 -3.4869 -2.3826 -0.1493
  177DOPC   H4Y21685   4.910   5.931  10.902  0.2937 -0.1017  0.4007
  177DOPC   C3521686   4.892   6.125  10.993 -0.5501  0.6286 -0.1008
  177DOPC   H5X21687   4.839   6.162  10.903  0.1643  0.5999 -0.5388
  177DOPC   H5Y21688   4.950   6.211  11.031 -0.3692  1.6053 -2.4485
  177DOPC   C3621689   4.788   6.094  11.110  0.2930 -0.1603  0.4230
  177DOPC   H6X21690   4.702   6.164  11.099  1.3422  0.8631 -1.7754
  177DOPC   H6Y21691   4.748   5.990  11.107 -1.3974  0.4775 -1.4806
  177DOPC   C3721692   4.858   6.113  11.244  0.9291  0.1533  0.0373
  177DOPC   H7X21693   4.952   6.055  11.249  1.5485  1.0712 -0.6130
  177DOPC   H7Y21694   4.894   6.215  11.269  3.7021 -1.1773  1.9838
  177DOPC   C3821695   4.773   6.066  11.356  0.2726  0.4212 -0.0083
  177DOPC   H8X21696   4.824   6.061  11.454  0.1139 -1.2850  0.0169
  177DOPC   H8Y21697   4.735   5.964  11.338 -0.5682  0.1657  2.7795
  177DOPC   C3921698   4.634   6.129  11.358 -0.0917  0.3149  0.3513
  177DOPC   H9X21699   4.575   6.113  11.266  0.9931 -0.2222 -0.2743
  177DOPC  C31021700   4.564   6.199  11.454  0.3840  0.2025 -0.0377
  177DOPC  H10X21701   4.461   6.219  11.419  1.1102  1.1489 -1.7345
  177DOPC  C31121702   4.615   6.230  11.593  0.2656  0.0995  0.0860
  177DOPC  H11X21703   4.724   6.250  11.596  0.2101  0.2738  1.1358
  177DOPC  H11Y21704   4.596   6.143  11.660  0.7302  1.6783  2.3592
  177DOPC  C31221705   4.544   6.351  11.655 -0.2786  0.0158  0.4080
  177DOPC  H12X21706   4.435   6.337  11.670 -0.4321  0.3546 -0.3427
  177DOPC  H12Y21707   4.554   6.440  11.589  0.2765 -0.2567  0.1115
  177DOPC  C31321708   4.602   6.389  11.795  0.1156  0.0919  0.8136
  177DOPC  H13X21709   4.568   6.307  11.862 -3.3994 -0.2406 -1.1221
  177DOPC  H13Y21710   4.711   6.405  11.799  0.1241 -0.1387  2.2984
  177DOPC  C31421711   4.533   6.519  11.840 -0.1143 -0.5756 -0.1535
  177DOPC  H14X21712   4.570   6.589  11.762  1.1092 -0.0579  0.8557
  177DOPC  H14Y21713   4.422   6.514  11.844 -0.0748 -1.3222  0.0551
  177DOPC  C31521714   4.571   6.563  11.980  0.0182  0.0840  0.4215
  177DOPC  H15X21715   4.681   6.566  11.989 -0.0083  2.8940  0.5574
  177DOPC  H15Y21716   4.512   6.499  12.049  1.0413 -1.2323  0.1000
  177DOPC  C31621717   4.533   6.709  12.009  0.3158 -0.0976 -0.6345
  177DOPC  H16X21718   4.569   6.735  12.110  1.6780  0.0124 -1.1319
  177DOPC  H16Y21719   4.592   6.784  11.952  2.6661 -1.5822 -0.2527
  177DOPC  C31721720   4.383   6.739  11.984 -0.0466  0.4977  0.0139
  177DOPC  H17X21721   4.367   6.749  11.874  2.7887 -0.3902 -0.5666
  177DOPC  H17Y21722   4.327   6.660  12.039  1.3564 -0.4800  0.0847
  177DOPC  C31821723   4.351   6.870  12.058 -0.0824 -0.0163  0.2932
  177DOPC  H18X21724   4.414   6.957  12.028 -0.7664  0.1553 -0.7126
  177DOPC  H18Y21725   4.250   6.898  12.021 -0.8405 -2.9993 -0.1550
  177DOPC  H18Z21726   4.350   6.853  12.168  2.3740  3.5010  1.0475
  178DOPC     N21727   2.387   7.226  10.819  0.5102  0.3013  0.1376
  178DOPC   C1221728   2.307   7.357  10.810 -0.3921 -0.3325 -0.0982
  178DOPC  H12A21729   2.333   7.430  10.885  1.1869  1.4075 -2.1999
  178DOPC  H12B21730   2.208   7.330  10.844 -0.4257 -1.1434 -0.7937
  178DOPC   C1321731   2.508   7.233  10.735  0.5617  0.3194  0.1006
  178DOPC  H13A21732   2.556   7.136  10.729 -0.5025 -0.5573  3.4838
  178DOPC  H13B21733   2.485   7.261  10.633 -2.4035  0.1110  0.6230
  178DOPC  H13C21734   2.584   7.304  10.766 -0.2889  0.4865  1.9320
  178DOPC   C1421735   2.298   7.113  10.779 -0.3770 -0.5656 -0.0492
  178DOPC  H14A21736   2.357   7.024  10.787 -0.2109 -0.3777  1.0088
  178DOPC  H14B21737   2.217   7.101  10.849  0.4270 -1.9559  0.6742
  178DOPC  H14C21738   2.259   7.132  10.680 -0.8471 -1.4508 -0.0379
  178DOPC   C1521739   2.427   7.195  10.968  0.0453  0.0073  0.8099
  178DOPC  H15A21740   2.480   7.280  11.008  0.1491 -0.3405  1.4309
  178DOPC  H15B21741   2.492   7.109  10.977 -0.2271 -0.2678  0.1922
  178DOPC  H15C21742   2.335   7.185  11.023 -1.9102  0.1369 -2.2024
  178DOPC   C1121743   2.284   7.416  10.667 -0.8554 -0.8412 -0.4797
  178DOPC  H11A21744   2.213   7.497  10.694  0.1211 -0.7372  2.0586
  178DOPC  H11B21745   2.375   7.471  10.634 -1.8310  0.8025 -0.5176
  178DOPC     P21746   2.070   7.299  10.561  0.6932  0.1018 -0.3295
  178DOPC   O1321747   2.023   7.157  10.572  0.4068  0.3110 -0.0983
  178DOPC   O1421748   2.026   7.388  10.455 -0.2884  0.0029  0.0921
  178DOPC   O1221749   2.231   7.315  10.576  0.2864 -0.1938  0.1281
  178DOPC   O1121750   2.028   7.368  10.696  0.5957  0.3771 -0.0236
  178DOPC    C121751   1.885   7.378  10.734  0.1143 -0.3806 -0.4432
  178DOPC    HA21752   1.822   7.305  10.680 -0.2848 -0.6336  0.3620
  178DOPC    HB21753   1.844   7.480  10.720  0.2016 -0.3445 -0.4389
  178DOPC    C221754   1.872   7.332  10.884  0.4398  0.1542 -0.5382
  178DOPC    HS21755   1.765   7.346  10.910  0.0883  1.7966 -2.5913
  178DOPC   O2121756   1.955   7.413  10.971  0.2622  0.0795  0.1735
  178DOPC   C2121757   1.915   7.535  10.998 -0.7436  0.8701 -0.1696
  178DOPC   O2221758   1.818   7.591  10.953  0.2077  0.1670 -0.2877
  178DOPC   C2221759   2.029   7.601  11.081 -0.0190 -0.1677 -0.2495
  178DOPC   H2R21760   2.095   7.645  11.005  0.1729 -0.0840 -0.0355
  178DOPC   H2S21761   2.088   7.525  11.138  1.1844  0.9702  0.0653
  178DOPC    C321762   1.916   7.180  10.899 -0.2709 -0.2231  0.3171
  178DOPC    HX21763   2.017   7.176  10.853  0.0855  0.2719  1.0174
  178DOPC    HY21764   1.848   7.112  10.844 -0.8965  0.0628  0.7213
  178DOPC   O3121765   1.925   7.137  11.040  0.1373 -0.4918  0.1382
  178DOPC   C3121766   2.033   7.157  11.106  0.1147  0.0808  0.3905
  178DOPC   O3221767   2.130   7.212  11.064 -0.9025  0.1739 -0.1895
  178DOPC   C3221768   2.020   7.110  11.258 -0.7862 -0.0164 -0.2493
  178DOPC   H2X21769   1.924   7.154  11.294 -0.0185  1.4902  0.0142
  178DOPC   H2Y21770   2.020   6.999  11.253 -0.2709  0.0374 -2.2196
  178DOPC   C2321771   1.985   7.714  11.176  0.1598 -0.2071 -0.3308
  178DOPC   H3R21772   1.925   7.666  11.256  0.7123 -1.3138 -0.5563
  178DOPC   H3S21773   1.921   7.792  11.129 -0.8796 -0.9566 -0.1923
  178DOPC   C2421774   2.112   7.784  11.231 -0.2931  0.2619  0.7828
  178DOPC   H4R21775   2.165   7.837  11.150  0.6941 -3.4852 -1.2405
  178DOPC   H4S21776   2.185   7.706  11.261 -0.7558 -0.9735 -1.1401
  178DOPC   C2521777   2.093   7.888  11.346 -0.0127 -0.0312  0.1718
  178DOPC   H5R21778   2.021   7.845  11.419  1.2869 -0.7669  1.0771
  178DOPC   H5S21779   2.048   7.982  11.309 -3.0341 -0.9293  1.2695
  178DOPC   C2621780   2.224   7.920  11.421 -0.1371 -0.5388  0.0264
  178DOPC   H6R21781   2.265   7.830  11.471  1.2863  0.2887  0.4076
  178DOPC   H6S21782   2.196   7.986  11.507 -1.2405 -0.1594 -0.6083
  178DOPC   C2721783   2.335   7.972  11.339  0.5657  0.5138 -0.1629
  178DOPC   H7R21784   2.308   8.069  11.293  2.6554  1.5109  0.5955
  178DOPC   H7S21785   2.359   7.895  11.263 -1.9606 -0.7340  0.2188
  178DOPC   C2821786   2.473   7.988  11.408 -0.7082  0.1598 -0.3763
  178DOPC   H8R21787   2.555   8.013  11.338  1.9378  1.1829  2.8304
  178DOPC   H8S21788   2.509   7.899  11.462 -0.4372 -0.7613 -2.0062
  178DOPC   C2921789   2.472   8.111  11.509 -0.2168 -0.1375 -0.1295
  178DOPC   H9R21790   2.468   8.212  11.466 -2.1224  0.0119  0.2950
  178DOPC  C21021791   2.460   8.094  11.645 -0.2698 -0.7524  0.0287
  178DOPC  H10R21792   2.453   8.183  11.709 -0.6556 -0.5783 -0.2431
  178DOPC  C21121793   2.452   7.957  11.718  0.0855  0.2845  0.0267
  178DOPC  H11R21794   2.492   7.874  11.656  0.4223  1.1448 -0.9381
  178DOPC  H11S21795   2.343   7.940  11.727  0.1135 -0.5874 -1.0813
  178DOPC  C21221796   2.510   7.961  11.860  0.3762 -0.0673 -0.1001
  178DOPC  H12R21797   2.598   8.030  11.865  0.8589 -0.4816 -2.1552
  178DOPC  H12S21798   2.532   7.854  11.883 -1.8416 -0.2197  1.6435
  178DOPC  C21321799   2.415   7.982  11.975 -0.4640 -0.1133  0.6794
  178DOPC  H13R21800   2.324   7.920  11.960 -0.4210 -0.2680  1.0371
  178DOPC  H13S21801   2.397   8.092  11.986 -0.2152  0.3419 -2.6172
  178DOPC  C21421802   2.465   7.929  12.113 -0.3519  0.0103 -1.2519
  178DOPC  H14R21803   2.573   7.957  12.121 -0.4343 -0.1102  0.5656
  178DOPC  H14S21804   2.466   7.818  12.109  0.4660  0.0375 -2.2240
  178DOPC  C21521805   2.393   7.976  12.241 -0.0874  0.0313 -0.6200
  178DOPC  H15R21806   2.283   7.975  12.225 -0.3742 -0.6547  1.2120
  178DOPC  H15S21807   2.423   8.080  12.265 -2.8182  0.7706 -0.0444
  178DOPC  C21621808   2.415   7.880  12.359 -0.2652 -0.0339 -0.4340
  178DOPC  H16R21809   2.525   7.884  12.378 -0.6240  1.5480  1.7239
  178DOPC  H16S21810   2.381   7.775  12.343 -0.1727  0.1045 -1.6600
  178DOPC  C21721811   2.348   7.935  12.491 -0.4287 -0.1428 -0.3161
  178DOPC  H17R21812   2.245   7.970  12.470 -0.4262  0.6669  0.8938
  178DOPC  H17S21813   2.399   8.030  12.518 -3.2545  2.2897 -2.8193
  178DOPC  C21821814   2.362   7.838  12.610 -0.6429  0.9117  0.7690
  178DOPC  H18R21815   2.466   7.799  12.614 -1.0031 -0.1469  0.2809
  178DOPC  H18S21816   2.303   7.747  12.585 -0.7898  1.7326 -2.1674
  178DOPC  H18T21817   2.353   7.879  12.713  2.1776  2.3223  0.5429
  178DOPC   C3321818   2.136   7.158  11.356  0.8732  0.7532 -0.3575
  178DOPC   H3X21819   2.137   7.268  11.369  1.8950  0.5437  1.7185
  178DOPC   H3Y21820   2.229   7.122  11.309  1.1890 -0.9865  1.4907
  178DOPC   C3421821   2.136   7.094  11.496 -0.0537  0.1670  0.0442
  178DOPC   H4X21822   2.151   6.986  11.479  1.5430  0.4628 -0.5909
  178DOPC   H4Y21823   2.038   7.100  11.547  0.2681 -3.0513  1.2690
  178DOPC   C3521824   2.250   7.148  11.592 -0.1723 -0.0860 -0.9093
  178DOPC   H5X21825   2.234   7.257  11.603  1.3626 -0.0621  1.7367
  178DOPC   H5Y21826   2.352   7.130  11.552  0.4175  0.7060  0.1824
  178DOPC   C3621827   2.231   7.090  11.738  0.1322 -0.6672  0.2466
  178DOPC   H6X21828   2.215   6.985  11.706 -2.0052 -0.7868  1.5275
  178DOPC   H6Y21829   2.323   7.090  11.800  1.2214 -2.0202 -1.2751
  178DOPC   C3721830   2.119   7.150  11.830 -0.4079  0.0473 -0.4008
  178DOPC   H7X21831   2.168   7.241  11.870 -1.3123  1.5496 -2.4975
  178DOPC   H7Y21832   2.033   7.175  11.764  0.6806  1.0139 -1.5056
  178DOPC   C3821833   2.075   7.049  11.938  0.1377 -0.1875  0.0343
  178DOPC   H8X21834   2.066   6.952  11.884  0.5735  1.4058 -3.1194
  178DOPC   H8Y21835   1.986   7.089  11.990 -0.6097 -2.4733  0.6286
  178DOPC   C3921836   2.187   7.036  12.040  0.2027 -0.6577  0.4299
  178DOPC   H9X21837   2.226   7.135  12.070  0.2799 -0.2197 -1.0187
  178DOPC  C31021838   2.228   6.923  12.100  0.2059 -0.2137  0.4782
  178DOPC  H10X21839   2.317   6.934  12.164  0.3124  3.6652 -0.1051
  178DOPC  C31121840   2.178   6.785  12.074  0.0764  0.0340  0.2186
  178DOPC  H11X21841   2.257   6.714  12.040 -1.6152 -1.7890 -0.0636
  178DOPC  H11Y21842   2.094   6.791  12.002  0.3126  0.0605 -0.0581
  178DOPC  C31221843   2.118   6.733  12.203  0.1026  0.1175  0.4126
  178DOPC  H12X21844   2.028   6.794  12.231  0.8700  1.3238  0.3210
  178DOPC  H12Y21845   2.203   6.735  12.274 -0.2431 -1.9718  0.9572
  178DOPC  C31321846   2.063   6.588  12.190 -0.4837  0.2341  0.7124
  178DOPC  H13X21847   1.983   6.588  12.113  0.2881 -0.2400 -0.1236
  178DOPC  H13Y21848   2.146   6.529  12.146  1.2528  2.7028  0.4464
  178DOPC  C31421849   2.024   6.515  12.317  0.2659  0.0571  0.1970
  178DOPC  H14X21850   1.988   6.411  12.301  4.4699 -2.1528  3.1642
  178DOPC  H14Y21851   2.111   6.507  12.386  0.1607 -0.3887  0.2760
  178DOPC  C31521852   1.912   6.589  12.401  0.1929 -0.4302  0.3142
  178DOPC  H15X21853   1.955   6.684  12.437 -1.0087 -0.6016  2.3974
  178DOPC  H15Y21854   1.892   6.519  12.486 -0.0085  0.1997  0.7929
  178DOPC  C31621855   1.777   6.615  12.320 -0.3050  0.4179 -0.8552
  178DOPC  H16X21856   1.805   6.683  12.237  0.8866 -1.5208 -2.1526
  178DOPC  H16Y21857   1.729   6.524  12.277 -0.7949  1.2406 -2.0800
  178DOPC  C31721858   1.671   6.678  12.409 -0.4428 -0.5063 -0.2451
  178DOPC  H17X21859   1.590   6.709  12.340  0.7171  0.7639 -1.1024
  178DOPC  H17Y21860   1.640   6.597  12.479  0.1406 -0.9271 -0.4686
  178DOPC  C31821861   1.713   6.815  12.477  0.0249 -0.0513  0.6862
  178DOPC  H18X21862   1.761   6.893  12.414 -1.1272 -0.8768 -1.3115
  178DOPC  H18Y21863   1.633   6.870  12.532 -0.8538 -0.9588  0.3467
  178DOPC  H18Z21864   1.795   6.790  12.548  1.6799  0.6614 -0.8973
  179DOPC     N21865   6.305   5.460  10.707 -0.4530 -0.4803 -0.1197
  179DOPC   C1221866   6.436   5.403  10.761  0.0954  0.5079  0.7133
  179DOPC  H12A21867   6.421   5.388  10.867 -0.6698  2.1024  0.8520
  179DOPC  H12B21868   6.516   5.474  10.747  0.6301 -0.4944 -1.9138
  179DOPC   C1321869   6.194   5.380  10.771 -0.3400 -0.1445 -0.0883
  179DOPC  H13A21870   6.095   5.411  10.740 -1.3202 -1.5525  1.4774
  179DOPC  H13B21871   6.212   5.276  10.750 -2.2755 -0.8829  1.6190
  179DOPC  H13C21872   6.196   5.394  10.878  2.8047  0.9284 -0.1761
  179DOPC   C1421873   6.300   5.450  10.560  0.1669 -0.0980  0.1313
  179DOPC  H14A21874   6.284   5.349  10.525 -3.4443 -0.6081  2.6259
  179DOPC  H14B21875   6.225   5.520  10.527  0.1260 -1.1348 -2.1315
  179DOPC  H14C21876   6.382   5.509  10.523 -1.3172  1.4089 -0.8827
  179DOPC   C1521877   6.293   5.601  10.746 -0.7199  0.5577 -0.2942
  179DOPC  H15A21878   6.299   5.602  10.854  1.8733  0.0398 -0.3620
  179DOPC  H15B21879   6.197   5.643  10.719 -1.0506  0.7673  1.1049
  179DOPC  H15C21880   6.363   5.673  10.708 -0.5403  0.9734  0.7861
  179DOPC   C1121881   6.507   5.277  10.702  0.4953  0.3934  0.4831
  179DOPC  H11A21882   6.518   5.290  10.593  0.8542  0.8752  0.5720
  179DOPC  H11B21883   6.611   5.278  10.741  0.4995  0.8207  0.4597
  179DOPC     P21884   6.438   5.082  10.854 -0.1626 -0.0509 -0.1712
  179DOPC   O1321885   6.574   5.023  10.859  0.1301  0.0041  0.8736
  179DOPC   O1421886   6.329   4.977  10.859  0.9739  0.0346  0.7445
  179DOPC   O1221887   6.428   5.164  10.725  0.0819  0.6164  0.0216
  179DOPC   O1121888   6.412   5.189  10.973  0.4203  0.5667 -0.1389
  179DOPC    C121889   6.369   5.131  11.103 -0.8907  0.2896 -0.1379
  179DOPC    HA21890   6.298   5.045  11.093  0.0452 -0.4686 -0.3513
  179DOPC    HB21891   6.320   5.216  11.154  0.5315  2.8665 -2.7743
  179DOPC    C221892   6.488   5.065  11.174 -0.2583 -0.1499  0.0998
  179DOPC    HS21893   6.527   4.972  11.128  0.8029  0.8459 -1.0746
  179DOPC   O2121894   6.453   5.036  11.309 -0.4561 -0.4988  0.1996
  179DOPC   C2121895   6.395   4.920  11.322 -0.2715  0.6230 -0.7935
  179DOPC   O2221896   6.369   4.850  11.227  0.0940  0.5553  0.3720
  179DOPC   C2221897   6.380   4.894  11.473 -0.3918 -0.0968  0.1384
  179DOPC   H2R21898   6.360   4.786  11.484  1.1728 -1.0107 -4.0140
  179DOPC   H2S21899   6.294   4.956  11.506 -0.7210  0.4291 -1.5834
  179DOPC    C321900   6.602   5.168  11.168  0.0329 -0.9207 -0.4507
  179DOPC    HX21901   6.563   5.270  11.192 -1.4835 -1.8717  1.4645
  179DOPC    HY21902   6.649   5.162  11.068 -1.7380  0.6353 -1.4595
  179DOPC   O3121903   6.703   5.137  11.272  0.2053 -0.2660  0.6348
  179DOPC   C3121904   6.791   5.238  11.301 -0.1142 -0.0778  0.4973
  179DOPC   O3221905   6.792   5.344  11.243  0.3665 -0.2948  0.5421
  179DOPC   C3221906   6.878   5.181  11.413 -0.5835 -0.3854  0.4791
  179DOPC   H2X21907   6.823   5.106  11.474 -1.6395 -0.7051 -0.8114
  179DOPC   H2Y21908   6.968   5.141  11.361 -0.6625  0.0911 -0.0294
  179DOPC   C2321909   6.504   4.939  11.562 -0.0069  0.2441  0.6820
  179DOPC   H3R21910   6.547   5.037  11.532  0.0905 -0.3112 -1.0591
  179DOPC   H3S21911   6.586   4.867  11.539 -1.2826 -0.4903 -1.9064
  179DOPC   C2421912   6.470   4.939  11.714 -0.2074 -0.9733 -0.4585
  179DOPC   H4R21913   6.434   4.836  11.735 -1.4581 -0.6932 -1.1423
  179DOPC   H4S21914   6.398   5.020  11.740  1.9556  0.8770 -0.0066
  179DOPC   C2521915   6.582   4.961  11.815 -0.0507 -0.3035 -0.8655
  179DOPC   H5R21916   6.672   4.904  11.786  0.3106 -0.0155 -0.3297
  179DOPC   H5S21917   6.558   4.913  11.913 -0.0925 -0.1796 -0.8144
  179DOPC   C2621918   6.629   5.109  11.833 -0.3874  0.4145 -0.2578
  179DOPC   H6R21919   6.547   5.158  11.890  1.2677  1.1508  1.6466
  179DOPC   H6S21920   6.649   5.151  11.733 -1.2122  1.9191  0.1802
  179DOPC   C2721921   6.760   5.128  11.917 -0.0055 -0.4803 -0.0207
  179DOPC   H7R21922   6.847   5.079  11.869 -0.8064 -2.1609  0.1898
  179DOPC   H7S21923   6.755   5.074  12.014  0.1283  0.7613  0.7081
  179DOPC   C2821924   6.801   5.275  11.937 -0.6314  0.1602  0.1240
  179DOPC   H8R21925   6.829   5.333  11.846  0.4789 -1.3825 -0.5547
  179DOPC   H8S21926   6.893   5.261  11.998 -0.2822  1.0257 -0.1726
  179DOPC   C2921927   6.698   5.355  12.010 -0.5716 -0.0454 -0.4145
  179DOPC   H9R21928   6.599   5.367  11.964 -0.1862  1.3256 -0.9247
  179DOPC  C21021929   6.704   5.394  12.143  0.5403  0.1094  0.2915
  179DOPC  H10R21930   6.622   5.457  12.180  1.4339  2.1176 -1.0099
  179DOPC  C21121931   6.804   5.367  12.253  0.0218 -0.2246  0.2181
  179DOPC  H11R21932   6.870   5.283  12.226  0.9752  0.7285 -0.5173
  179DOPC  H11S21933   6.749   5.339  12.345 -0.5405 -0.1163 -0.0802
  179DOPC  C21221934   6.911   5.479  12.286  0.0963  0.2902  0.3286
  179DOPC  H12R21935   6.966   5.440  12.375  0.0689 -0.2310  0.1260
  179DOPC  H12S21936   6.850   5.566  12.317 -1.6212  1.0378 -4.2876
  179DOPC  C21321937   7.013   5.514  12.179 -0.4469 -0.2073  0.1050
  179DOPC  H13R21938   6.959   5.557  12.092 -0.5766 -0.4073  0.0858
  179DOPC  H13S21939   7.073   5.425  12.154 -0.1552 -0.2741  1.0134
  179DOPC  C21421940   7.121   5.620  12.226  0.5418  0.1538 -0.0365
  179DOPC  H14R21941   7.186   5.570  12.300  0.3506  2.4113  1.7623
  179DOPC  H14S21942   7.064   5.695  12.286  0.9072  1.9869 -1.8547
  179DOPC  C21521943   7.190   5.693  12.116 -0.2606  0.0558 -0.7511
  179DOPC  H15R21944   7.248   5.622  12.054 -1.3034 -0.9979 -0.5426
  179DOPC  H15S21945   7.264   5.758  12.169 -0.8158  0.2186 -0.1651
  179DOPC  C21621946   7.104   5.782  12.030 -0.3246  0.1349  0.3198
  179DOPC  H16R21947   7.057   5.856  12.098  0.2955  0.5695  0.2811
  179DOPC  H16S21948   7.029   5.722  11.975 -2.0649  3.2431 -0.9446
  179DOPC  C21721949   7.193   5.865  11.937 -0.4638 -0.1183 -0.2334
  179DOPC  H17R21950   7.259   5.791  11.885 -1.1443 -0.2943 -0.8749
  179DOPC  H17S21951   7.267   5.930  11.988  0.6193  0.3562 -2.2789
  179DOPC  C21821952   7.101   5.942  11.845 -0.8682  0.4499  0.3970
  179DOPC  H18R21953   7.048   6.026  11.896 -1.5195  0.3076 -0.0304
  179DOPC  H18S21954   7.020   5.877  11.804 -0.9061  0.3162  0.6865
  179DOPC  H18T21955   7.158   5.994  11.765 -2.5201 -0.0251 -1.1687
  179DOPC   C3321956   6.934   5.295  11.494 -0.6495 -0.4340 -0.5263
  179DOPC   H3X21957   6.855   5.359  11.538 -1.1450  0.9625 -3.2523
  179DOPC   H3Y21958   6.996   5.359  11.428 -3.2637 -0.6106 -3.3650
  179DOPC   C3421959   7.034   5.240  11.595 -0.6506  0.2723 -0.1124
  179DOPC   H4X21960   7.099   5.170  11.539 -1.0005  0.0071 -0.1879
  179DOPC   H4Y21961   6.978   5.183  11.672 -0.7962  1.4398  0.6742
  179DOPC   C3521962   7.119   5.341  11.669 -0.9782  0.1016 -0.2964
  179DOPC   H5X21963   7.062   5.404  11.741 -0.0389  0.9066 -0.2325
  179DOPC   H5Y21964   7.147   5.415  11.590 -0.9029  1.1702  0.6991
  179DOPC   C3621965   7.226   5.274  11.761  0.7144 -0.4453 -0.8079
  179DOPC   H6X21966   7.198   5.167  11.761  0.5560 -0.4699  1.6962
  179DOPC   H6Y21967   7.331   5.291  11.729  1.6046 -1.6991  1.2336
  179DOPC   C3721968   7.214   5.318  11.912 -0.1881 -0.8394 -0.8888
  179DOPC   H7X21969   7.235   5.426  11.901  0.4902 -0.9025 -0.2985
  179DOPC   H7Y21970   7.113   5.317  11.958  0.2561 -0.8463  0.1087
  179DOPC   C3821971   7.335   5.256  11.998  0.4389  0.0324  0.8298
  179DOPC   H8X21972   7.367   5.329  12.075  0.6335 -1.1468  1.9017
  179DOPC   H8Y21973   7.422   5.247  11.929  1.4636  0.8770  1.9814
  179DOPC   C3921974   7.299   5.115  12.047 -0.6101 -0.3219  0.8204
  179DOPC   H9X21975   7.310   5.042  11.966 -2.1997 -0.6009  0.8213
  179DOPC  C31021976   7.243   5.072  12.163  0.8162 -0.9000 -0.4219
  179DOPC  H10X21977   7.217   4.965  12.169 -2.0835 -0.2441  0.0909
  179DOPC  C31121978   7.195   5.155  12.280 -0.0542  0.7197 -0.2661
  179DOPC  H11X21979   7.147   5.248  12.244 -1.4132  0.0527 -0.2623
  179DOPC  H11Y21980   7.278   5.182  12.348 -1.2450  1.0378  1.1067
  179DOPC  C31221981   7.085   5.076  12.352 -0.5440  0.2031 -0.3320
  179DOPC  H12X21982   7.130   4.977  12.375  1.0716  1.0736  0.4060
  179DOPC  H12Y21983   6.998   5.077  12.282  0.7859 -0.1638 -2.0701
  179DOPC  C31321984   7.037   5.131  12.489  0.3625  0.3079 -0.0510
  179DOPC  H13X21985   7.118   5.132  12.565  0.6578 -2.2007 -0.2607
  179DOPC  H13Y21986   7.005   5.237  12.475  0.5680  0.4315  0.3822
  179DOPC  C31421987   6.920   5.050  12.551  0.2641 -0.2129 -0.1815
  179DOPC  H14X21988   6.844   5.035  12.471 -0.8864 -1.4888  1.1168
  179DOPC  H14Y21989   6.967   4.950  12.561  0.0816 -0.3221 -0.3974
  179DOPC  C31521990   6.870   5.109  12.677 -0.5530 -0.0933 -0.5418
  179DOPC  H15X21991   6.771   5.064  12.702 -0.0292 -1.5038 -0.8906
  179DOPC  H15Y21992   6.850   5.217  12.661 -1.5001 -0.1091  0.4933
  179DOPC  C31621993   6.959   5.089  12.804  0.3192  0.0489 -0.6007
  179DOPC  H16X21994   6.931   5.002  12.869 -0.3715  0.4935 -0.2825
  179DOPC  H16Y21995   7.061   5.072  12.765  0.6407  1.4450 -0.4080
  179DOPC  C31721996   6.959   5.214  12.889  0.6394  0.2810  0.1446
  179DOPC  H17X21997   7.040   5.207  12.966  0.6728  1.7366  0.2858
  179DOPC  H17Y21998   6.975   5.298  12.818 -1.9049  1.0809  0.4139
  179DOPC  C31821999   6.820   5.258  12.953 -0.3912  0.0504 -0.0720
  179DOPC  H18X22000   6.744   5.262  12.872 -0.3562 -2.4154 -0.2985
  179DOPC  H18Y22001   6.793   5.196  13.040 -2.6321  1.9675  0.7083
  179DOPC  H18Z22002   6.834   5.364  12.986  3.1134  0.0802 -1.2208
  180DOPC     N22003   6.066   3.560  10.304 -0.0368 -0.6849  0.1869
  180DOPC   C1222004   6.067   3.549  10.456  0.0180  0.6784  0.0195
  180DOPC  H12A22005   5.996   3.620  10.496 -0.4491  0.1821  0.0976
  180DOPC  H12B22006   6.168   3.578  10.482  0.7924 -0.8145 -1.1493
  180DOPC   C1322007   5.931   3.535  10.251 -0.3822 -0.1452  0.1090
  180DOPC  H13A22008   5.897   3.436  10.275 -0.6624  0.1157  0.8131
  180DOPC  H13B22009   5.859   3.603  10.294  0.9505  1.9860 -0.8482
  180DOPC  H13C22010   5.915   3.557  10.146 -2.4417  0.8976  0.5893
  180DOPC   C1422011   6.151   3.457  10.235  0.3492 -0.5168 -0.2328
  180DOPC  H14A22012   6.254   3.467  10.264  0.0222 -1.3411  1.3116
  180DOPC  H14B22013   6.118   3.361  10.271 -1.8490 -0.4993 -1.9658
  180DOPC  H14C22014   6.152   3.471  10.128  0.8912 -0.1356 -0.1841
  180DOPC   C1522015   6.105   3.695  10.255  0.3431 -0.0255  0.5353
  180DOPC  H15A22016   6.106   3.697  10.147 -1.6037  0.5974  0.4843
  180DOPC  H15B22017   6.202   3.736  10.279  0.4614  0.1150 -0.1482
  180DOPC  H15C22018   6.040   3.774  10.290 -0.4847 -1.2020  1.7420
  180DOPC   C1122019   6.041   3.413  10.536  0.2422  0.9656  0.3663
  180DOPC  H11A22020   6.055   3.430  10.645 -0.6375  2.7244  0.2380
  180DOPC  H11B22021   5.935   3.385  10.514 -0.4987  1.7912  2.5825
  180DOPC     P22022   6.110   3.157  10.488 -0.3505  0.0011 -0.1388
  180DOPC   O1322023   6.210   3.082  10.406  0.0630 -0.1338  0.1465
  180DOPC   O1422024   5.963   3.134  10.463 -0.5499 -0.2321 -1.1270
  180DOPC   O1222025   6.136   3.313  10.493  0.0694  0.1771 -0.4413
  180DOPC   O1122026   6.128   3.117  10.639  0.6890 -0.5093  0.1811
  180DOPC    C122027   6.248   3.167  10.704  0.8241  0.3194 -0.0461
  180DOPC    HA22028   6.319   3.218  10.636 -1.2561 -0.0242 -2.6354
  180DOPC    HB22029   6.302   3.074  10.733 -3.1491 -1.9501  0.8969
  180DOPC    C222030   6.217   3.246  10.828 -0.2503  0.4880 -0.3527
  180DOPC    HS22031   6.178   3.345  10.797 -0.4694  0.6486  0.4251
  180DOPC   O2122032   6.345   3.259  10.892 -0.0372 -0.9018  0.0261
  180DOPC   C2122033   6.435   3.342  10.849 -0.3581 -0.8825  0.2669
  180DOPC   O2222034   6.416   3.427  10.768 -0.3518  0.1208 -0.2824
  180DOPC   C2222035   6.562   3.330  10.925 -0.6871 -0.1086  0.3194
  180DOPC   H2R22036   6.553   3.377  11.026 -0.1266 -0.0459  0.3434
  180DOPC   H2S22037   6.643   3.394  10.883  0.6514 -1.4818  0.7177
  180DOPC    C322038   6.124   3.168  10.924 -0.6424 -0.0884  0.8152
  180DOPC    HX22039   6.164   3.071  10.961 -1.3905 -1.0013 -0.6612
  180DOPC    HY22040   6.034   3.135  10.868  0.0052  0.7700 -0.7799
  180DOPC   O3122041   6.088   3.257  11.032 -0.5239  0.0818  0.4025
  180DOPC   C3122042   5.993   3.202  11.112  0.0280  0.5365  0.0344
  180DOPC   O3222043   5.943   3.091  11.096 -0.2352 -0.1461 -0.2610
  180DOPC   C3222044   5.948   3.315  11.205 -0.6416  0.4513 -0.0488
  180DOPC   H2X22045   6.017   3.402  11.204  0.5347 -0.4548 -0.4187
  180DOPC   H2Y22046   5.844   3.338  11.171 -1.8401  0.3301  3.1993
  180DOPC   C2322047   6.622   3.186  10.948  0.9419  0.0847  0.0346
  180DOPC   H3R22048   6.542   3.124  10.996  1.0503 -0.1416 -0.0777
  180DOPC   H3S22049   6.708   3.203  11.015 -0.1175 -0.4963  1.6098
  180DOPC   C2422050   6.671   3.118  10.823  0.1135 -0.0201  0.0159
  180DOPC   H4R22051   6.763   3.171  10.790  1.0638 -1.0746  0.9121
  180DOPC   H4S22052   6.595   3.130  10.743 -0.2123  0.2816  0.3672
  180DOPC   C2522053   6.696   2.963  10.835  0.5977 -0.2096 -0.2337
  180DOPC   H5R22054   6.781   2.938  10.902 -0.0691  0.8746  1.0775
  180DOPC   H5S22055   6.708   2.927  10.731 -1.3032  0.1866 -0.6315
  180DOPC   C2622056   6.579   2.883  10.890 -0.0474 -0.2234  0.2687
  180DOPC   H6R22057   6.493   2.899  10.822 -0.2973 -0.8967  0.4235
  180DOPC   H6S22058   6.568   2.912  10.996  2.3614  2.2060 -0.0301
  180DOPC   C2722059   6.607   2.730  10.868 -0.2302  0.6125  0.1238
  180DOPC   H7R22060   6.703   2.706  10.916  0.3716  0.4114 -1.1413
  180DOPC   H7S22061   6.615   2.710  10.759  2.4687  3.0108 -0.2274
  180DOPC   C2822062   6.487   2.643  10.931 -0.0116 -0.3663  0.5757
  180DOPC   H8R22063   6.398   2.686  10.881  1.2996 -1.3887 -2.9590
  180DOPC   H8S22064   6.492   2.669  11.039 -1.1324  2.3098  0.0645
  180DOPC   C2922065   6.486   2.498  10.898 -0.5258  0.0878 -0.0073
  180DOPC   H9R22066   6.467   2.479  10.791 -0.1646  0.5758 -0.1604
  180DOPC  C21022067   6.514   2.389  10.976  0.1813 -1.2778  0.4239
  180DOPC  H10R22068   6.511   2.287  10.934  0.3783 -1.7890  1.6140
  180DOPC  C21122069   6.553   2.393  11.119  0.0700  0.0971  0.7346
  180DOPC  H11R22070   6.556   2.496  11.162 -2.2972  0.7482 -0.4667
  180DOPC  H11S22071   6.650   2.344  11.142  0.7978  0.8015 -0.6764
  180DOPC  C21222072   6.445   2.324  11.195  0.1989 -0.0495  0.2317
  180DOPC  H12R22073   6.439   2.215  11.173 -3.0059 -0.1270  0.9985
  180DOPC  H12S22074   6.351   2.378  11.171  1.7407  2.6641 -0.0484
  180DOPC  C21322075   6.467   2.347  11.346 -0.7077  0.1019  0.2458
  180DOPC  H13R22076   6.484   2.451  11.380 -2.2929  0.1153  1.1070
  180DOPC  H13S22077   6.557   2.289  11.374 -1.6522 -1.2056  0.6882
  180DOPC  C21422078   6.354   2.299  11.437 -0.6186  0.1656  0.6074
  180DOPC  H14R22079   6.329   2.195  11.407  0.1218 -0.0884  0.8455
  180DOPC  H14S22080   6.272   2.372  11.419  0.0341  0.7580  0.0144
  180DOPC  C21522081   6.400   2.304  11.580 -0.1081  0.1674 -0.1519
  180DOPC  H15R22082   6.468   2.389  11.600  1.6115 -1.0408 -0.6492
  180DOPC  H15S22083   6.464   2.216  11.604  1.6390  1.6814  1.0378
  180DOPC  C21622084   6.277   2.284  11.670 -0.8760  0.4380  0.4361
  180DOPC  H16R22085   6.245   2.188  11.625  1.4745  0.5130 -1.5797
  180DOPC  H16S22086   6.208   2.368  11.651 -0.6824 -0.0726 -3.2411
  180DOPC  C21722087   6.322   2.246  11.817 -0.1329 -0.1707  0.4827
  180DOPC  H17R22088   6.400   2.168  11.803  2.0530  1.9258  0.4041
  180DOPC  H17S22089   6.231   2.196  11.858 -0.9019  0.8032  0.0162
  180DOPC  C21822090   6.377   2.357  11.902  0.2138  0.8150 -0.2012
  180DOPC  H18R22091   6.292   2.422  11.930 -1.9368 -1.9636  0.1972
  180DOPC  H18S22092   6.463   2.408  11.853  0.6114 -0.1566 -0.5453
  180DOPC  H18T22093   6.412   2.319  12.000  1.2463  2.1707 -0.0154
  180DOPC   C3322094   5.923   3.261  11.345 -0.0301 -0.4169  0.1974
  180DOPC   H3X22095   6.001   3.193  11.385  0.1272 -0.7887 -0.7267
  180DOPC   H3Y22096   5.827   3.207  11.357 -0.7463  0.6094 -0.7350
  180DOPC   C3422097   5.925   3.373  11.449  0.2770 -0.0816  0.3502
  180DOPC   H4X22098   5.831   3.431  11.436  0.3506  0.0094  0.2238
  180DOPC   H4Y22099   6.006   3.448  11.434  0.2203  0.4652  2.5230
  180DOPC   C3522100   5.932   3.310  11.593  0.1147 -0.6448  0.0986
  180DOPC   H5X22101   6.000   3.223  11.601  1.5017  0.3866 -0.2595
  180DOPC   H5Y22102   5.834   3.265  11.621 -1.2371  1.6907 -0.5955
  180DOPC   C3622103   5.995   3.407  11.693  0.1454 -0.9906  0.0083
  180DOPC   H6X22104   6.098   3.426  11.657  0.0619 -0.9849 -0.2307
  180DOPC   H6Y22105   5.942   3.504  11.705  1.2976 -0.5181  1.6062
  180DOPC   C3722106   5.998   3.358  11.836  0.0578 -0.6061 -0.1502
  180DOPC   H7X22107   5.898   3.312  11.857 -1.3403  2.0629 -0.5136
  180DOPC   H7Y22108   6.062   3.267  11.836  0.0908 -0.6983 -3.2570
  180DOPC   C3822109   6.024   3.465  11.945  0.9942 -0.2197  0.0696
  180DOPC   H8X22110   6.020   3.418  12.046 -3.4058 -2.3438 -0.8444
  180DOPC   H8Y22111   5.929   3.523  11.944  0.9472 -0.2774  0.9821
  180DOPC   C3922112   6.146   3.546  11.930 -0.2733  0.7587  0.1305
  180DOPC   H9X22113   6.239   3.490  11.909 -1.5262 -1.2684 -0.3844
  180DOPC  C31022114   6.161   3.677  11.935 -0.3282 -0.0743 -0.7510
  180DOPC  H10X22115   6.256   3.727  11.909 -0.2380 -0.6703 -1.6261
  180DOPC  C31122116   6.038   3.770  11.936  0.2515  0.7630  0.2094
  180DOPC  H11X22117   5.956   3.724  11.878  0.6460 -1.5853  1.3940
  180DOPC  H11Y22118   6.070   3.861  11.880 -0.8931  0.5332 -0.8477
  180DOPC  C31222119   5.976   3.807  12.067  0.6517 -0.7204 -0.7065
  180DOPC  H12X22120   6.049   3.851  12.138 -0.3534 -0.2916  0.0812
  180DOPC  H12Y22121   5.928   3.718  12.114 -0.2059 -0.7282 -1.5823
  180DOPC  C31322122   5.860   3.914  12.054  0.2859  0.0476  0.8493
  180DOPC  H13X22123   5.899   4.000  11.995  0.3773 -0.3692  0.2968
  180DOPC  H13Y22124   5.772   3.888  11.991  0.7772  0.3957 -0.0047
  180DOPC  C31422125   5.813   3.957  12.194 -0.7328 -0.1692 -0.5789
  180DOPC  H14X22126   5.765   3.871  12.245 -1.6057 -0.1474 -1.3424
  180DOPC  H14Y22127   5.910   3.981  12.243 -0.4333 -0.7473 -0.8730
  180DOPC  C31522128   5.727   4.084  12.203  0.2862  0.3453  0.5773
  180DOPC  H15X22129   5.798   4.167  12.186 -0.3005  0.6785 -0.3113
  180DOPC  H15Y22130   5.681   4.094  12.304 -1.3861  2.5417 -0.3082
  180DOPC  C31622131   5.616   4.090  12.102  1.4649  0.8497  0.7509
  180DOPC  H16X22132   5.552   4.181  12.102 -0.1008 -0.2158  1.0924
  180DOPC  H16Y22133   5.658   4.083  12.000 -0.9120 -1.2946 -0.1829
  180DOPC  C31722134   5.522   3.966  12.111  0.1029 -0.4313 -0.6756
  180DOPC  H17X22135   5.576   3.875  12.078 -0.2018 -1.5520  1.7357
  180DOPC  H17Y22136   5.493   3.956  12.218 -0.1597 -0.1709 -0.7186
  180DOPC  C31822137   5.411   3.984  12.010 -0.1178 -0.2903 -0.5681
  180DOPC  H18X22138   5.380   4.086  11.981 -1.7347 -0.9322 -1.1888
  180DOPC  H18Y22139   5.451   3.950  11.912 -1.3939 -0.2825 -1.1043
  180DOPC  H18Z22140   5.318   3.926  12.029 -0.8705  1.4825  1.6813
  181DOPC     N22141   0.847   4.925  10.996  1.0028  0.1185 -0.0343
  181DOPC   C1222142   0.902   4.967  11.132  0.5328  0.5788 -0.2254
  181DOPC  H12A22143   0.933   4.876  11.181  1.3786 -1.0179 -3.4096
  181DOPC  H12B22144   0.817   5.015  11.179 -0.3438 -0.9214 -0.2047
  181DOPC   C1322145   0.750   4.811  11.005 -0.3409 -0.1854 -0.7952
  181DOPC  H13A22146   0.709   4.776  10.911 -2.5303  0.1148 -0.0058
  181DOPC  H13B22147   0.798   4.723  11.045  0.7223  0.5799 -0.3428
  181DOPC  H13C22148   0.668   4.841  11.068  0.6934  2.2892 -0.5197
  181DOPC   C1422149   0.960   4.894  10.905  0.5762 -0.2373  0.9105
  181DOPC  H14A22150   0.912   4.873  10.811 -2.2781 -2.3461  2.6551
  181DOPC  H14B22151   1.032   4.975  10.909  0.4784 -0.0898 -0.0977
  181DOPC  H14C22152   0.996   4.796  10.934  1.6087 -0.8838 -2.1858
  181DOPC   C1522153   0.772   5.041  10.941  0.2180  0.6858  0.3366
  181DOPC  H15A22154   0.738   5.022  10.840 -0.3786 -0.0923  0.6653
  181DOPC  H15B22155   0.835   5.128  10.946  2.2861 -0.7153 -0.2296
  181DOPC  H15C22156   0.684   5.061  11.002  0.7378  0.0889  1.3172
  181DOPC   C1122157   1.023   5.072  11.127 -0.6028  0.3627 -0.3685
  181DOPC  H11A22158   1.058   5.077  11.233  2.3983 -4.0343 -0.8694
  181DOPC  H11B22159   1.106   5.018  11.077 -0.5510  0.1146 -0.0210
  181DOPC     P22160   1.102   5.302  11.048  0.2088 -0.0301 -0.3955
  181DOPC   O1322161   1.030   5.425  11.001 -0.6974  0.3275  0.7521
  181DOPC   O1422162   1.208   5.248  10.955  0.1771  0.4986  0.6793
  181DOPC   O1222163   0.993   5.197  11.059  0.3398  0.6182  0.0098
  181DOPC   O1122164   1.157   5.320  11.196 -0.2377  0.0390 -0.7095
  181DOPC    C122165   1.176   5.455  11.248 -0.1005 -0.0372 -0.1150
  181DOPC    HA22166   1.225   5.452  11.347 -0.7958 -0.9484  0.2057
  181DOPC    HB22167   1.080   5.506  11.269 -0.4284 -0.0647 -1.4452
  181DOPC    C222168   1.268   5.556  11.165  0.1768 -0.0536  0.1569
  181DOPC    HS22169   1.231   5.555  11.060  0.0859 -0.1357  0.1895
  181DOPC   O2122170   1.405   5.506  11.168  0.2862 -0.0232  0.3897
  181DOPC   C2122171   1.499   5.586  11.124 -0.6170 -0.3195 -0.5458
  181DOPC   O2222172   1.494   5.703  11.081 -0.3312 -0.0322  0.8645
  181DOPC   C2222173   1.629   5.511  11.137 -0.1175  0.0075 -0.1711
  181DOPC   H2R22174   1.699   5.548  11.060  0.1448  0.1547  0.1372
  181DOPC   H2S22175   1.605   5.403  11.122  0.3657 -0.0212 -0.7658
  181DOPC    C322176   1.249   5.697  11.217 -0.0093 -0.0419 -0.0562
  181DOPC    HX22177   1.142   5.726  11.215 -0.2287 -0.3596  3.0235
  181DOPC    HY22178   1.286   5.773  11.144 -0.5270 -0.0910 -0.3702
  181DOPC   O3122179   1.300   5.710  11.347  0.1153 -0.0768 -0.0641
  181DOPC   C3122180   1.369   5.808  11.373 -0.3385 -0.0942 -0.0784
  181DOPC   O3222181   1.388   5.906  11.304 -0.2318 -0.2944 -0.2228
  181DOPC   C3222182   1.446   5.776  11.507 -0.1779 -0.1335 -0.0151
  181DOPC   H2X22183   1.364   5.759  11.581 -1.3606  2.3347 -0.6629
  181DOPC   H2Y22184   1.495   5.678  11.492  0.4341  0.2343 -0.4607
  181DOPC   C2322185   1.700   5.525  11.269 -1.4293  0.3348 -0.0562
  181DOPC   H3R22186   1.711   5.633  11.296 -1.1274  0.5258 -0.9255
  181DOPC   H3S22187   1.804   5.490  11.256 -1.5915  0.5080 -2.0765
  181DOPC   C2422188   1.633   5.451  11.384 -0.0309  0.5372  0.5625
  181DOPC   H4R22189   1.612   5.345  11.360 -2.1095  0.3137  3.0104
  181DOPC   H4S22190   1.533   5.492  11.408 -0.2278  1.9974 -2.3063
  181DOPC   C2522191   1.715   5.456  11.517  0.4745  0.8105  0.3745
  181DOPC   H5R22192   1.736   5.560  11.550  0.2624  0.9856 -0.0337
  181DOPC   H5S22193   1.814   5.411  11.496  0.9583  0.7429  2.5629
  181DOPC   C2622194   1.648   5.381  11.640 -0.9293  0.6840 -0.5362
  181DOPC   H6R22195   1.707   5.408  11.731 -0.8697  1.6956 -0.8617
  181DOPC   H6S22196   1.654   5.271  11.628  0.4161  0.8269 -1.3310
  181DOPC   C2722197   1.502   5.404  11.657 -0.0626 -0.5095  0.2010
  181DOPC   H7R22198   1.447   5.368  11.568 -0.4556  4.6872 -2.0351
  181DOPC   H7S22199   1.478   5.513  11.649 -1.1080 -0.8592 -3.2943
  181DOPC   C2822200   1.455   5.345  11.788 -0.1933 -0.3228 -0.3077
  181DOPC   H8R22201   1.345   5.356  11.802  0.0790  0.3783  1.5312
  181DOPC   H8S22202   1.496   5.391  11.880 -0.8098 -1.9489  0.8419
  181DOPC   C2922203   1.456   5.196  11.785  0.3187  0.7634 -0.0010
  181DOPC   H9R22204   1.501   5.147  11.697  3.4726  1.1744  1.2320
  181DOPC  C21022205   1.433   5.112  11.886  0.0141 -0.5858 -0.2222
  181DOPC  H10R22206   1.413   5.008  11.858  0.3553 -0.7713  0.2172
  181DOPC  C21122207   1.392   5.150  12.028  0.6064  0.9490 -0.2786
  181DOPC  H11R22208   1.472   5.217  12.065  1.2328 -0.7109  1.5864
  181DOPC  H11S22209   1.377   5.059  12.090  0.1221  1.0117 -0.2995
  181DOPC  C21222210   1.268   5.230  12.052 -0.1055 -0.8081 -0.6135
  181DOPC  H12R22211   1.180   5.198  11.992 -0.7907  0.7929 -0.5027
  181DOPC  H12S22212   1.282   5.339  12.033 -0.2693 -0.5635  0.6064
  181DOPC  C21322213   1.219   5.223  12.196  0.3283 -0.1389  0.5745
  181DOPC  H13R22214   1.300   5.258  12.262  0.7451  2.3816 -1.1344
  181DOPC  H13S22215   1.183   5.122  12.226 -0.6216 -0.4383 -1.4013
  181DOPC  C21422216   1.095   5.320  12.224  0.1277  0.4617  0.3038
  181DOPC  H14R22217   0.999   5.291  12.176 -0.3833  0.0451  1.5316
  181DOPC  H14S22218   1.121   5.419  12.183 -0.4914  1.0694  1.3416
  181DOPC  C21522219   1.063   5.344  12.368 -0.1612  0.3173  0.9811
  181DOPC  H15R22220   0.989   5.426  12.362 -2.1368 -1.4506 -0.4707
  181DOPC  H15S22221   1.161   5.371  12.414 -0.1706  1.0034  0.5994
  181DOPC  C21622222   1.021   5.223  12.454  0.5762 -0.1818 -0.0643
  181DOPC  H16R22223   0.992   5.262  12.554 -2.6691 -2.0724 -0.1307
  181DOPC  H16S22224   1.099   5.145  12.469  0.5610 -0.2475 -0.3254
  181DOPC  C21722225   0.884   5.161  12.414 -0.6961 -0.8002 -0.4971
  181DOPC  H17R22226   0.855   5.082  12.486  1.2286 -1.1303 -0.0401
  181DOPC  H17S22227   0.894   5.106  12.318  1.6088 -0.7987 -0.3096
  181DOPC  C21822228   0.759   5.254  12.394  0.0577  0.5463 -0.9349
  181DOPC  H18R22229   0.676   5.198  12.346 -0.1606 -2.2240  2.2709
  181DOPC  H18S22230   0.782   5.337  12.324 -2.9546  1.8831 -0.4808
  181DOPC  H18T22231   0.731   5.304  12.489  1.2356 -1.0173  0.2925
  181DOPC   C3322232   1.539   5.895  11.553  0.6822 -0.5111  0.6163
  181DOPC   H3X22233   1.490   5.994  11.550  0.7974 -0.1804  4.4409
  181DOPC   H3Y22234   1.630   5.887  11.491 -0.0111  0.5821 -0.5818
  181DOPC   C3422235   1.567   5.889  11.701  0.1165 -0.0701  0.0202
  181DOPC   H4X22236   1.481   5.870  11.770 -0.2524 -1.8774 -0.8713
  181DOPC   H4Y22237   1.623   5.982  11.726 -0.7991  0.6124 -0.3941
  181DOPC   C3522238   1.655   5.768  11.734 -0.0781  0.1026  0.0519
  181DOPC   H5X22239   1.746   5.767  11.670 -0.6894 -0.2483 -0.8433
  181DOPC   H5Y22240   1.597   5.675  11.718  0.2646 -0.0965 -0.0298
  181DOPC   C3622241   1.699   5.762  11.883  0.3832  0.7980  0.3316
  181DOPC   H6X22242   1.748   5.663  11.896 -1.3265 -0.4990 -2.2809
  181DOPC   H6Y22243   1.778   5.838  11.899  1.4856  0.2263 -2.0701
  181DOPC   C3722244   1.582   5.746  11.976 -0.5342 -0.0916 -0.5977
  181DOPC   H7X22245   1.517   5.836  11.973 -1.8806 -0.9962  0.3873
  181DOPC   H7Y22246   1.515   5.671  11.926  0.5754  0.1184 -2.4955
  181DOPC   C3822247   1.623   5.681  12.109  0.4543  0.3319  0.3447
  181DOPC   H8X22248   1.683   5.760  12.160 -0.7045  0.9025  0.8641
  181DOPC   H8Y22249   1.687   5.591  12.108 -0.2817 -0.2138  1.0018
  181DOPC   C3922250   1.493   5.648  12.182 -0.8088 -0.0513  0.1428
  181DOPC   H9X22251   1.463   5.542  12.174  1.7216 -0.8163 -0.1264
  181DOPC  C31022252   1.424   5.732  12.270  0.3814 -0.1219  0.0229
  181DOPC  H10X22253   1.331   5.691  12.313  0.6237  0.5648  1.2521
  181DOPC  C31122254   1.447   5.876  12.298 -0.2098 -0.5191 -0.2554
  181DOPC  H11X22255   1.396   5.934  12.218  2.2177 -0.8161 -2.1190
  181DOPC  H11Y22256   1.552   5.901  12.274 -0.3149 -0.0354 -0.2183
  181DOPC  C31222257   1.404   5.946  12.433  0.5498  0.3285  0.9581
  181DOPC  H12X22258   1.464   6.039  12.444 -1.2906  1.3985  2.7332
  181DOPC  H12Y22259   1.423   5.881  12.522 -2.5778 -0.7686  0.9780
  181DOPC  C31322260   1.251   5.981  12.441 -0.5631  0.0502  0.4653
  181DOPC  H13X22261   1.230   6.044  12.352  1.0914  1.8597  1.2786
  181DOPC  H13Y22262   1.180   5.897  12.429 -2.4173  1.1196  3.0132
  181DOPC  C31422263   1.223   6.047  12.580  0.0625 -0.2993 -0.3305
  181DOPC  H14X22264   1.236   5.971  12.659  0.2101 -0.1979 -0.2577
  181DOPC  H14Y22265   1.297   6.121  12.617 -0.0605  0.5208 -1.6584
  181DOPC  C31522266   1.083   6.095  12.597 -0.1775  0.9739  0.1365
  181DOPC  H15X22267   1.003   6.031  12.555  2.3121 -2.5973  0.3739
  181DOPC  H15Y22268   1.083   6.193  12.545  0.0131  1.2147  0.5818
  181DOPC  C31622269   1.036   6.117  12.743  0.2391 -0.5910  0.2504
  181DOPC  H16X22270   1.056   6.027  12.805 -1.5104 -0.2180  1.4243
  181DOPC  H16Y22271   1.084   6.205  12.790 -0.6267 -1.0363  2.0726
  181DOPC  C31722272   0.877   6.148  12.755 -0.0303 -0.5956  0.2942
  181DOPC  H17X22273   0.850   6.235  12.692 -0.5531 -0.7098  0.3523
  181DOPC  H17Y22274   0.826   6.059  12.712  1.4185 -1.0754 -0.4792
  181DOPC  C31822275   0.827   6.176  12.899 -0.2846 -0.0613  0.6908
  181DOPC  H18X22276   0.721   6.211  12.896 -0.3327 -0.1437  1.3885
  181DOPC  H18Y22277   0.811   6.090  12.967 -0.5818 -0.3971  0.2081
  181DOPC  H18Z22278   0.891   6.254  12.945 -1.7837  2.1073 -0.6904
  182DOPC     N22279   1.772   1.623  10.570 -0.2763 -0.0542 -0.1841
  182DOPC   C1222280   1.761   1.503  10.660 -0.1726  0.1537 -0.1831
  182DOPC  H12A22281   1.832   1.524  10.739 -0.1891  1.0008 -0.3833
  182DOPC  H12B22282   1.798   1.420  10.602 -1.5279 -0.9468  0.4389
  182DOPC   C1322283   1.698   1.610  10.439 -0.1575  0.3966 -0.2085
  182DOPC  H13A22284   1.603   1.568  10.470  0.5947 -0.4073  1.1512
  182DOPC  H13B22285   1.687   1.693  10.371  0.5257  0.1090 -0.6798
  182DOPC  H13C22286   1.736   1.536  10.370 -1.1145 -0.5991  0.2790
  182DOPC   C1422287   1.917   1.647  10.534  0.4121 -0.5940 -0.1252
  182DOPC  H14A22288   1.972   1.566  10.488  0.7032 -1.1690  1.1796
  182DOPC  H14B22289   1.934   1.739  10.480  0.7122  0.9364  2.4135
  182DOPC  H14C22290   1.976   1.656  10.624  0.6170 -2.2194 -0.0606
  182DOPC   C1522291   1.716   1.746  10.639  0.4820 -0.8782 -0.0203
  182DOPC  H15A22292   1.750   1.755  10.741 -0.9022  1.3699  0.3318
  182DOPC  H15B22293   1.609   1.736  10.652  0.7145 -2.1721  1.0687
  182DOPC  H15C22294   1.730   1.837  10.582  1.6489 -0.6960  0.5354
  182DOPC   C1122295   1.613   1.466  10.705  0.9898  0.5300  0.5055
  182DOPC  H11A22296   1.637   1.379  10.769  0.2720  0.8665  1.2393
  182DOPC  H11B22297   1.571   1.553  10.759  3.2064  0.6337  2.2124
  182DOPC     P22298   1.513   1.272  10.534  0.2394  0.3255  0.1634
  182DOPC   O1322299   1.489   1.275  10.386 -0.4263  0.1090 -0.0523
  182DOPC   O1422300   1.408   1.205  10.613  0.1961  0.4699  0.8482
  182DOPC   O1222301   1.524   1.424  10.595  0.0474 -0.4860 -0.7657
  182DOPC   O1122302   1.644   1.199  10.569 -0.0017  0.2527 -0.2835
  182DOPC    C122303   1.646   1.111  10.690 -0.3814 -0.8714  0.0247
  182DOPC    HA22304   1.583   1.022  10.673 -0.6137 -0.5583 -0.8199
  182DOPC    HB22305   1.610   1.161  10.782  0.0293  3.9847 -2.1388
  182DOPC    C222306   1.792   1.056  10.712 -0.1279  0.3609  0.0713
  182DOPC    HS22307   1.820   1.006  10.617  0.7282  1.7612 -0.4542
  182DOPC   O2122308   1.789   0.963  10.823  0.0585  0.7809 -0.3502
  182DOPC   C2122309   1.893   0.879  10.817  0.9751 -0.4558  0.2279
  182DOPC   O2222310   1.988   0.884  10.744 -0.5283  0.2676  0.1298
  182DOPC   C2222311   1.862   0.760  10.911  0.0175 -1.1222 -0.1240
  182DOPC   H2R22312   1.762   0.722  10.882 -1.1133  0.4797  1.4294
  182DOPC   H2S22313   1.856   0.794  11.016 -1.6301 -1.9982  0.0996
  182DOPC    C322314   1.898   1.172  10.729  0.7275  1.0744 -0.3675
  182DOPC    HX22315   1.911   1.224  10.632  0.8670  1.2375 -0.2608
  182DOPC    HY22316   1.996   1.128  10.757  0.1082 -0.6465 -0.7569
  182DOPC   O3122317   1.853   1.270  10.830 -0.1092  0.1304 -0.5237
  182DOPC   C3122318   1.898   1.253  10.955 -0.0092 -0.6858  0.0543
  182DOPC   O3222319   1.986   1.178  10.986  0.0500  0.2451 -0.3894
  182DOPC   C3222320   1.815   1.336  11.047 -0.3669 -0.3840  0.5332
  182DOPC   H2X22321   1.816   1.443  11.018 -0.1367 -1.0080 -2.0785
  182DOPC   H2Y22322   1.712   1.305  11.021 -0.8620  1.7355 -0.1472
  182DOPC   C2322323   1.974   0.650  10.913  0.0471  0.4462  0.1392
  182DOPC   H3R22324   2.076   0.693  10.928  0.4997 -0.0654 -1.2764
  182DOPC   H3S22325   1.980   0.593  10.818  2.1910 -2.3051  1.7841
  182DOPC   C2422326   1.949   0.557  11.035 -0.0222  0.3174  0.5554
  182DOPC   H4R22327   1.850   0.505  11.035 -0.2967  0.7719  2.7559
  182DOPC   H4S22328   1.953   0.608  11.133  0.1477 -0.0707  0.7530
  182DOPC   C2522329   2.047   0.431  11.035  1.0821 -0.3276  0.0118
  182DOPC   H5R22330   2.149   0.474  11.044  1.1603 -0.5400  0.1217
  182DOPC   H5S22331   2.026   0.367  10.947 -0.8231 -1.1440  0.9856
  182DOPC   C2622332   2.028   0.337  11.160 -0.1458  0.3113 -0.4526
  182DOPC   H6R22333   1.920   0.310  11.168 -0.2886  0.8429 -0.5169
  182DOPC   H6S22334   2.057   0.399  11.247  1.3753 -2.3175  1.0309
  182DOPC   C2722335   2.114   0.209  11.163  0.9755  1.7868  0.3734
  182DOPC   H7R22336   2.083   0.162  11.067  0.9773  1.0948  0.7116
  182DOPC   H7S22337   2.094   0.148  11.253  1.5972  0.2143 -0.5153
  182DOPC   C2822338   2.265   0.241  11.158 -0.1925 -0.1614  0.3043
  182DOPC   H8R22339   2.281   0.297  11.253 -1.0417  0.6058  0.0159
  182DOPC   H8S22340   2.280   0.315  11.077  0.4207 -0.2657  0.3181
  182DOPC   C2922341   2.346   0.119  11.128 -0.1171 -0.0137 -0.2846
  182DOPC   H9R22342   2.359   0.093  11.022  0.4214 -0.5174 -0.1037
  182DOPC  C21022343   2.414   0.038  11.206 -0.4641  0.2100  0.2488
  182DOPC  H10R22344   2.462  -0.054  11.169  0.4881  0.0401  1.7938
  182DOPC  C21122345   2.439   0.048  11.355 -0.0465 -0.4633  0.1721
  182DOPC  H11R22346   2.424  -0.052  11.401  0.0023 -0.3494  0.4383
  182DOPC  H11S22347   2.365   0.110  11.411  1.0982 -1.1534  2.5718
  182DOPC  C21222348   2.581   0.095  11.392  0.7545  0.2714  0.2355
  182DOPC  H12R22349   2.579   0.115  11.501  0.2106  0.7871  0.1315
  182DOPC  H12S22350   2.608   0.186  11.335 -1.2472  0.1346 -1.0094
  182DOPC  C21322351   2.690  -0.011  11.355 -1.1487 -0.5593 -0.1386
  182DOPC  H13R22352   2.700  -0.030  11.246  0.4344 -2.2048  0.2366
  182DOPC  H13S22353   2.654  -0.105  11.402 -0.2081 -0.0462  1.7055
  182DOPC  C21422354   2.823   0.038  11.415  0.1146 -0.1801 -0.0463
  182DOPC  H14R22355   2.802   0.070  11.519 -0.3648 -1.5300  0.2961
  182DOPC  H14S22356   2.861   0.114  11.344  2.7439 -2.6443 -1.4868
  182DOPC  C21522357   2.924  -0.069  11.427  0.7052  0.4729  0.4887
  182DOPC  H15R22358   3.010  -0.023  11.480  1.2575 -0.9118  0.8551
  182DOPC  H15S22359   2.944  -0.099  11.322 -1.2346  1.9551 -0.3670
  182DOPC  C21622360   2.874  -0.198  11.502  0.0180  0.6748 -0.3152
  182DOPC  H16R22361   2.953  -0.275  11.510 -1.6959 -1.1836 -0.4866
  182DOPC  H16S22362   2.789  -0.245  11.448  1.3406 -2.9537  0.4825
  182DOPC  C21722363   2.842  -0.176  11.649  0.1340 -0.3756 -0.2415
  182DOPC  H17R22364   2.745  -0.125  11.660  1.3515  1.9489  0.2768
  182DOPC  H17S22365   2.913  -0.108  11.701 -0.7770  0.3904  0.0177
  182DOPC  C21822366   2.832  -0.308  11.722 -0.3789 -0.0345  0.1840
  182DOPC  H18R22367   2.787  -0.384  11.654 -0.2602  2.2744 -2.6813
  182DOPC  H18S22368   2.776  -0.300  11.817 -1.6046 -0.6816 -0.4507
  182DOPC  H18T22369   2.931  -0.354  11.741 -0.7166 -0.1101  1.9554
  182DOPC   C3322370   1.849   1.314  11.197 -0.5379 -0.3332  0.1252
  182DOPC   H3X22371   1.945   1.367  11.217 -0.3573 -0.1212 -1.2126
  182DOPC   H3Y22372   1.864   1.207  11.226  1.6691 -0.2999 -0.7202
  182DOPC   C3422373   1.732   1.370  11.282 -0.2884 -0.3839  0.1415
  182DOPC   H4X22374   1.716   1.476  11.250  0.7756 -0.2315  0.0602
  182DOPC   H4Y22375   1.762   1.384  11.388  0.5810 -0.1563 -0.1189
  182DOPC   C3522376   1.588   1.311  11.264 -0.6266 -0.4705  0.1884
  182DOPC   H5X22377   1.558   1.304  11.157  1.8745  1.5347 -0.7590
  182DOPC   H5Y22378   1.521   1.389  11.306  0.0609  0.0875  0.2768
  182DOPC   C3622379   1.569   1.183  11.340 -0.1225 -0.3165  0.1994
  182DOPC   H6X22380   1.631   1.195  11.431  2.1065 -1.3051 -1.0979
  182DOPC   H6Y22381   1.460   1.181  11.360 -0.1794 -0.2780 -0.1006
  182DOPC   C3722382   1.592   1.053  11.260 -0.8496 -0.5571  1.0132
  182DOPC   H7X22383   1.540   1.072  11.164 -0.5041  2.1290  1.2684
  182DOPC   H7Y22384   1.697   1.026  11.234 -1.4337 -1.1339 -0.8792
  182DOPC   C3822385   1.553   0.928  11.342  0.2517 -0.2384 -0.4022
  182DOPC   H8X22386   1.456   0.959  11.388 -0.2516 -1.6677 -0.4440
  182DOPC   H8Y22387   1.629   0.928  11.423 -0.9131 -0.6561  0.7389
  182DOPC   C3922388   1.526   0.808  11.260 -0.2173 -0.2271 -0.2137
  182DOPC   H9X22389   1.434   0.813  11.199 -1.1108  1.9910  1.1926
  182DOPC  C31022390   1.605   0.700  11.240 -0.7002 -0.7603  0.3131
  182DOPC  H10X22391   1.575   0.618  11.173  0.6746 -0.1443 -1.0877
  182DOPC  C31122392   1.729   0.671  11.339  0.1510  0.7288  0.1811
  182DOPC  H11X22393   1.762   0.760  11.396 -0.1460  0.6079  0.5391
  182DOPC  H11Y22394   1.811   0.622  11.281 -0.1060  2.1702 -1.5229
  182DOPC  C31222395   1.699   0.561  11.446  0.4784 -1.0250 -0.2914
  182DOPC  H12X22396   1.647   0.479  11.392 -0.4831 -0.5260 -0.1438
  182DOPC  H12Y22397   1.623   0.606  11.513  0.3798  4.6352 -3.5170
  182DOPC  C31322398   1.823   0.515  11.531 -0.5265  0.1692 -0.5101
  182DOPC  H13X22399   1.884   0.456  11.461  0.5467  1.4606 -0.6946
  182DOPC  H13Y22400   1.879   0.609  11.552  0.1895 -0.5341  0.8735
  182DOPC  C31422401   1.805   0.438  11.656 -0.3307  0.6292 -0.2987
  182DOPC  H14X22402   1.734   0.494  11.719  2.4539  2.0449  1.8068
  182DOPC  H14Y22403   1.771   0.336  11.628  2.1181 -0.0945 -0.8950
  182DOPC  C31522404   1.943   0.413  11.724  0.4532  0.6402  0.6714
  182DOPC  H15X22405   1.974   0.516  11.751  2.4675  0.2916 -0.1255
  182DOPC  H15Y22406   2.008   0.365  11.647 -0.3505 -0.4276  0.6280
  182DOPC  C31622407   1.939   0.334  11.859 -0.2281  0.2276  0.3699
  182DOPC  H16X22408   1.878   0.400  11.924  1.3566  0.7760  1.3360
  182DOPC  H16Y22409   1.880   0.241  11.841  3.8821 -3.2465  2.8162
  182DOPC  C31722410   2.066   0.296  11.921  0.2246 -0.0082 -0.5911
  182DOPC  H17X22411   2.114   0.216  11.861 -1.0515 -0.0525 -1.5967
  182DOPC  H17Y22412   2.121   0.393  11.915 -3.7445  2.4099 -1.7792
  182DOPC  C31822413   2.051   0.241  12.067  0.4945 -0.3608 -1.2545
  182DOPC  H18X22414   1.960   0.180  12.085  1.2284 -1.1687 -0.1441
  182DOPC  H18Y22415   2.142   0.186  12.098 -2.6017 -4.7746  1.1812
  182DOPC  H18Z22416   2.040   0.334  12.128  1.8364 -1.1637  0.2778
  183DOPC     N22417   7.624   4.682  10.462  0.8970 -0.1589  0.4050
  183DOPC   C1222418   7.755   4.757  10.453 -0.3790  0.2959 -0.3537
  183DOPC  H12A22419   7.747   4.851  10.401  1.9092  1.3599  1.0658
  183DOPC  H12B22420   7.816   4.697  10.387 -0.2539 -0.5177  0.4735
  183DOPC   C1322421   7.651   4.548  10.531  0.1212 -0.9782 -0.6508
  183DOPC  H13A22422   7.739   4.497  10.494  0.3000 -1.2359  0.1014
  183DOPC  H13B22423   7.663   4.556  10.638 -0.9480 -0.6365 -0.5458
  183DOPC  H13C22424   7.563   4.488  10.516 -0.2845 -0.2362 -1.2968
  183DOPC   C1422425   7.569   4.666  10.322 -0.2127  0.0085 -0.5565
  183DOPC  H14A22426   7.566   4.761  10.270 -0.2720  1.2267  1.5393
  183DOPC  H14B22427   7.621   4.585  10.274 -0.2570  0.0724 -0.7124
  183DOPC  H14C22428   7.471   4.626  10.346  0.2266 -1.8742 -1.7363
  183DOPC   C1522429   7.522   4.758  10.548  0.1152 -0.6599 -0.4858
  183DOPC  H15A22430   7.443   4.691  10.580 -0.9084  1.7629  2.4961
  183DOPC  H15B22431   7.480   4.850  10.511  2.3541  1.2598  1.4948
  183DOPC  H15C22432   7.572   4.792  10.637  0.9964 -2.1917 -0.3534
  183DOPC   C1122433   7.827   4.776  10.589 -0.0451 -0.0187 -0.2527
  183DOPC  H11A22434   7.920   4.830  10.561  0.1270 -0.0259  0.2940
  183DOPC  H11B22435   7.768   4.840  10.659  0.6006  1.5616 -1.0947
  183DOPC     P22436   7.961   4.639  10.778 -0.2123 -0.1420 -0.0878
  183DOPC   O1322437   8.098   4.674  10.745 -0.2390  0.4498 -0.7741
  183DOPC   O1422438   7.955   4.500  10.818 -0.0653  0.0199 -0.7962
  183DOPC   O1222439   7.863   4.652  10.652 -0.5311  0.0020 -0.1963
  183DOPC   O1122440   7.907   4.734  10.891  0.0873 -0.0794 -0.9293
  183DOPC    C122441   7.769   4.748  10.928  0.2667 -0.1318  0.3720
  183DOPC    HA22442   7.696   4.686  10.872  0.3248  0.2741 -0.1593
  183DOPC    HB22443   7.739   4.854  10.916  0.4788 -0.0167  0.8427
  183DOPC    C222444   7.752   4.722  11.083  0.1697  0.3389  0.5466
  183DOPC    HS22445   7.651   4.738  11.125  1.1997  0.5996  3.0765
  183DOPC   O2122446   7.837   4.800  11.169 -0.4958  0.1702 -0.4700
  183DOPC   C2122447   7.809   4.929  11.179  1.1177  0.0595 -0.7013
  183DOPC   O2222448   7.702   4.975  11.141 -0.3718 -0.4004 -0.3190
  183DOPC   C2222449   7.924   4.996  11.259 -0.2348  0.2111  0.6516
  183DOPC   H2R22450   7.935   5.089  11.198 -1.0085  0.7210  1.2766
  183DOPC   H2S22451   8.017   4.937  11.242 -0.2368  0.6798 -1.1919
  183DOPC    C322452   7.779   4.573  11.117  0.5560 -0.2091 -0.3155
  183DOPC    HX22453   7.881   4.557  11.157  0.4723  2.0058  0.9637
  183DOPC    HY22454   7.753   4.503  11.035  0.4656  0.4726 -0.8800
  183DOPC   O3122455   7.694   4.550  11.231  0.9636 -0.2604  0.0513
  183DOPC   C3122456   7.681   4.428  11.266  0.1335 -0.1344  0.0158
  183DOPC   O3222457   7.738   4.333  11.216  0.4324 -0.5944  0.3032
  183DOPC   C3222458   7.571   4.418  11.371  0.9645 -0.2258 -0.4025
  183DOPC   H2X22459   7.554   4.309  11.370  0.6773 -0.1840 -1.5932
  183DOPC   H2Y22460   7.602   4.447  11.474  0.0009  2.5199 -0.8150
  183DOPC   C2322461   7.917   5.026  11.411  0.3391  0.1000 -0.4299
  183DOPC   H3R22462   7.811   5.035  11.442  0.1756  3.2701 -1.4651
  183DOPC   H3S22463   7.967   5.122  11.435  0.1971 -0.5321  2.8827
  183DOPC   C2422464   7.997   4.933  11.506 -0.5550  0.2341 -0.0309
  183DOPC   H4R22465   7.967   4.971  11.606 -0.9049  1.3848 -0.5529
  183DOPC   H4S22466   8.106   4.941  11.484 -0.6774 -0.9522 -1.1554
  183DOPC   C2522467   7.939   4.793  11.488  0.3542 -0.9796  0.3241
  183DOPC   H5R22468   7.967   4.749  11.390  0.0550 -1.9733  0.6711
  183DOPC   H5S22469   7.829   4.806  11.475  0.4454  1.4253  1.5556
  183DOPC   C2622470   7.998   4.699  11.596 -0.0368 -0.1692  0.5916
  183DOPC   H6R22471   7.953   4.717  11.696  1.8058  0.3963  1.3593
  183DOPC   H6S22472   8.105   4.728  11.606 -0.3116  0.4674  1.9745
  183DOPC   C2722473   7.974   4.554  11.564 -0.6524 -0.1981 -0.1694
  183DOPC   H7R22474   8.032   4.515  11.478 -0.1432 -2.0984  0.9695
  183DOPC   H7S22475   7.864   4.545  11.550 -0.7126  0.2200  0.0225
  183DOPC   C2822476   8.009   4.456  11.677 -0.4901 -0.3634 -0.3073
  183DOPC   H8R22477   7.983   4.352  11.648 -0.4243 -0.5865  0.4193
  183DOPC   H8S22478   7.939   4.485  11.758 -0.7657  1.7628 -1.2424
  183DOPC   C2922479   8.158   4.463  11.704  0.5736  0.2202 -0.5484
  183DOPC   H9R22480   8.215   4.535  11.645  0.9923 -0.2922 -0.7699
  183DOPC  C21022481   8.230   4.364  11.768 -0.3943  0.4176  0.1030
  183DOPC  H10R22482   8.337   4.380  11.786  0.9039 -3.1724 -3.0614
  183DOPC  C21122483   8.182   4.237  11.835  0.6009  0.0304  0.2694
  183DOPC  H11R22484   8.213   4.145  11.781  0.1350  0.2624 -0.3966
  183DOPC  H11S22485   8.071   4.239  11.839  0.4944 -1.5499 -1.0358
  183DOPC  C21222486   8.230   4.223  11.988  0.1789 -0.3763  0.1956
  183DOPC  H12R22487   8.211   4.319  12.039 -3.0720 -0.2231 -1.0352
  183DOPC  H12S22488   8.338   4.199  11.993  0.0098 -1.4230 -0.7063
  183DOPC  C21322489   8.151   4.110  12.066 -0.0644  0.1196 -0.0705
  183DOPC  H13R22490   8.202   4.104  12.165 -0.0490  1.9745  0.0658
  183DOPC  H13S22491   8.152   4.013  12.012 -0.7445 -0.0798  0.2696
  183DOPC  C21422492   8.000   4.135  12.085 -0.1759 -0.3081  0.9831
  183DOPC  H14R22493   7.961   4.158  11.984 -1.2103 -1.5871  1.0547
  183DOPC  H14S22494   7.984   4.221  12.154  1.0252  0.5737  0.1985
  183DOPC  C21522495   7.928   4.010  12.142 -0.4435  0.5378 -0.4706
  183DOPC  H15R22496   8.000   3.964  12.214 -0.0821  2.1822  0.2565
  183DOPC  H15S22497   7.903   3.933  12.066 -0.0361 -0.4549  0.3628
  183DOPC  C21622498   7.797   4.040  12.216  0.5178  0.1933 -0.3700
  183DOPC  H16R22499   7.814   4.094  12.312 -0.6259 -0.7263  0.3787
  183DOPC  H16S22500   7.747   3.944  12.240 -1.2841  0.9466 -0.9677
  183DOPC  C21722501   7.700   4.133  12.135 -0.3772  0.6540 -0.5254
  183DOPC  H17R22502   7.690   4.083  12.036 -0.5832  1.7303 -1.0649
  183DOPC  H17S22503   7.746   4.232  12.117  2.7073 -0.7677 -1.0597
  183DOPC  C21822504   7.551   4.139  12.184 -0.4683 -0.1653 -0.0248
  183DOPC  H18R22505   7.496   4.044  12.201  1.3641 -1.2316  0.2378
  183DOPC  H18S22506   7.495   4.214  12.124  1.0182  2.4109  1.6358
  183DOPC  H18T22507   7.558   4.185  12.285 -0.2498  1.2070 -0.6356
  183DOPC   C3322508   7.445   4.492  11.343  0.0919  0.1920  0.0641
  183DOPC   H3X22509   7.430   4.511  11.234 -0.0832 -0.0215  0.0507
  183DOPC   H3Y22510   7.451   4.586  11.402  0.5145 -0.2959  0.8045
  183DOPC   C3422511   7.321   4.409  11.389  0.1639  0.4835 -0.1997
  183DOPC   H4X22512   7.346   4.310  11.432 -0.2269  0.2371 -0.5379
  183DOPC   H4Y22513   7.273   4.387  11.291  0.0954 -0.9192  0.1300
  183DOPC   C3522514   7.235   4.491  11.480  0.1097 -0.4597  0.0776
  183DOPC   H5X22515   7.189   4.575  11.424  0.4723 -0.5371 -0.3472
  183DOPC   H5Y22516   7.309   4.514  11.560  0.8972 -0.7170 -0.5611
  183DOPC   C3622517   7.126   4.402  11.550  0.0166 -0.0674  0.2428
  183DOPC   H6X22518   7.043   4.469  11.582 -0.9995 -0.6679 -1.0405
  183DOPC   H6Y22519   7.071   4.341  11.476 -3.4899  3.3761 -0.3356
  183DOPC   C3722520   7.169   4.324  11.676 -0.0667 -0.5484  0.4381
  183DOPC   H7X22521   7.226   4.230  11.662 -2.0706 -1.9867  1.4523
  183DOPC   H7Y22522   7.248   4.389  11.719 -0.1007 -1.8692  2.6761
  183DOPC   C3822523   7.058   4.298  11.783 -0.0824  0.1680 -0.5141
  183DOPC   H8X22524   6.998   4.212  11.746  0.5065 -1.4291  2.0716
  183DOPC   H8Y22525   6.990   4.386  11.790 -0.9092 -0.4462 -0.7191
  183DOPC   C3922526   7.128   4.294  11.918 -0.0766  0.3474 -0.5665
  183DOPC   H9X22527   7.161   4.392  11.953 -1.4245  0.0914  1.6212
  183DOPC  C31022528   7.148   4.182  11.991  0.0348 -0.3468  0.1486
  183DOPC  H10X22529   7.187   4.198  12.093 -3.6622 -1.1973  1.8926
  183DOPC  C31122530   7.120   4.043  11.947  0.2437  0.0784  1.0068
  183DOPC  H11X22531   7.182   4.021  11.858 -0.6015 -0.2562  0.4901
  183DOPC  H11Y22532   7.013   4.043  11.919  0.3371  0.4660  0.6472
  183DOPC  C31222533   7.124   3.930  12.047  0.1224 -0.2511 -0.8054
  183DOPC  H12X22534   7.079   3.838  12.005  2.4801 -1.2749 -1.2860
  183DOPC  H12Y22535   7.065   3.947  12.139 -1.5485  1.8761 -2.1810
  183DOPC  C31322536   7.264   3.896  12.103  1.2115 -0.0112 -0.1982
  183DOPC  H13X22537   7.340   3.893  12.022 -0.3355  1.2427 -1.7689
  183DOPC  H13Y22538   7.291   3.978  12.173  1.5598 -0.6559  0.4427
  183DOPC  C31422539   7.276   3.770  12.184  0.0302 -0.3485 -0.3626
  183DOPC  H14X22540   7.189   3.781  12.252 -0.5963  1.2668 -1.3739
  183DOPC  H14Y22541   7.258   3.675  12.130  0.5570 -1.2176  0.9107
  183DOPC  C31522542   7.401   3.767  12.276  0.1525 -0.7502 -0.1010
  183DOPC  H15X22543   7.389   3.857  12.339 -0.1444 -1.1848  0.4731
  183DOPC  H15Y22544   7.495   3.767  12.217  2.1939  1.7850  2.8405
  183DOPC  C31622545   7.414   3.636  12.360  0.1497 -0.4058 -0.1753
  183DOPC  H16X22546   7.327   3.631  12.429 -1.6730 -1.6201 -2.4259
  183DOPC  H16Y22547   7.405   3.555  12.285 -1.0868  0.0781 -0.5694
  183DOPC  C31722548   7.537   3.611  12.446  0.5583  1.1595  0.5385
  183DOPC  H17X22549   7.628   3.628  12.384  1.0304 -0.0684  0.8662
  183DOPC  H17Y22550   7.525   3.688  12.525 -1.4889  3.1100 -1.5294
  183DOPC  C31822551   7.543   3.474  12.516 -0.2399 -0.2413 -0.1050
  183DOPC  H18X22552   7.559   3.390  12.445  2.9544  0.3293 -0.2420
  183DOPC  H18Y22553   7.620   3.474  12.597  0.3726  2.1392 -0.6254
  183DOPC  H18Z22554   7.451   3.448  12.574 -0.5325 -0.0828 -0.4984
  184DOPC     N22555   5.492   0.392  10.607 -0.1544  0.8326 -0.3416
  184DOPC   C1222556   5.605   0.424  10.705 -0.1352  0.1696  0.4653
  184DOPC  H12A22557   5.655   0.332  10.729 -0.1368  0.0608  0.0614
  184DOPC  H12B22558   5.565   0.469  10.794 -0.1801 -0.1044  0.5827
  184DOPC   C1322559   5.430   0.518  10.557 -0.0620 -0.1197  0.0631
  184DOPC  H13A22560   5.495   0.595  10.519 -0.1508  0.8727  1.8329
  184DOPC  H13B22561   5.368   0.501  10.470  0.5004  1.1393 -0.6073
  184DOPC  H13C22562   5.365   0.564  10.630 -0.1111 -2.4740  1.5838
  184DOPC   C1422563   5.390   0.304  10.676 -0.3135  0.2324  0.4872
  184DOPC  H14A22564   5.349   0.349  10.765 -0.6880 -0.3371  0.6082
  184DOPC  H14B22565   5.310   0.291  10.604 -2.1489 -0.1997  2.4975
  184DOPC  H14C22566   5.429   0.206  10.698  1.2596  0.4497 -1.1632
  184DOPC   C1522567   5.555   0.307  10.497  0.3073 -0.4702  0.2705
  184DOPC  H15A22568   5.579   0.208  10.533  0.9549 -0.2757  0.3925
  184DOPC  H15B22569   5.633   0.363  10.448 -1.1405  0.9315 -0.5377
  184DOPC  H15C22570   5.470   0.293  10.432 -0.3779  0.0369  1.0453
  184DOPC   C1122571   5.718   0.522  10.665 -0.0226 -0.4371  0.8042
  184DOPC  H11A22572   5.809   0.510  10.728 -0.1716 -1.1910  0.8815
  184DOPC  H11B22573   5.745   0.509  10.558  1.1280 -0.8849  1.1390
  184DOPC     P22574   5.664   0.736  10.794  0.4096 -0.0926 -0.5089
  184DOPC   O1322575   5.660   0.644  10.903  0.0242 -0.6239 -0.4902
  184DOPC   O1422576   5.548   0.835  10.791 -0.1150  0.1250 -0.0912
  184DOPC   O1222577   5.662   0.656  10.664  0.1464  0.8203  0.1010
  184DOPC   O1122578   5.803   0.812  10.788  0.1094 -0.5757 -0.3450
  184DOPC    C122579   5.933   0.755  10.817  0.0658 -0.1610 -0.3274
  184DOPC    HA22580   5.995   0.769  10.727  0.0748  1.1628 -0.1383
  184DOPC    HB22581   5.924   0.650  10.852  2.9608 -0.3801 -0.0432
  184DOPC    C222582   6.003   0.831  10.937 -0.1871  0.3790 -0.7399
  184DOPC    HS22583   6.102   0.790  10.965  0.4096  2.2816  0.0803
  184DOPC   O2122584   5.913   0.824  11.047 -0.8806 -0.2483 -0.7809
  184DOPC   C2122585   5.917   0.718  11.126 -0.5937 -0.5601  0.2622
  184DOPC   O2222586   5.975   0.611  11.101  0.4960 -0.5431 -0.0196
  184DOPC   C2222587   5.843   0.741  11.251 -0.2341 -0.7135 -0.3019
  184DOPC   H2R22588   5.847   0.644  11.307  2.7609 -0.0292  0.8881
  184DOPC   H2S22589   5.742   0.773  11.220 -0.2247 -0.3194  0.0687
  184DOPC    C322590   6.030   0.975  10.913  0.0807  0.2067 -0.5886
  184DOPC    HX22591   5.935   1.033  10.907  0.6218  1.1449 -0.2771
  184DOPC    HY22592   6.089   0.985  10.820  0.4781 -0.5206 -0.4212
  184DOPC   O3122593   6.109   1.019  11.028 -0.1154  0.2433 -0.1750
  184DOPC   C3122594   6.147   1.144  11.015  0.0403 -0.1336  0.4392
  184DOPC   O3222595   6.126   1.212  10.917  0.2587 -0.6096 -0.1431
  184DOPC   C3222596   6.229   1.186  11.135 -0.0433 -0.0896  0.1357
  184DOPC   H2X22597   6.169   1.192  11.228  3.4830 -0.7952  2.6885
  184DOPC   H2Y22598   6.302   1.105  11.158 -0.7946 -0.6213  0.7155
  184DOPC   C2322599   5.902   0.845  11.351  0.1210 -0.0229  0.0621
  184DOPC   H3R22600   5.827   0.862  11.432 -0.8783  1.8261 -1.1619
  184DOPC   H3S22601   5.891   0.949  11.312 -2.2549  0.2320  1.1981
  184DOPC   C2422602   6.037   0.813  11.405  0.2490 -0.0269 -0.2343
  184DOPC   H4R22603   6.108   0.782  11.325  0.9985 -0.0112  0.4124
  184DOPC   H4S22604   6.014   0.721  11.463 -0.0922  0.3913  0.3006
  184DOPC   C2522605   6.091   0.926  11.497  0.1423  0.4933  0.4814
  184DOPC   H5R22606   6.061   0.914  11.604  0.0024 -1.1838  0.2929
  184DOPC   H5S22607   6.053   1.027  11.471 -1.9218 -0.2514  0.3814
  184DOPC   C2622608   6.243   0.940  11.490 -0.6279 -0.0770 -0.5385
  184DOPC   H6R22609   6.283   0.918  11.389 -0.7667  0.0320 -0.6167
  184DOPC   H6S22610   6.279   0.863  11.561  0.5003 -0.0467 -1.0573
  184DOPC   C2722611   6.306   1.071  11.531  0.2716 -0.2534  0.2097
  184DOPC   H7R22612   6.277   1.089  11.636  0.6531 -0.6832  0.3917
  184DOPC   H7S22613   6.267   1.150  11.463  1.9840  0.3440 -0.1313
  184DOPC   C2822614   6.461   1.050  11.526 -0.0517 -0.4308  0.3227
  184DOPC   H8R22615   6.483   1.018  11.422 -3.0576 -0.7014 -0.3372
  184DOPC   H8S22616   6.494   0.974  11.600  4.1279  0.5499 -0.3134
  184DOPC   C2922617   6.538   1.176  11.536  0.0089 -0.3545 -0.5429
  184DOPC   H9R22618   6.591   1.214  11.447  2.5909  0.1552  1.1029
  184DOPC  C21022619   6.544   1.260  11.643 -0.1652  0.6226  0.0144
  184DOPC  H10R22620   6.607   1.349  11.630  0.9373 -0.0168  0.8498
  184DOPC  C21122621   6.473   1.244  11.776 -0.4795 -0.2509 -0.5488
  184DOPC  H11R22622   6.548   1.232  11.857 -0.1235  0.9634 -0.6829
  184DOPC  H11S22623   6.405   1.157  11.780 -0.3381 -0.4851 -2.3657
  184DOPC  C21222624   6.408   1.378  11.809  0.0775 -0.6969 -0.3885
  184DOPC  H12R22625   6.337   1.410  11.729 -0.3600  1.1830  0.7092
  184DOPC  H12S22626   6.478   1.463  11.825 -1.4101  0.8884 -1.8275
  184DOPC  C21322627   6.322   1.372  11.938 -0.7337  0.0645 -0.2579
  184DOPC  H13R22628   6.392   1.330  12.013 -0.1654  2.1058  0.4201
  184DOPC  H13S22629   6.246   1.293  11.922  1.9503 -2.4275 -1.6157
  184DOPC  C21422630   6.251   1.500  11.987 -0.1028  0.0530  0.2722
  184DOPC  H14R22631   6.327   1.580  11.998  0.3509 -0.2446 -0.5473
  184DOPC  H14S22632   6.208   1.494  12.089  0.1457 -0.8328  0.3350
  184DOPC  C21522633   6.138   1.538  11.896  0.4471 -0.2675 -0.0614
  184DOPC  H15R22634   6.062   1.458  11.911  1.1294 -0.4614  3.0100
  184DOPC  H15S22635   6.164   1.535  11.788  0.8685  2.2433 -0.0715
  184DOPC  C21622636   6.064   1.668  11.947 -0.3518 -0.3299  0.1096
  184DOPC  H16R22637   6.135   1.733  12.002 -1.1779 -0.3781  1.2740
  184DOPC  H16S22638   5.989   1.633  12.022 -0.9070 -0.1602 -0.3623
  184DOPC  C21722639   5.989   1.746  11.836 -0.0079  0.3344  0.3691
  184DOPC  H17R22640   5.929   1.658  11.805  1.5782 -0.1951 -1.3410
  184DOPC  H17S22641   6.052   1.774  11.749 -1.0107 -0.2776 -0.5853
  184DOPC  C21822642   5.898   1.861  11.879 -0.5215 -0.3395  0.0026
  184DOPC  H18R22643   5.853   1.921  11.796 -1.8906 -0.6298  0.5081
  184DOPC  H18S22644   5.945   1.929  11.952  0.2068  0.5099 -1.2195
  184DOPC  H18T22645   5.805   1.817  11.921 -0.2300 -0.6083  0.3692
  184DOPC   C3322646   6.299   1.320  11.114  0.0547 -0.8458  0.0787
  184DOPC   H3X22647   6.227   1.404  11.110  1.4219  0.3227 -2.9633
  184DOPC   H3Y22648   6.364   1.308  11.025  0.7127  0.1305  0.4112
  184DOPC   C3422649   6.396   1.353  11.228 -0.2377 -0.2695  0.4728
  184DOPC   H4X22650   6.460   1.263  11.236  1.9303  1.1919  0.4699
  184DOPC   H4Y22651   6.339   1.379  11.319 -0.9017 -1.9813  0.5675
  184DOPC   C3522652   6.494   1.475  11.209  0.1216 -0.8223 -0.1269
  184DOPC   H5X22653   6.443   1.573  11.200  2.7553  0.5287 -1.3022
  184DOPC   H5Y22654   6.545   1.443  11.116 -2.9322 -1.3261 -1.7582
  184DOPC   C3622655   6.602   1.469  11.319 -0.0378 -0.7166  0.1741
  184DOPC   H6X22656   6.531   1.461  11.404  0.3122  2.0397  0.8277
  184DOPC   H6Y22657   6.671   1.383  11.311  0.1760 -0.6904  1.5213
  184DOPC   C3722658   6.688   1.591  11.337  0.0778  0.6616 -0.2448
  184DOPC   H7X22659   6.763   1.601  11.255  0.3472 -1.0020 -0.2381
  184DOPC   H7Y22660   6.626   1.682  11.331  1.6580  2.1720  3.2403
  184DOPC   C3822661   6.780   1.589  11.465  0.4771 -0.0649  0.2240
  184DOPC   H8X22662   6.861   1.664  11.457  0.4859 -0.2438 -2.1691
  184DOPC   H8Y22663   6.828   1.490  11.481  4.3662  1.8743  1.9390
  184DOPC   C3922664   6.686   1.623  11.577  0.0761 -0.4533 -0.0106
  184DOPC   H9X22665   6.579   1.627  11.552 -0.1783 -0.1609  1.0434
  184DOPC  C31022666   6.712   1.627  11.713  0.1123 -0.8339 -0.5850
  184DOPC  H10X22667   6.629   1.643  11.784 -2.0489 -2.8265 -2.4693
  184DOPC  C31122668   6.840   1.587  11.779 -0.0978  0.5516 -0.1840
  184DOPC  H11X22669   6.877   1.672  11.840 -1.1201  1.6265 -1.0066
  184DOPC  H11Y22670   6.917   1.565  11.702 -0.1881  1.3691 -0.5201
  184DOPC  C31222671   6.817   1.470  11.881 -0.2419 -0.2257 -0.2800
  184DOPC  H12X22672   6.917   1.434  11.912 -0.5760 -1.3415 -0.4761
  184DOPC  H12Y22673   6.766   1.384  11.832  1.1153 -1.3773  0.2648
  184DOPC  C31322674   6.732   1.499  12.010 -0.6590 -0.6426  0.1458
  184DOPC  H13X22675   6.795   1.575  12.060 -0.0537  0.1952 -1.7672
  184DOPC  H13Y22676   6.637   1.554  11.992  0.4146  1.7677  1.3556
  184DOPC  C31422677   6.703   1.380  12.095 -0.1130  0.2486 -0.4214
  184DOPC  H14X22678   6.641   1.310  12.035 -1.0503 -0.6836  1.5511
  184DOPC  H14Y22679   6.798   1.326  12.118 -0.4403  0.6810  2.2199
  184DOPC  C31522680   6.627   1.402  12.225 -0.2186  0.3456  0.1089
  184DOPC  H15X22681   6.523   1.437  12.213  0.3340  1.4444 -1.9500
  184DOPC  H15Y22682   6.671   1.483  12.287  0.3531 -0.8988  1.3975
  184DOPC  C31622683   6.658   1.289  12.330  0.3220 -1.0626  0.2111
  184DOPC  H16X22684   6.576   1.214  12.333  1.0428 -1.8762  0.0880
  184DOPC  H16Y22685   6.752   1.233  12.308  1.2151  0.3842  0.2136
  184DOPC  C31722686   6.673   1.342  12.476  0.5862 -1.3875 -0.2377
  184DOPC  H17X22687   6.708   1.271  12.555  2.3460 -2.1247 -1.6321
  184DOPC  H17Y22688   6.756   1.415  12.469 -1.5179  1.2741  0.7155
  184DOPC  C31822689   6.552   1.427  12.528 -0.1635  0.9013  0.6695
  184DOPC  H18X22690   6.556   1.436  12.639 -2.8425 -0.5891  0.9723
  184DOPC  H18Y22691   6.555   1.530  12.487  0.9136  0.9810  0.8990
  184DOPC  H18Z22692   6.461   1.367  12.508  1.3554 -0.7331 -2.0455
  185DOPC     N22693   7.112   4.999  10.587 -0.5663  0.6483  0.1165
  185DOPC   C1222694   7.115   5.151  10.554 -0.3714  0.5653 -0.3731
  185DOPC  H12A22695   7.026   5.178  10.500 -1.2344  0.0468  0.7398
  185DOPC  H12B22696   7.187   5.176  10.477 -0.3526  1.5094 -0.0565
  185DOPC   C1322697   7.083   4.916  10.462  0.3606 -0.7763  0.0302
  185DOPC  H13A22698   7.110   4.812  10.469  1.8279 -0.4186 -0.0090
  185DOPC  H13B22699   6.979   4.925  10.433  1.5674  2.6093 -4.4260
  185DOPC  H13C22700   7.144   4.948  10.378 -0.5758  1.3894  0.0832
  185DOPC   C1422701   6.997   4.963  10.684 -0.2205 -0.2185  0.2941
  185DOPC  H14A22702   6.999   4.855  10.691 -0.8574 -0.6815 -4.0633
  185DOPC  H14B22703   7.003   5.018  10.777 -0.2306  0.8581 -0.3248
  185DOPC  H14C22704   6.905   4.990  10.634  0.5956 -1.7414 -2.1916
  185DOPC   C1522705   7.249   4.958  10.641  0.4600  0.6674  0.1177
  185DOPC  H15A22706   7.330   4.984  10.574  1.6441 -3.2119 -0.1930
  185DOPC  H15B22707   7.255   4.855  10.674  1.1274  0.8072  0.4416
  185DOPC  H15C22708   7.262   5.013  10.733  0.9095 -0.5506  0.8053
  185DOPC   C1122709   7.130   5.250  10.671 -0.2572 -0.0762  0.2294
  185DOPC  H11A22710   7.097   5.354  10.650 -0.6849 -0.3170 -0.3097
  185DOPC  H11B22711   7.070   5.210  10.756  0.6902 -0.8513  0.5446
  185DOPC     P22712   7.375   5.342  10.631  0.3171  0.2792 -0.0192
  185DOPC   O1322713   7.356   5.316  10.487 -0.2591  0.1020  0.6265
  185DOPC   O1422714   7.509   5.314  10.686  0.3569  0.2895  0.3108
  185DOPC   O1222715   7.266   5.250  10.711 -0.4288 -0.1737 -0.4921
  185DOPC   O1122716   7.336   5.488  10.673  0.4266 -0.2823  0.8072
  185DOPC    C122717   7.263   5.528  10.789 -1.3509  0.1791 -0.7571
  185DOPC    HA22718   7.189   5.459  10.835  0.9416 -1.4815  0.6697
  185DOPC    HB22719   7.199   5.613  10.759 -1.9695  0.2344  0.6097
  185DOPC    C222720   7.361   5.571  10.905  0.1356 -0.0177  0.0945
  185DOPC    HS22721   7.457   5.578  10.850 -0.0209 -1.9871 -0.5036
  185DOPC   O2122722   7.369   5.458  10.995  0.7951 -0.2148  0.3942
  185DOPC   C2122723   7.486   5.453  11.054  0.1681  0.0389  0.3652
  185DOPC   O2222724   7.578   5.535  11.041  0.1082  0.2093  0.3647
  185DOPC   C2222725   7.491   5.323  11.136 -0.0583 -0.7834 -0.7212
  185DOPC   H2R22726   7.519   5.244  11.064  1.6847 -0.6662 -0.2391
  185DOPC   H2S22727   7.391   5.307  11.182  0.5759 -0.0636  1.0103
  185DOPC    C322728   7.311   5.705  10.974  0.0004  0.1602 -0.2055
  185DOPC    HX22729   7.219   5.662  11.018  0.4886 -1.4925 -0.7284
  185DOPC    HY22730   7.287   5.793  10.910 -0.9052  0.6058  0.7238
  185DOPC   O3122731   7.398   5.751  11.081  0.1927 -0.1575  0.0209
  185DOPC   C3122732   7.509   5.817  11.053 -0.6311 -0.1511  0.4003
  185DOPC   O3222733   7.545   5.848  10.942 -0.0361  0.1373  0.4961
  185DOPC   C3222734   7.586   5.830  11.190 -0.0897  0.4764 -0.0662
  185DOPC   H2X22735   7.513   5.890  11.249  1.4197  2.5250 -0.1995
  185DOPC   H2Y22736   7.590   5.726  11.228 -0.1028 -0.2557 -1.9619
  185DOPC   C2322737   7.610   5.322  11.234 -0.0444  0.1833 -0.1290
  185DOPC   H3R22738   7.701   5.309  11.171  0.0741  0.1271  0.0527
  185DOPC   H3S22739   7.597   5.226  11.288 -5.4706  0.0971 -1.0758
  185DOPC   C2422740   7.610   5.442  11.337  0.4601  0.2869  0.7359
  185DOPC   H4R22741   7.618   5.536  11.279  1.4793 -0.1313  0.1891
  185DOPC   H4S22742   7.701   5.433  11.400  1.4164  1.2705 -0.4520
  185DOPC   C2522743   7.483   5.443  11.415  0.1165 -0.7590  0.6142
  185DOPC   H5R22744   7.457   5.339  11.442 -1.4940 -0.6557 -0.4119
  185DOPC   H5S22745   7.398   5.469  11.348 -0.8034 -1.7298  1.3741
  185DOPC   C2622746   7.483   5.532  11.534  0.7427  0.6379 -0.4081
  185DOPC   H6R22747   7.375   5.535  11.559 -0.0040 -4.9821 -1.5797
  185DOPC   H6S22748   7.522   5.634  11.512  1.5221  0.5258  0.4145
  185DOPC   C2722749   7.572   5.473  11.649  0.3242  0.0919 -0.2430
  185DOPC   H7R22750   7.679   5.484  11.622  0.7501  2.6401  2.0651
  185DOPC   H7S22751   7.542   5.366  11.645  0.4514  0.0456  0.0262
  185DOPC   C2822752   7.542   5.528  11.793  0.3979 -0.0810 -0.4993
  185DOPC   H8R22753   7.604   5.465  11.860 -2.3948 -0.2114  2.2028
  185DOPC   H8S22754   7.438   5.499  11.819  0.7489 -3.9300 -2.6138
  185DOPC   C2922755   7.566   5.674  11.815  1.0538 -0.6514 -0.2201
  185DOPC   H9R22756   7.502   5.729  11.745  0.6438 -2.0382 -0.9669
  185DOPC  C21022757   7.654   5.738  11.888  0.6923  0.4118 -0.0315
  185DOPC  H10R22758   7.652   5.847  11.873 -0.9144  0.6377  1.3985
  185DOPC  C21122759   7.766   5.682  11.973 -0.3350 -0.1202 -0.3411
  185DOPC  H11R22760   7.858   5.700  11.913 -1.0233  1.1954 -1.0281
  185DOPC  H11S22761   7.750   5.573  11.990  0.3496 -0.2192 -0.3145
  185DOPC  C21222762   7.785   5.766  12.104  0.3509 -0.0557  0.8120
  185DOPC  H12R22763   7.795   5.874  12.080  1.0037 -0.0184  1.2231
  185DOPC  H12S22764   7.887   5.742  12.141  2.0436  0.7473 -2.8858
  185DOPC  C21322765   7.676   5.753  12.206 -0.3981  0.2933 -0.6177
  185DOPC  H13R22766   7.576   5.750  12.158 -0.6205  0.6459 -0.1723
  185DOPC  H13S22767   7.681   5.840  12.274 -1.9383 -0.4008  0.4439
  185DOPC  C21422768   7.676   5.626  12.289 -0.3664 -0.2882 -0.5697
  185DOPC  H14R22769   7.781   5.614  12.325 -0.0885  1.8492 -0.5276
  185DOPC  H14S22770   7.653   5.538  12.226  2.7103 -1.4669 -0.2458
  185DOPC  C21522771   7.576   5.628  12.406  0.0369 -0.7600 -0.1813
  185DOPC  H15R22772   7.474   5.629  12.362 -0.6680  3.2851  1.1910
  185DOPC  H15S22773   7.585   5.725  12.458 -1.1700 -0.0290 -1.2746
  185DOPC  C21622774   7.598   5.506  12.500 -0.8898  0.3078  0.2216
  185DOPC  H16R22775   7.702   5.501  12.538  0.6180  0.7052 -3.4255
  185DOPC  H16S22776   7.580   5.421  12.430 -1.6549  2.2196 -2.0403
  185DOPC  C21722777   7.500   5.502  12.615 -1.4147 -0.2753 -0.6005
  185DOPC  H17R22778   7.518   5.595  12.673 -0.2615  1.5085 -3.5761
  185DOPC  H17S22779   7.518   5.405  12.666 -2.5785  0.5481  1.4820
  185DOPC  C21822780   7.352   5.495  12.587  0.1251  0.0202 -0.3044
  185DOPC  H18R22781   7.331   5.405  12.527 -0.6877  0.6936 -1.0622
  185DOPC  H18S22782   7.314   5.583  12.531 -0.4711  0.0007  0.0633
  185DOPC  H18T22783   7.293   5.492  12.681  2.8677  3.5375  1.7899
  185DOPC   C3322784   7.723   5.899  11.189 -0.5616  0.1389 -0.0596
  185DOPC   H3X22785   7.787   5.861  11.106 -0.9750 -3.0275  0.9419
  185DOPC   H3Y22786   7.779   5.862  11.277 -1.3670  1.4912  1.0626
  185DOPC   C3422787   7.708   6.052  11.198 -0.3852 -0.6165 -0.5459
  185DOPC   H4X22788   7.661   6.072  11.296 -0.2319  1.3855 -0.8498
  185DOPC   H4Y22789   7.630   6.074  11.121 -1.3113 -3.2463 -0.4720
  185DOPC   C3522790   7.839   6.131  11.177 -0.0353  0.4527 -0.5016
  185DOPC   H5X22791   7.836   6.236  11.138  1.1415  0.7478  0.1539
  185DOPC   H5Y22792   7.904   6.066  11.114 -2.2563 -2.8684  0.3882
  185DOPC   C3622793   7.913   6.164  11.308  0.2124  0.1492  0.5661
  185DOPC   H6X22794   7.836   6.210  11.373 -0.8319 -2.0384  0.9572
  185DOPC   H6Y22795   7.938   6.067  11.356  0.1073  0.5372  1.4198
  185DOPC   C3722796   8.034   6.250  11.287  0.4946  0.8357  0.0787
  185DOPC   H7X22797   8.111   6.190  11.235  0.2174  0.1705  0.4307
  185DOPC   H7Y22798   8.004   6.327  11.213  0.7060  0.2731 -0.5983
  185DOPC   C3822799   8.092   6.305  11.421  0.1137 -0.0468  0.5182
  185DOPC   H8X22800   8.198   6.336  11.407  0.8548 -0.3232  4.4022
  185DOPC   H8Y22801   8.096   6.221  11.495  2.0007  2.2562  3.2503
  185DOPC   C3922802   8.019   6.420  11.484  0.6636 -0.3881  0.6874
  185DOPC   H9X22803   7.963   6.477  11.408 -1.0102 -2.4456  0.3037
  185DOPC  C31022804   8.042   6.465  11.604  0.5537 -0.1896  0.1715
  185DOPC  H10X22805   8.009   6.564  11.639  1.1129  0.1827 -0.3492
  185DOPC  C31122806   8.124   6.395  11.709 -0.1808  0.8684  0.2921
  185DOPC  H11X22807   8.186   6.321  11.654 -2.3163 -0.5885 -0.2429
  185DOPC  H11Y22808   8.068   6.328  11.777  0.4670  0.1971  0.1821
  185DOPC  C31222809   8.200   6.492  11.789  0.3238 -0.0847 -0.4608
  185DOPC  H12X22810   8.253   6.570  11.730  0.5434  0.5710  0.5702
  185DOPC  H12Y22811   8.285   6.444  11.842 -0.7633  1.1215  2.5806
  185DOPC  C31322812   8.110   6.556  11.897 -0.6985 -1.2479 -0.6349
  185DOPC  H13X22813   8.047   6.631  11.846 -1.7308 -1.8672 -0.2945
  185DOPC  H13Y22814   8.050   6.473  11.941 -1.6947  0.4694  1.4083
  185DOPC  C31422815   8.189   6.630  12.005 -0.4416  0.1266  0.0006
  185DOPC  H14X22816   8.235   6.715  11.950  0.1409 -1.3136 -1.8398
  185DOPC  H14Y22817   8.127   6.649  12.095  1.9703 -0.5108  1.9112
  185DOPC  C31522818   8.302   6.547  12.063  0.1648  0.6432 -0.8093
  185DOPC  H15X22819   8.367   6.605  12.133 -0.8008  0.9523 -0.1522
  185DOPC  H15Y22820   8.374   6.513  11.986  0.0730  0.8542 -0.9890
  185DOPC  C31622821   8.246   6.430  12.151  0.4861 -0.8395 -0.1625
  185DOPC  H16X22822   8.156   6.462  12.209  0.0495  0.1243 -1.3403
  185DOPC  H16Y22823   8.217   6.340  12.093  1.0149 -2.8184  2.4392
  185DOPC  C31722824   8.347   6.384  12.258  0.2699 -0.4444  0.2628
  185DOPC  H17X22825   8.441   6.378  12.200 -0.3632 -2.9489 -0.6664
  185DOPC  H17Y22826   8.361   6.454  12.343  0.9866  0.9460 -0.9601
  185DOPC  C31822827   8.317   6.254  12.329 -0.1578 -0.1172  0.1940
  185DOPC  H18X22828   8.211   6.254  12.362 -0.5267  1.1467 -0.9024
  185DOPC  H18Y22829   8.339   6.168  12.261 -3.8980  0.5474 -2.1272
  185DOPC  H18Z22830   8.383   6.252  12.418  0.3967 -0.7135 -0.2156
  186DOPC     N22831   0.247   2.649  11.064 -0.1268  0.3240 -0.0521
  186DOPC   C1222832   0.373   2.574  11.083 -0.5733  0.3045 -0.2848
  186DOPC  H12A22833   0.424   2.595  11.176  1.4609 -1.6497 -0.8695
  186DOPC  H12B22834   0.444   2.599  11.006 -0.0155 -0.3060  0.0224
  186DOPC   C1322835   0.241   2.669  10.912  1.1088  0.2053  0.1011
  186DOPC  H13A22836   0.236   2.574  10.860 -0.2058 -0.0407  0.6425
  186DOPC  H13B22837   0.148   2.719  10.891 -0.5127 -2.3090  0.8494
  186DOPC  H13C22838   0.323   2.734  10.885  0.1079  1.5088  0.1559
  186DOPC   C1422839   0.251   2.785  11.118 -0.0076 -0.2722 -0.1571
  186DOPC  H14A22840   0.176   2.855  11.084 -0.2885 -0.1654  0.6711
  186DOPC  H14B22841   0.254   2.789  11.226 -2.0954  0.9853 -0.0850
  186DOPC  H14C22842   0.339   2.831  11.075 -1.0908  1.7435 -0.3651
  186DOPC   C1522843   0.125   2.578  11.106 -0.0029  0.0640 -0.2331
  186DOPC  H15A22844   0.139   2.476  11.074  0.4178  0.4052 -1.1704
  186DOPC  H15B22845   0.038   2.616  11.054 -1.4999 -0.6032  1.6674
  186DOPC  H15C22846   0.111   2.588  11.213  1.2587 -0.2576 -0.0165
  186DOPC   C1122847   0.377   2.421  11.064  0.1784  0.0142 -0.2451
  186DOPC  H11A22848   0.481   2.384  11.080  1.3229  2.7701 -0.6295
  186DOPC  H11B22849   0.310   2.370  11.136  0.9350 -1.7362 -0.7340
  186DOPC     P22850   0.247   2.282  10.883  0.2492  0.1233  0.3253
  186DOPC   O1322851   0.320   2.158  10.917 -0.0753 -0.6026 -0.1185
  186DOPC   O1422852   0.194   2.296  10.746 -0.9464 -0.3006  0.4554
  186DOPC   O1222853   0.341   2.402  10.923 -0.3627 -0.3901 -0.2280
  186DOPC   O1122854   0.130   2.299  10.984  0.2226 -0.4081  0.4555
  186DOPC    C122855   0.045   2.189  11.019  0.2551 -0.0294  0.1827
  186DOPC    HA22856   0.103   2.096  11.041 -0.2819 -0.1741  1.0325
  186DOPC    HB22857  -0.028   2.159  10.942  0.8724 -0.2944 -0.3083
  186DOPC    C222858  -0.026   2.202  11.155 -0.5368 -0.5292 -0.7895
  186DOPC    HS22859  -0.091   2.115  11.180  0.0439 -0.7398  0.0556
  186DOPC   O2122860  -0.100   2.326  11.176 -0.2684 -0.3155 -0.0118
  186DOPC   C2122861  -0.214   2.317  11.118  0.5601  0.3889  0.3318
  186DOPC   O2222862  -0.257   2.221  11.055  0.2520  0.0838  0.1245
  186DOPC   C2222863  -0.287   2.453  11.131 -0.2243  0.6056 -0.4591
  186DOPC   H2R22864  -0.241   2.531  11.065 -1.7481  1.0933 -0.9786
  186DOPC   H2S22865  -0.276   2.483  11.237  0.0078 -0.9212 -0.0291
  186DOPC    C322866   0.079   2.196  11.267 -0.2527 -0.7026  0.5126
  186DOPC    HX22867   0.134   2.293  11.264 -0.2468 -0.6649 -3.8621
  186DOPC    HY22868   0.148   2.114  11.237  0.7404  0.1766  0.3107
  186DOPC   O3122869   0.010   2.162  11.385 -0.7679  0.2464  0.0135
  186DOPC   C3122870  -0.006   2.258  11.475 -0.2561 -0.7781  0.6464
  186DOPC   O3222871   0.014   2.376  11.446 -0.6294  0.0307  0.1513
  186DOPC   C3222872  -0.050   2.209  11.609  0.5623  0.0950 -0.6315
  186DOPC   H2X22873  -0.131   2.134  11.600  0.2680  0.5699 -2.3052
  186DOPC   H2Y22874   0.032   2.158  11.664 -0.1780 -1.4604 -0.9120
  186DOPC   C2322875  -0.442   2.450  11.095  0.1395  0.2773 -0.0299
  186DOPC   H3R22876  -0.450   2.447  10.985  0.4356  0.3913 -0.0552
  186DOPC   H3S22877  -0.483   2.552  11.111  1.5431  1.2949 -2.4763
  186DOPC   C2422878  -0.531   2.350  11.176  0.3554  1.1438 -0.4669
  186DOPC   H4R22879  -0.524   2.373  11.284 -0.4889 -1.8223  0.3048
  186DOPC   H4S22880  -0.493   2.246  11.166 -0.2354  0.9080 -0.2926
  186DOPC   C2522881  -0.680   2.344  11.133 -0.1092  0.2000 -0.2325
  186DOPC   H5R22882  -0.683   2.298  11.032  2.4642  0.5798 -0.5549
  186DOPC   H5S22883  -0.730   2.443  11.122 -1.1947 -0.4550 -1.5041
  186DOPC   C2622884  -0.784   2.264  11.229  0.6467 -0.1010  0.4396
  186DOPC   H6R22885  -0.888   2.292  11.201  0.0434 -1.6024  1.0481
  186DOPC   H6S22886  -0.765   2.301  11.332  0.1914  1.0863  0.1131
  186DOPC   C2722887  -0.768   2.115  11.217  0.4094  0.8448 -0.7670
  186DOPC   H7R22888  -0.665   2.078  11.236 -0.0165 -0.5902 -1.1155
  186DOPC   H7S22889  -0.803   2.075  11.119  0.6547 -1.6781  0.1135
  186DOPC   C2822890  -0.854   2.036  11.323  0.6934 -0.5658  0.0905
  186DOPC   H8R22891  -0.960   2.057  11.300  1.4306  1.9462 -1.3838
  186DOPC   H8S22892  -0.833   2.078  11.424 -0.1572 -0.9191  0.4248
  186DOPC   C2922893  -0.830   1.891  11.316 -0.3953 -0.4260 -0.4163
  186DOPC   H9R22894  -0.819   1.852  11.214  0.4006 -0.0083 -0.5033
  186DOPC  C21022895  -0.807   1.811  11.425 -0.0489 -0.0593 -0.5368
  186DOPC  H10R22896  -0.782   1.708  11.399  3.5053  0.6197 -0.2488
  186DOPC  C21122897  -0.797   1.850  11.571 -0.9453  0.3518 -0.6255
  186DOPC  H11R22898  -0.835   1.772  11.640 -3.1546  1.8095 -0.0724
  186DOPC  H11S22899  -0.863   1.939  11.583 -0.7308  0.3614  0.6807
  186DOPC  C21222900  -0.650   1.886  11.621  0.1434  0.0122 -0.1934
  186DOPC  H12R22901  -0.611   1.966  11.554 -0.3371  1.0554  0.7490
  186DOPC  H12S22902  -0.586   1.796  11.620 -2.4785 -2.1138  2.6287
  186DOPC  C21322903  -0.647   1.946  11.767  0.2448  0.2822 -0.0248
  186DOPC  H13R22904  -0.727   2.022  11.761  0.4678  0.4983 -0.2687
  186DOPC  H13S22905  -0.548   1.987  11.795  1.8450 -2.6425 -0.8835
  186DOPC  C21422906  -0.682   1.836  11.875 -0.5876 -0.2295 -0.0806
  186DOPC  H14R22907  -0.620   1.744  11.873 -0.1072  0.0922 -0.0754
  186DOPC  H14S22908  -0.784   1.796  11.858 -1.1314 -0.0177  2.3350
  186DOPC  C21522909  -0.659   1.896  12.023  0.3666 -0.4297 -0.2831
  186DOPC  H15R22910  -0.712   1.993  12.040  1.6236  0.0904  0.7871
  186DOPC  H15S22911  -0.551   1.907  12.042  0.8151 -3.7605 -0.4235
  186DOPC  C21622912  -0.708   1.792  12.125  0.4529 -0.0547 -0.6314
  186DOPC  H16R22913  -0.666   1.690  12.108  1.9342  0.2031  1.1116
  186DOPC  H16S22914  -0.818   1.792  12.115  0.3158  1.1356  0.6411
  186DOPC  C21722915  -0.669   1.843  12.265  0.6693  0.1220  0.1401
  186DOPC  H17R22916  -0.731   1.925  12.308  3.1973  1.9556  0.5328
  186DOPC  H17S22917  -0.569   1.890  12.259 -0.0208  1.6253 -0.1438
  186DOPC  C21822918  -0.689   1.730  12.372  0.4271  0.0952  1.1358
  186DOPC  H18R22919  -0.616   1.744  12.455  1.5784 -0.5138  0.2503
  186DOPC  H18S22920  -0.653   1.638  12.321 -0.4832  0.9706 -1.1905
  186DOPC  H18T22921  -0.794   1.715  12.405 -0.5952 -1.2569 -2.2780
  186DOPC   C3322922  -0.112   2.319  11.698 -0.4611 -0.1286 -0.7285
  186DOPC   H3X22923  -0.203   2.358  11.648 -0.6566  1.0587  0.4904
  186DOPC   H3Y22924  -0.041   2.401  11.722 -1.6969  0.5133  0.9737
  186DOPC   C3422925  -0.166   2.256  11.832 -0.5308  0.0603  0.0654
  186DOPC   H4X22926  -0.083   2.198  11.877  0.2473 -0.7850 -2.3090
  186DOPC   H4Y22927  -0.239   2.179  11.801 -0.1076 -0.8716  1.2714
  186DOPC   C3522928  -0.230   2.353  11.931 -0.2198  0.8205 -0.1922
  186DOPC   H5X22929  -0.302   2.422  11.883 -0.6846  0.6927  0.3131
  186DOPC   H5Y22930  -0.147   2.414  11.972  0.1950  1.2608 -1.6237
  186DOPC   C3622931  -0.304   2.278  12.048  0.2741  0.0593 -0.2807
  186DOPC   H6X22932  -0.386   2.346  12.082 -0.6860 -1.2349  0.0659
  186DOPC   H6Y22933  -0.358   2.186  12.019  0.8522 -0.3604 -0.0462
  186DOPC   C3722934  -0.226   2.247  12.172 -0.1371  0.2535  0.7798
  186DOPC   H7X22935  -0.134   2.194  12.136  1.0691  2.0746  1.0377
  186DOPC   H7Y22936  -0.202   2.343  12.221 -0.5043 -0.5459  2.5991
  186DOPC   C3822937  -0.309   2.176  12.281 -0.2264  0.1442  0.5742
  186DOPC   H8X22938  -0.334   2.075  12.240 -1.1301  0.3837  0.5029
  186DOPC   H8Y22939  -0.397   2.240  12.302  0.7986  1.1546  1.9612
  186DOPC   C3922940  -0.229   2.160  12.402  0.3175 -0.4470  0.1414
  186DOPC   H9X22941  -0.146   2.230  12.416 -0.3574  0.2738  0.5858
  186DOPC  C31022942  -0.227   2.049  12.477  0.6151 -0.8724 -0.1189
  186DOPC  H10X22943  -0.164   2.051  12.567 -0.8650  0.3545  0.9269
  186DOPC  C31122944  -0.326   1.934  12.461 -0.1147 -0.0102 -0.7720
  186DOPC  H11X22945  -0.267   1.849  12.421  0.6921 -0.4300  1.1681
  186DOPC  H11Y22946  -0.404   1.950  12.384  1.5945 -0.2433 -2.6526
  186DOPC  C31222947  -0.384   1.898  12.601  0.5232  0.0993  0.0873
  186DOPC  H12X22948  -0.310   1.857  12.673  1.2250 -0.6209 -1.0042
  186DOPC  H12Y22949  -0.446   1.806  12.589 -2.3137  1.6773  1.7169
  186DOPC  C31322950  -0.470   2.001  12.674 -0.0447  0.1617 -0.0830
  186DOPC  H13X22951  -0.403   2.070  12.731  0.4334  1.1291 -1.7387
  186DOPC  H13Y22952  -0.534   2.057  12.604 -0.1217 -0.4133 -0.4798
  186DOPC  C31422953  -0.573   1.941  12.770 -0.0621 -0.5205 -0.6724
  186DOPC  H14X22954  -0.640   1.878  12.708 -0.2353 -2.0272  0.9600
  186DOPC  H14Y22955  -0.524   1.874  12.843 -0.1379  1.0345  0.8829
  186DOPC  C31522956  -0.641   2.050  12.867  0.4255  0.3347 -0.6753
  186DOPC  H15X22957  -0.569   2.102  12.934  0.4588  0.0042 -0.4509
  186DOPC  H15Y22958  -0.700   1.993  12.941  2.5467 -1.7534 -0.4696
  186DOPC  C31622959  -0.741   2.139  12.794 -0.8019 -0.0348  0.0490
  186DOPC  H16X22960  -0.685   2.223  12.748 -0.6447  0.8277  1.7371
  186DOPC  H16Y22961  -0.782   2.080  12.710 -0.7866 -1.3763  0.9500
  186DOPC  C31722962  -0.854   2.198  12.885  0.8394  0.3221 -0.9981
  186DOPC  H17X22963  -0.908   2.111  12.929  0.7425  0.5557 -0.6464
  186DOPC  H17Y22964  -0.815   2.266  12.964 -0.9789  1.3517 -0.9275
  186DOPC  C31822965  -0.950   2.286  12.808 -0.7580  0.0518 -0.3528
  186DOPC  H18X22966  -0.897   2.382  12.796 -1.0979 -0.0035 -2.9158
  186DOPC  H18Y22967  -0.985   2.245  12.710 -1.4056  2.9470 -1.4324
  186DOPC  H18Z22968  -1.044   2.310  12.863 -0.2576  0.6445  0.2519
  187DOPC     N22969   7.779   0.197  10.627  0.2398  0.6245  0.2534
  187DOPC   C1222970   7.644   0.265  10.629  0.9377 -0.1328  0.3298
  187DOPC  H12A22971   7.577   0.181  10.640  1.3499 -0.2748  2.1107
  187DOPC  H12B22972   7.619   0.304  10.532 -0.8221  0.7236  1.0822
  187DOPC   C1322973   7.886   0.304  10.610  0.2299 -0.0901  0.7441
  187DOPC  H13A22974   7.982   0.256  10.600  0.6710  0.9924 -0.5686
  187DOPC  H13B22975   7.862   0.361  10.521 -0.7578 -0.0291  1.0452
  187DOPC  H13C22976   7.892   0.370  10.695  1.0077  0.9914 -0.1208
  187DOPC   C1422977   7.781   0.104  10.516  0.0256 -0.3045  0.7722
  187DOPC  H14A22978   7.756   0.144  10.419 -1.4402 -0.7805  0.9126
  187DOPC  H14B22979   7.878   0.057  10.505 -0.0796 -0.4020  0.2252
  187DOPC  H14C22980   7.706   0.026  10.531  1.3986 -1.8069  0.1161
  187DOPC   C1522981   7.810   0.122  10.750  0.5058 -0.6579 -0.4879
  187DOPC  H15A22982   7.895   0.056  10.739  0.2363 -1.2214  0.7010
  187DOPC  H15B22983   7.729   0.058  10.780 -0.1352  0.6901  0.7061
  187DOPC  H15C22984   7.851   0.193  10.820  1.7003 -2.4831  0.7522
  187DOPC   C1122985   7.605   0.364  10.738 -0.4616  1.3573 -0.2974
  187DOPC  H11A22986   7.497   0.388  10.734 -0.9213 -0.5293 -0.3005
  187DOPC  H11B22987   7.628   0.326  10.839 -0.0579 -4.2528 -2.1194
  187DOPC     P22988   7.640   0.596  10.617  0.6562 -0.3399 -0.2743
  187DOPC   O1322989   7.580   0.540  10.495  0.5687  0.2552 -0.6573
  187DOPC   O1422990   7.748   0.700  10.606  0.0607 -0.0089  0.0910
  187DOPC   O1222991   7.679   0.482  10.712  0.6236  0.5552  0.7274
  187DOPC   O1122992   7.524   0.660  10.698  0.7629  0.4523 -0.2168
  187DOPC    C122993   7.515   0.659  10.845 -0.2905  0.7093  0.0485
  187DOPC    HA22994   7.595   0.727  10.881  0.3088 -0.3812  0.8386
  187DOPC    HB22995   7.525   0.556  10.885  0.7690  0.6342 -0.3624
  187DOPC    C222996   7.375   0.721  10.880 -0.6134  0.0259 -0.5577
  187DOPC    HS22997   7.299   0.664  10.823 -1.7219  0.7898  0.1137
  187DOPC   O2122998   7.375   0.863  10.848  0.1973  0.1061  0.4939
  187DOPC   C2122999   7.252   0.917  10.858 -0.0525 -0.1425  0.1990
  187DOPC   O2223000   7.153   0.853  10.884  0.7477 -0.0036  0.2089
  187DOPC   C2223001   7.256   1.066  10.835 -0.0176 -0.1484 -0.4334
  187DOPC   H2R23002   7.163   1.112  10.874  0.0892 -0.6971  0.5071
  187DOPC   H2S23003   7.254   1.079  10.725 -2.3523  0.5119 -0.3556
  187DOPC    C323004   7.349   0.685  11.034  0.1436 -0.4156 -0.2002
  187DOPC    HX23005   7.360   0.575  11.045 -2.3915 -0.6542  0.5253
  187DOPC    HY23006   7.246   0.707  11.068  0.1477  0.1105 -0.5234
  187DOPC   O3123007   7.427   0.765  11.129 -0.4277  0.4087 -0.0364
  187DOPC   C3123008   7.550   0.727  11.164 -0.0639  0.2139  0.3619
  187DOPC   O3223009   7.603   0.624  11.144 -0.3180 -0.2703 -0.4537
  187DOPC   C3223010   7.600   0.836  11.250  0.0795 -0.3034  0.0514
  187DOPC   H2X23011   7.624   0.929  11.195  3.4624  0.0458  1.8406
  187DOPC   H2Y23012   7.514   0.865  11.315  0.7130 -0.2379  0.8876
  187DOPC   C2323013   7.378   1.139  10.898  0.2484  0.4573  0.5815
  187DOPC   H3R23014   7.478   1.106  10.862  0.5970  2.2055 -0.1391
  187DOPC   H3S23015   7.379   1.125  11.009 -0.1461  1.3117  0.6989
  187DOPC   C2423016   7.373   1.296  10.860  0.2985 -0.0566  0.2330
  187DOPC   H4R23017   7.276   1.341  10.889  0.1097  0.4895 -1.1700
  187DOPC   H4S23018   7.372   1.296  10.749  2.1861 -1.7287  0.1480
  187DOPC   C2523019   7.502   1.373  10.909  0.8794 -0.0086 -0.0080
  187DOPC   H5R23020   7.481   1.475  10.871 -0.6373  0.8105  2.7231
  187DOPC   H5S23021   7.597   1.335  10.867  1.5340  1.0781  0.4670
  187DOPC   C2623022   7.505   1.381  11.067 -0.4147 -0.2729  0.1701
  187DOPC   H6R23023   7.475   1.282  11.109  0.3507 -1.5797 -2.1434
  187DOPC   H6S23024   7.421   1.445  11.100 -1.1478 -0.0269 -1.9801
  187DOPC   C2723025   7.643   1.421  11.134  0.3712  0.4684  0.4975
  187DOPC   H7R23026   7.662   1.527  11.107  0.7889  0.9380  2.4536
  187DOPC   H7S23027   7.717   1.356  11.084  0.5906  0.9295  0.2169
  187DOPC   C2823028   7.652   1.402  11.286  0.0923  0.7309 -0.4561
  187DOPC   H8R23029   7.580   1.475  11.328 -0.7110 -0.2590 -0.0493
  187DOPC   H8S23030   7.756   1.423  11.321 -0.8285  0.1769  2.9573
  187DOPC   C2923031   7.621   1.260  11.332  0.5697 -0.9759  0.5069
  187DOPC   H9R23032   7.653   1.188  11.256 -2.8797 -0.5415 -1.5657
  187DOPC  C21023033   7.533   1.224  11.430  1.2376  0.1700  0.2758
  187DOPC  H10R23034   7.482   1.127  11.422 -0.2531  1.0135 -1.0725
  187DOPC  C21123035   7.465   1.310  11.535  0.7300  0.4979  0.2888
  187DOPC  H11R23036   7.512   1.405  11.567 -0.3805  0.5200  1.9842
  187DOPC  H11S23037   7.456   1.243  11.623  2.1536  1.3397  1.1050
  187DOPC  C21223038   7.325   1.357  11.479  0.2835  0.3052  0.0674
  187DOPC  H12R23039   7.346   1.415  11.387  0.4266 -3.1081 -2.2365
  187DOPC  H12S23040   7.280   1.421  11.558 -0.3000 -0.4060  0.3284
  187DOPC  C21323041   7.221   1.250  11.445 -0.8850 -0.4671 -0.0526
  187DOPC  H13R23042   7.193   1.204  11.543 -0.0585 -0.4745  0.1944
  187DOPC  H13S23043   7.262   1.177  11.371  0.9998  0.7549 -0.2805
  187DOPC  C21423044   7.093   1.310  11.396  0.2697 -0.2044  0.8061
  187DOPC  H14R23045   7.115   1.358  11.298  2.9458  1.0144  1.9122
  187DOPC  H14S23046   7.071   1.395  11.464 -0.4448 -0.5459  1.0159
  187DOPC  C21523047   6.982   1.207  11.372 -0.1415 -0.0186  0.2693
  187DOPC  H15R23048   7.031   1.122  11.320  2.3510  0.8320  1.0935
  187DOPC  H15S23049   6.908   1.258  11.306  1.0023  1.0353 -0.2360
  187DOPC  C21623050   6.925   1.145  11.495  0.2168  0.3952 -0.1428
  187DOPC  H16R23051   6.868   1.224  11.548 -1.9333 -1.1808  0.0367
  187DOPC  H16S23052   7.003   1.102  11.561 -0.2570  1.3313  1.0697
  187DOPC  C21723053   6.827   1.030  11.471  0.0907  0.1881 -0.1847
  187DOPC  H17R23054   6.758   1.059  11.389 -2.6770  1.6195  2.4546
  187DOPC  H17S23055   6.770   1.016  11.565 -0.6523  3.3535 -0.0694
  187DOPC  C21823056   6.901   0.901  11.428  0.0146  0.0884  0.1054
  187DOPC  H18R23057   6.991   0.886  11.491  0.1242 -1.1731 -0.3191
  187DOPC  H18S23058   6.947   0.911  11.327  2.3199  0.6080  1.1508
  187DOPC  H18T23059   6.842   0.807  11.435  0.8305 -0.3303  2.0435
  187DOPC   C3323060   7.713   0.796  11.349 -0.3825 -0.6708 -0.7839
  187DOPC   H3X23061   7.808   0.767  11.298  0.0250 -1.3118  0.3003
  187DOPC   H3Y23062   7.682   0.707  11.408 -0.4537 -0.1687 -0.0511
  187DOPC   C3423063   7.747   0.915  11.436  0.7500  0.1105 -1.1843
  187DOPC   H4X23064   7.656   0.951  11.487 -0.1393 -1.0723 -1.8911
  187DOPC   H4Y23065   7.785   1.003  11.379  1.6274  1.5471  1.4381
  187DOPC   C3523066   7.834   0.871  11.552 -0.2082  0.7601 -0.5021
  187DOPC   H5X23067   7.906   0.949  11.584 -0.2031 -0.2900  2.3530
  187DOPC   H5Y23068   7.898   0.792  11.509  0.0381  0.9488 -0.4837
  187DOPC   C3623069   7.756   0.817  11.673 -0.1808  0.0808 -0.2940
  187DOPC   H6X23070   7.682   0.894  11.700 -1.1602 -0.9236 -0.0244
  187DOPC   H6Y23071   7.709   0.721  11.642  1.5722 -0.3926 -1.6241
  187DOPC   C3723072   7.842   0.780  11.791  0.4805 -0.3509 -0.5374
  187DOPC   H7X23073   7.780   0.710  11.851 -0.8350 -1.3291 -2.8841
  187DOPC   H7Y23074   7.928   0.724  11.748 -0.6487 -4.5901  2.1031
  187DOPC   C3823075   7.895   0.905  11.867  0.2781 -0.0958  0.2565
  187DOPC   H8X23076   7.815   0.981  11.876 -0.3050 -0.5524 -0.8559
  187DOPC   H8Y23077   7.965   0.953  11.796 -0.9363 -0.8317 -1.5115
  187DOPC   C3923078   7.959   0.860  11.995  0.4581 -0.7807  0.0452
  187DOPC   H9X23079   8.069   0.856  11.989  0.4249 -0.5927 -0.8001
  187DOPC  C31023080   7.903   0.840  12.118 -0.5097  0.7500 -0.0027
  187DOPC  H10X23081   7.965   0.783  12.188  0.1441 -1.0859 -1.9632
  187DOPC  C31123082   7.756   0.844  12.150 -0.2269 -0.2892  0.7851
  187DOPC  H11X23083   7.707   0.746  12.170 -2.1611  0.3898 -0.3241
  187DOPC  H11Y23084   7.706   0.876  12.056 -0.1578 -0.0061  0.8449
  187DOPC  C31223085   7.726   0.942  12.264 -0.4598 -0.0592  0.3809
  187DOPC  H12X23086   7.617   0.964  12.276 -0.5327  0.8762 -1.5951
  187DOPC  H12Y23087   7.769   1.039  12.233 -1.1585  0.3076  0.5224
  187DOPC  C31323088   7.771   0.886  12.399 -0.1592 -0.2372  0.0175
  187DOPC  H13X23089   7.730   0.783  12.407 -2.7362  0.7961  1.2074
  187DOPC  H13Y23090   7.881   0.899  12.404 -0.1219 -0.3229 -0.5090
  187DOPC  C31423091   7.719   0.964  12.522 -0.2136  0.3829 -0.3134
  187DOPC  H14X23092   7.609   0.974  12.513 -0.2703  1.6874  1.3604
  187DOPC  H14Y23093   7.729   0.900  12.612 -4.4271  0.3194  0.3070
  187DOPC  C31523094   7.773   1.104  12.544 -0.4506 -0.7016 -0.0346
  187DOPC  H15X23095   7.725   1.144  12.636 -0.2609  0.7118 -0.5240
  187DOPC  H15Y23096   7.742   1.171  12.461 -2.6947 -1.7584 -0.1346
  187DOPC  C31623097   7.924   1.109  12.580  0.2988 -0.5074 -0.3266
  187DOPC  H16X23098   7.983   1.076  12.492  1.5953  0.9015 -0.0305
  187DOPC  H16Y23099   7.955   1.215  12.594  0.6634 -0.5056 -1.1274
  187DOPC  C31723100   7.965   1.032  12.704 -0.7002 -0.4194  0.2014
  187DOPC  H17X23101   7.917   1.089  12.786 -0.6937 -0.0079 -0.0750
  187DOPC  H17Y23102   7.930   0.928  12.688 -1.3552  0.1080 -2.1624
  187DOPC  C31823103   8.118   1.045  12.730  0.4963  0.0450 -0.3459
  187DOPC  H18X23104   8.142   0.976  12.814 -0.5588 -1.1413 -0.9806
  187DOPC  H18Y23105   8.174   1.015  12.639  1.1760  1.8367 -0.5565
  187DOPC  H18Z23106   8.132   1.150  12.764 -1.4845 -0.2061  1.4592
  188DOPC     N23107   4.126   0.775  10.951  0.1457  0.3859  0.6004
  188DOPC   C1223108   4.090   0.859  10.830  0.0676 -0.3600 -0.0447
  188DOPC  H12A23109   4.066   0.788  10.752  1.7311 -1.4252  0.3426
  188DOPC  H12B23110   4.188   0.897  10.804  1.0176 -0.9033  2.5208
  188DOPC   C1323111   4.211   0.659  10.914 -0.2749  0.3576 -0.0110
  188DOPC  H13A23112   4.311   0.691  10.889 -0.5159  2.1460  1.1281
  188DOPC  H13B23113   4.217   0.586  10.994  2.7736  0.7935  0.2905
  188DOPC  H13C23114   4.176   0.606  10.827 -0.8231 -0.3959  0.6490
  188DOPC   C1423115   3.993   0.720  11.007 -0.0527 -0.3801  0.1283
  188DOPC  H14A23116   3.930   0.664  10.940 -0.9835  1.8096 -0.9438
  188DOPC  H14B23117   4.008   0.672  11.102 -0.3124 -0.3419  0.1891
  188DOPC  H14C23118   3.933   0.808  11.025  0.5726 -0.3378  2.2155
  188DOPC   C1523119   4.194   0.853  11.065  0.2139  0.0632 -0.5241
  188DOPC  H15A23120   4.286   0.903  11.038  1.6563 -1.1695  1.7985
  188DOPC  H15B23121   4.225   0.781  11.140  0.2002  0.5657 -0.0269
  188DOPC  H15C23122   4.124   0.920  11.113  1.6330  0.7939  0.5998
  188DOPC   C1123123   3.993   0.980  10.843 -0.3525 -0.0476 -0.1549
  188DOPC  H11A23124   4.023   1.049  10.924 -1.6834 -1.0549  1.2725
  188DOPC  H11B23125   4.010   1.040  10.751 -0.4792  2.1395  1.1876
  188DOPC     P23126   3.767   0.864  10.760 -0.2863 -0.0995  0.1344
  188DOPC   O1323127   3.835   0.753  10.685 -0.2578 -0.0688 -0.5898
  188DOPC   O1423128   3.704   0.966  10.672  0.9733  0.9393 -0.2743
  188DOPC   O1223129   3.865   0.936  10.866  0.1790  0.3672  0.2450
  188DOPC   O1123130   3.660   0.802  10.854  0.6103 -0.0428  0.2095
  188DOPC    C123131   3.566   0.899  10.915 -0.3139 -0.3407 -0.0423
  188DOPC    HA23132   3.507   0.943  10.832  0.9491 -2.6719 -2.3210
  188DOPC    HB23133   3.615   0.981  10.972  0.6078 -0.5719 -0.4829
  188DOPC    C223134   3.471   0.822  11.003 -0.4465 -0.1788 -1.2419
  188DOPC    HS23135   3.401   0.895  11.051  0.0278 -1.7379  2.0949
  188DOPC   O2123136   3.551   0.745  11.098  0.3163  0.0625  0.2253
  188DOPC   C2123137   3.560   0.814  11.212 -0.1446 -0.0635 -0.5676
  188DOPC   O2223138   3.515   0.926  11.237  0.2005  0.1013 -0.2872
  188DOPC   C2223139   3.640   0.737  11.315  0.8875 -0.2347  0.0122
  188DOPC   H2R23140   3.750   0.743  11.298  0.9548  0.0199  0.4932
  188DOPC   H2S23141   3.623   0.629  11.299 -1.2036  0.3357 -2.1265
  188DOPC    C323142   3.393   0.725  10.910  0.2966 -0.0919 -0.3060
  188DOPC    HX23143   3.457   0.638  10.884 -0.5392 -0.4915 -1.0587
  188DOPC    HY23144   3.364   0.772  10.814  0.8706  1.2799  0.1615
  188DOPC   O3123145   3.275   0.677  10.980 -0.4044  0.4194 -0.1493
  188DOPC   C3123146   3.164   0.743  10.956 -0.2592 -0.5645  0.0065
  188DOPC   O3223147   3.150   0.839  10.884 -0.3006 -0.7175 -0.2592
  188DOPC   C3223148   3.050   0.683  11.032  1.0961 -0.0551 -1.0946
  188DOPC   H2X23149   2.987   0.770  11.062 -0.2814 -1.0932 -0.9161
  188DOPC   H2Y23150   2.992   0.624  10.959 -0.1789  0.6959 -0.7206
  188DOPC   C2323151   3.604   0.776  11.466  0.2266  0.6866 -0.5494
  188DOPC   H3R23152   3.604   0.886  11.481 -0.8216  0.7722 -1.0983
  188DOPC   H3S23153   3.682   0.736  11.534  0.1377  3.8748  1.6652
  188DOPC   C2423154   3.473   0.728  11.519  0.0088 -0.8649 -0.7563
  188DOPC   H4R23155   3.469   0.618  11.530  0.8956 -0.8143  0.2027
  188DOPC   H4S23156   3.389   0.769  11.458  1.0312  0.9104 -1.0505
  188DOPC   C2523157   3.445   0.774  11.664 -0.1154  0.0900 -0.9116
  188DOPC   H5R23158   3.438   0.884  11.672 -0.0758  0.0600 -0.4384
  188DOPC   H5S23159   3.517   0.732  11.737 -2.4470 -1.2466  0.7329
  188DOPC   C2623160   3.310   0.721  11.727  0.9193  0.2768  0.5707
  188DOPC   H6R23161   3.307   0.610  11.740  0.0254  0.1511 -0.5280
  188DOPC   H6S23162   3.236   0.749  11.650  1.1403  0.2109  0.3312
  188DOPC   C2723163   3.263   0.799  11.849 -0.1968 -0.2240  0.3726
  188DOPC   H7R23164   3.274   0.905  11.817  0.0029 -1.2234 -3.3449
  188DOPC   H7S23165   3.334   0.782  11.932 -1.1655  3.0701  2.0632
  188DOPC   C2823166   3.119   0.771  11.894  0.0127  0.2088 -0.0610
  188DOPC   H8R23167   3.052   0.779  11.805 -0.2435 -1.1682 -0.0078
  188DOPC   H8S23168   3.098   0.855  11.964  0.1072 -1.3534  1.9250
  188DOPC   C2923169   3.103   0.638  11.958 -0.0492  0.2808 -0.1435
  188DOPC   H9R23170   3.196   0.594  11.999  0.5633  0.5715 -1.1979
  188DOPC  C21023171   2.980   0.587  11.979 -0.4634  0.7028  0.0116
  188DOPC  H10R23172   2.971   0.497  12.042 -0.2700 -0.0524 -1.0140
  188DOPC  C21123173   2.844   0.610  11.918 -0.8218 -0.7997  0.2560
  188DOPC  H11R23174   2.848   0.666  11.822  1.4526 -0.2840  0.6065
  188DOPC  H11S23175   2.787   0.681  11.982 -3.4628 -2.5088 -0.0232
  188DOPC  C21223176   2.752   0.483  11.896  0.1118 -0.6417 -0.2395
  188DOPC  H12R23177   2.726   0.453  12.000 -2.1885  3.3248  0.5427
  188DOPC  H12S23178   2.809   0.399  11.853  0.9613 -0.3633  0.3237
  188DOPC  C21323179   2.622   0.497  11.827 -0.1514 -0.3824 -0.4701
  188DOPC  H13R23180   2.633   0.558  11.734  1.1255  1.3951  0.7808
  188DOPC  H13S23181   2.550   0.538  11.901  0.2200 -0.2647 -0.1714
  188DOPC  C21423182   2.568   0.363  11.760  0.2533  0.0258 -0.1542
  188DOPC  H14R23183   2.601   0.281  11.828  0.0377  1.5552  1.9083
  188DOPC  H14S23184   2.623   0.342  11.666 -1.4642 -0.2981 -1.1238
  188DOPC  C21523185   2.417   0.377  11.735 -0.1006  0.1269  0.1222
  188DOPC  H15R23186   2.373   0.411  11.831 -0.4578  0.2745 -0.0911
  188DOPC  H15S23187   2.374   0.279  11.702  0.4307  0.4603 -1.6907
  188DOPC  C21623188   2.393   0.475  11.624 -0.9664  0.0841 -0.3358
  188DOPC  H16R23189   2.457   0.459  11.535  0.2185 -0.2188  0.5492
  188DOPC  H16S23190   2.412   0.580  11.654  1.0250 -0.7146  1.4202
  188DOPC  C21723191   2.252   0.474  11.568  0.1223 -0.1263 -0.1291
  188DOPC  H17R23192   2.181   0.515  11.643 -0.0221 -0.4014 -0.1122
  188DOPC  H17S23193   2.221   0.369  11.548 -0.7618 -0.4797  2.6760
  188DOPC  C21823194   2.226   0.559  11.446 -0.3441 -0.1921 -0.6440
  188DOPC  H18R23195   2.249   0.668  11.451 -1.4353  0.0660 -1.0861
  188DOPC  H18S23196   2.118   0.550  11.426 -0.8702  1.8344  0.9337
  188DOPC  H18T23197   2.281   0.516  11.359 -1.0934  1.4188 -1.9723
  188DOPC   C3323198   3.101   0.599  11.155 -0.2306  0.3963 -0.2866
  188DOPC   H3X23199   3.167   0.515  11.124 -0.5990  0.0128 -0.0450
  188DOPC   H3Y23200   3.010   0.547  11.192  1.4616 -2.0750  0.6440
  188DOPC   C3423201   3.170   0.669  11.271 -0.4300 -0.0973  0.3077
  188DOPC   H4X23202   3.263   0.710  11.226 -1.3245  0.9287 -0.6956
  188DOPC   H4Y23203   3.216   0.593  11.336 -0.3124 -0.7320 -0.4960
  188DOPC   C3523204   3.092   0.778  11.337  0.6033  0.3222 -0.0001
  188DOPC   H5X23205   3.072   0.870  11.278  0.0651  0.7421  0.8105
  188DOPC   H5Y23206   3.142   0.823  11.426 -0.3240  2.4432 -0.4692
  188DOPC   C3623207   2.957   0.725  11.396 -0.6191 -0.8627  0.1569
  188DOPC   H6X23208   2.911   0.681  11.305 -1.4605  1.6060 -0.6923
  188DOPC   H6Y23209   2.978   0.643  11.468  0.8290 -1.0463 -0.4429
  188DOPC   C3723210   2.875   0.833  11.460  0.3993  0.7556 -0.2936
  188DOPC   H7X23211   2.905   0.823  11.567  1.1006 -2.2021 -0.6733
  188DOPC   H7Y23212   2.899   0.935  11.425  0.5799  0.6699 -0.4180
  188DOPC   C3823213   2.732   0.812  11.444  0.2475  0.2982  0.3112
  188DOPC   H8X23214   2.684   0.880  11.517  1.2444  1.5472 -0.1684
  188DOPC   H8Y23215   2.708   0.712  11.485 -2.3698  1.7653  2.7263
  188DOPC   C3923216   2.692   0.831  11.298 -0.3726  0.2892  0.4872
  188DOPC   H9X23217   2.741   0.917  11.249 -1.7962 -0.1629 -1.8647
  188DOPC  C31023218   2.629   0.739  11.219  0.2957  0.0013 -0.0815
  188DOPC  H10X23219   2.620   0.763  11.111 -1.8645 -1.8506 -0.3928
  188DOPC  C31123220   2.551   0.618  11.260  0.5443 -0.1578  0.7502
  188DOPC  H11X23221   2.443   0.634  11.240  0.5785 -1.0648 -0.2967
  188DOPC  H11Y23222   2.566   0.595  11.368 -1.4211 -0.5349  0.9831
  188DOPC  C31223223   2.578   0.496  11.173  0.3126 -0.5706 -0.6707
  188DOPC  H12X23224   2.555   0.511  11.065  0.1683 -2.7025 -0.9976
  188DOPC  H12Y23225   2.511   0.414  11.208 -0.8388  0.9980  0.9628
  188DOPC  C31323226   2.723   0.447  11.182 -0.2330  0.0737 -0.2970
  188DOPC  H13X23227   2.778   0.527  11.128  1.7714 -0.3453  1.0256
  188DOPC  H13Y23228   2.765   0.443  11.285  1.5782  0.7509 -0.9653
  188DOPC  C31423229   2.746   0.321  11.107 -0.0411 -0.0881 -0.1229
  188DOPC  H14X23230   2.685   0.240  11.154 -1.6066  0.3270 -1.3274
  188DOPC  H14Y23231   2.715   0.335  11.001  1.8850 -1.1533 -0.8709
  188DOPC  C31523232   2.895   0.281  11.092  0.5944 -0.2523  0.3697
  188DOPC  H15X23233   2.932   0.274  11.196  1.9414  0.1546 -0.0642
  188DOPC  H15Y23234   2.944   0.359  11.030  0.7669 -0.0322  0.7801
  188DOPC  C31623235   2.919   0.147  11.023  0.5292  0.0279  0.3570
  188DOPC  H16X23236   2.889   0.062  11.089  0.3819  0.1536  0.4535
  188DOPC  H16Y23237   2.865   0.136  10.926 -1.0067  1.1770  1.0501
  188DOPC  C31723238   3.068   0.125  10.980  0.5836 -0.3645 -0.1571
  188DOPC  H17X23239   3.095   0.181  10.888 -0.1959 -2.4131 -1.7166
  188DOPC  H17Y23240   3.135   0.161  11.061  0.3312  0.0821 -0.1419
  188DOPC  C31823241   3.099  -0.021  10.939 -0.1673  0.0194 -0.0720
  188DOPC  H18X23242   3.053  -0.036  10.839  2.5247  0.0891 -1.3951
  188DOPC  H18Y23243   3.206  -0.046  10.926 -0.4847 -1.7822  0.5284
  188DOPC  H18Z23244   3.038  -0.080  11.011 -0.3309 -0.7198 -0.8132
  189DOPC     N23245   4.097   1.506  10.246 -0.6981  0.2385  0.3381
  189DOPC   C1223246   4.189   1.445  10.349 -0.0878  0.4798 -0.0801
  189DOPC  H12A23247   4.291   1.458  10.317  0.3402 -1.3008  0.4294
  189DOPC  H12B23248   4.182   1.337  10.353 -2.1091  0.5611 -0.3710
  189DOPC   C1323249   4.074   1.654  10.267  0.8346  0.4354 -0.3691
  189DOPC  H13A23250   4.010   1.667  10.354  0.9874 -0.4258 -0.1174
  189DOPC  H13B23251   4.167   1.706  10.282  0.2637  1.2163  0.5783
  189DOPC  H13C23252   4.021   1.693  10.181 -1.5726 -1.9356 -0.0855
  189DOPC   C1423253   3.968   1.423  10.248 -0.5067 -0.8193  0.5157
  189DOPC  H14A23254   3.974   1.321  10.216 -0.5590 -1.4734  2.4466
  189DOPC  H14B23255   3.930   1.425  10.349  0.5779  0.2695  0.9392
  189DOPC  H14C23256   3.892   1.466  10.185  0.2651 -0.5872 -0.2850
  189DOPC   C1523257   4.163   1.483  10.113 -0.7846  0.1952  0.0684
  189DOPC  H15A23258   4.253   1.536  10.085  0.1033 -0.4387  1.5771
  189DOPC  H15B23259   4.097   1.509  10.032 -1.6839 -2.8977 -0.3250
  189DOPC  H15C23260   4.186   1.379  10.096  2.8026  0.8370  0.2341
  189DOPC   C1123261   4.188   1.494  10.495  0.7096 -1.0995 -0.4024
  189DOPC  H11A23262   4.280   1.445  10.534  1.5311  0.4026 -0.4152
  189DOPC  H11B23263   4.193   1.604  10.507 -0.4751 -0.7637 -2.4836
  189DOPC     P23264   3.944   1.531  10.592 -0.1409  0.3756  0.3373
  189DOPC   O1323265   3.828   1.479  10.520 -0.2870 -0.3575 -0.0948
  189DOPC   O1423266   3.973   1.675  10.576  0.2293  0.0710 -0.6081
  189DOPC   O1223267   4.069   1.443  10.550 -0.3379  0.3240 -0.1887
  189DOPC   O1123268   3.930   1.494  10.743  0.5749 -0.4840  0.3764
  189DOPC    C123269   3.932   1.360  10.774  0.3713  0.3275  0.4912
  189DOPC    HA23270   4.033   1.314  10.763  0.5002  0.6535  0.2925
  189DOPC    HB23271   3.859   1.300  10.716  0.5714 -0.4072  0.9831
  189DOPC    C223272   3.891   1.348  10.920 -0.3359  0.3985  0.2508
  189DOPC    HS23273   3.908   1.242  10.950  3.5800  1.2660  1.7259
  189DOPC   O2123274   3.756   1.383  10.948  0.4046 -0.1336 -0.0619
  189DOPC   C2123275   3.697   1.337  11.057 -0.2813  0.3006 -0.9692
  189DOPC   O2223276   3.729   1.230  11.111  0.5498 -0.4746 -0.1320
  189DOPC   C2223277   3.593   1.434  11.113  0.5109  0.1142 -0.1439
  189DOPC   H2R23278   3.496   1.405  11.067  0.5170 -1.1591  0.5795
  189DOPC   H2S23279   3.632   1.535  11.086  2.1343 -0.5473 -0.4463
  189DOPC    C323280   3.999   1.434  11.004  0.6028  0.0529 -0.1382
  189DOPC    HX23281   3.990   1.544  10.995 -0.0214 -0.1306 -2.4600
  189DOPC    HY23282   4.102   1.418  10.964 -0.3949 -2.8928 -1.8773
  189DOPC   O3123283   3.991   1.392  11.149  0.4640 -0.4041  0.5004
  189DOPC   C3123284   4.060   1.276  11.173 -0.0328 -0.2049 -0.2946
  189DOPC   O3223285   4.119   1.214  11.089 -0.2226 -0.1578  0.2300
  189DOPC   C3223286   4.043   1.232  11.318  0.3806  0.0062  0.4467
  189DOPC   H2X23287   4.025   1.324  11.378 -0.5945  0.4112 -0.4311
  189DOPC   H2Y23288   3.952   1.169  11.323  0.6622 -0.2897  2.9328
  189DOPC   C2323289   3.565   1.420  11.270  0.3117 -0.2118 -0.8757
  189DOPC   H3R23290   3.548   1.315  11.302  0.0387  0.0663 -0.0562
  189DOPC   H3S23291   3.468   1.467  11.300 -0.1978 -2.0024  0.4956
  189DOPC   C2423292   3.678   1.484  11.357  0.4168 -0.4634 -0.4825
  189DOPC   H4R23293   3.704   1.577  11.302  0.2077  1.0333  1.8438
  189DOPC   H4S23294   3.762   1.411  11.355 -0.4065 -1.4954  1.1825
  189DOPC   C2523295   3.629   1.505  11.503 -0.3352  1.0634 -0.3766
  189DOPC   H5R23296   3.625   1.404  11.548  0.4870  2.0911  2.1961
  189DOPC   H5S23297   3.528   1.548  11.523 -0.6256  0.5154 -0.6543
  189DOPC   C2623298   3.740   1.579  11.580  0.2954 -0.0493  0.0054
  189DOPC   H6R23299   3.695   1.610  11.677 -1.8296 -0.1044 -0.9008
  189DOPC   H6S23300   3.762   1.673  11.524 -0.8996 -0.8038 -1.8196
  189DOPC   C2723301   3.871   1.499  11.595  0.4172 -0.4353 -0.3116
  189DOPC   H7R23302   3.945   1.563  11.647 -0.6041 -0.5672  1.3699
  189DOPC   H7S23303   3.909   1.473  11.494 -1.1183  0.3604 -1.1299
  189DOPC   C2823304   3.857   1.359  11.661 -0.1904  0.1276 -0.0287
  189DOPC   H8R23305   3.956   1.313  11.644  0.8354  2.1782  0.0344
  189DOPC   H8S23306   3.788   1.301  11.595 -0.5978 -0.4353  0.8840
  189DOPC   C2923307   3.826   1.370  11.812 -0.3579  0.0773 -0.1359
  189DOPC   H9R23308   3.911   1.412  11.866  0.3306 -0.8420 -0.4798
  189DOPC  C21023309   3.717   1.339  11.883  0.8979  0.1881  0.2749
  189DOPC  H10R23310   3.718   1.361  11.991 -3.1001  1.5537  0.1942
  189DOPC  C21123311   3.597   1.278  11.824  0.2904  0.5403  0.3896
  189DOPC  H11R23312   3.609   1.243  11.719  0.1188  1.2569  0.1291
  189DOPC  H11S23313   3.513   1.350  11.817  1.3501  1.7337 -0.7057
  189DOPC  C21223314   3.546   1.160  11.911 -0.2268 -0.3045  0.5710
  189DOPC  H12R23315   3.446   1.127  11.875 -0.0570 -1.1196  0.8279
  189DOPC  H12S23316   3.538   1.195  12.016 -0.3282 -1.1719  0.8635
  189DOPC  C21323317   3.651   1.051  11.912 -0.4656  0.7866 -0.1634
  189DOPC  H13R23318   3.746   1.086  11.959 -1.2122  1.4275  0.9149
  189DOPC  H13S23319   3.678   1.023  11.808  3.1520  1.9922  0.3019
  189DOPC  C21423320   3.611   0.932  11.996 -0.3106  0.2639 -0.4110
  189DOPC  H14R23321   3.507   0.900  11.972 -0.0796 -0.8786  0.0463
  189DOPC  H14S23322   3.608   0.981  12.095  0.8639  0.3666 -0.4140
  189DOPC  C21523323   3.711   0.817  12.003 -0.2243  0.2830  0.6956
  189DOPC  H15R23324   3.793   0.853  12.069 -0.1635  1.0623  0.2130
  189DOPC  H15S23325   3.754   0.785  11.906 -0.7257 -0.1395  0.6101
  189DOPC  C21623326   3.654   0.683  12.061 -0.6733 -0.0898 -0.3883
  189DOPC  H16R23327   3.733   0.606  12.075  0.4358  1.0329 -0.3319
  189DOPC  H16S23328   3.589   0.636  11.985 -1.7866  0.5922  0.1145
  189DOPC  C21723329   3.571   0.695  12.189  0.4436  0.3945  0.0926
  189DOPC  H17R23330   3.475   0.736  12.152  1.5551  3.1017 -0.0163
  189DOPC  H17S23331   3.622   0.770  12.254  1.7690  1.2085 -1.8016
  189DOPC  C21823332   3.544   0.565  12.270 -1.1101 -0.5227 -0.4758
  189DOPC  H18R23333   3.450   0.518  12.235 -1.4842  1.0843 -1.7421
  189DOPC  H18S23334   3.550   0.592  12.377 -1.8874  0.9259 -0.7695
  189DOPC  H18T23335   3.626   0.492  12.255  0.6368  1.5420 -1.5770
  189DOPC   C3323336   4.166   1.152  11.367 -0.5808 -0.4689  0.0360
  189DOPC   H3X23337   4.196   1.077  11.291 -1.2186  0.7523 -1.4668
  189DOPC   H3Y23338   4.139   1.103  11.463 -1.3705  1.9594  1.1232
  189DOPC   C3423339   4.291   1.243  11.378  0.0909  0.9644 -0.0453
  189DOPC   H4X23340   4.260   1.337  11.429 -0.5646  2.6758 -3.3636
  189DOPC   H4Y23341   4.331   1.276  11.280  2.5878 -0.2449  0.4829
  189DOPC   C3523342   4.408   1.180  11.457 -0.4565 -0.6637 -0.0978
  189DOPC   H5X23343   4.353   1.131  11.540  0.0427 -2.9957 -1.0852
  189DOPC   H5Y23344   4.481   1.257  11.490 -0.9605  0.1083 -0.7459
  189DOPC   C3623345   4.485   1.084  11.375 -0.5565  0.7164  0.2706
  189DOPC   H6X23346   4.423   1.006  11.325  0.7527 -1.0758  1.3169
  189DOPC   H6Y23347   4.541   1.140  11.297  2.9658 -2.1563  0.4293
  189DOPC   C3723348   4.582   0.994  11.452  0.4883 -0.1188 -0.0889
  189DOPC   H7X23349   4.638   1.047  11.531  0.0112 -2.9860  2.3339
  189DOPC   H7Y23350   4.523   0.912  11.499 -4.1660  2.0057 -1.6350
  189DOPC   C3823351   4.689   0.928  11.354 -0.3003  0.0709 -0.6318
  189DOPC   H8X23352   4.648   0.939  11.251 -0.6733  0.1553 -0.4782
  189DOPC   H8Y23353   4.698   0.820  11.379 -1.4536 -0.2554 -1.5325
  189DOPC   C3923354   4.813   1.001  11.378  0.1939 -0.5659 -0.2577
  189DOPC   H9X23355   4.821   1.089  11.312  3.4937 -1.0167 -0.6167
  189DOPC  C31023356   4.934   0.956  11.437  0.3335  0.0972 -0.3319
  189DOPC  H10X23357   5.023   1.020  11.426  0.8153 -0.5492 -0.2405
  189DOPC  C31123358   4.963   0.818  11.497 -0.1214  0.4672  0.2004
  189DOPC  H11X23359   4.995   0.757  11.410 -0.4647  2.5085 -1.4368
  189DOPC  H11Y23360   4.875   0.761  11.534  0.2413 -1.3564 -1.5599
  189DOPC  C31223361   5.078   0.816  11.592 -0.6451 -0.4199  0.1907
  189DOPC  H12X23362   5.060   0.884  11.678 -1.9064 -0.0691 -0.3251
  189DOPC  H12Y23363   5.169   0.861  11.547 -0.5514  0.2109  1.0019
  189DOPC  C31323364   5.114   0.674  11.653  0.1696 -0.0757 -0.7786
  189DOPC  H13X23365   5.070   0.589  11.597 -1.4045  0.8918 -1.0825
  189DOPC  H13Y23366   5.221   0.657  11.675 -0.1138 -0.3753  0.4324
  189DOPC  C31423367   5.043   0.665  11.789  0.1205 -0.1146  0.2959
  189DOPC  H14X23368   5.091   0.732  11.864  0.2661  0.4389 -0.2785
  189DOPC  H14Y23369   4.941   0.702  11.765  1.7509  2.7442 -3.0454
  189DOPC  C31523370   5.044   0.524  11.850  0.8289 -0.0939 -0.6112
  189DOPC  H15X23371   5.152   0.497  11.852  0.8391 -0.1689 -1.5247
  189DOPC  H15Y23372   4.980   0.456  11.790  0.2430 -1.3410  1.3373
  189DOPC  C31623373   4.996   0.516  11.994  0.1129  0.1794  1.0136
  189DOPC  H16X23374   5.061   0.591  12.045  1.8224  1.5569 -2.8060
  189DOPC  H16Y23375   4.888   0.541  11.996  0.0068 -0.3031  1.2914
  189DOPC  C31723376   5.011   0.377  12.053 -0.9650 -0.8142 -0.1224
  189DOPC  H17X23377   4.934   0.316  12.001 -0.5531  0.3564 -2.1896
  189DOPC  H17Y23378   5.106   0.329  12.020  0.2212  0.8937  0.7021
  189DOPC  C31823379   4.998   0.376  12.200 -0.0175 -1.0501 -0.1382
  189DOPC  H18X23380   5.059   0.458  12.244 -2.1895 -0.2791  1.6216
  189DOPC  H18Y23381   4.893   0.394  12.232  0.2200 -0.7183  0.4746
  189DOPC  H18Z23382   5.038   0.281  12.242  2.0100 -1.9038 -3.6753
  190DOPC     N23383   0.803   8.136  10.226 -0.4645 -0.6596  0.5858
  190DOPC   C1223384   0.829   8.284  10.199  0.2161  0.0355  0.5510
  190DOPC  H12A23385   0.741   8.309  10.140 -0.2006 -4.0795 -0.9712
  190DOPC  H12B23386   0.916   8.301  10.137 -0.5867 -0.4685 -0.7625
  190DOPC   C1323387   0.922   8.081  10.294 -1.1342  0.5747 -0.0610
  190DOPC  H13A23388   0.955   8.139  10.378  1.3736  0.8545 -1.1496
  190DOPC  H13B23389   0.911   7.975  10.315 -0.1888  0.7957  1.7105
  190DOPC  H13C23390   1.006   8.087  10.226 -0.3265 -0.2843  0.8298
  190DOPC   C1423391   0.780   8.064  10.094  0.3462 -0.1847  0.3891
  190DOPC  H14A23392   0.765   7.957  10.106  0.2777 -0.6483 -2.8564
  190DOPC  H14B23393   0.689   8.085  10.041  1.0073 -0.1503 -0.7636
  190DOPC  H14C23394   0.859   8.090  10.026 -0.3177 -0.8505 -0.6679
  190DOPC   C1523395   0.685   8.110  10.319  0.1580  0.2988  0.1068
  190DOPC  H15A23396   0.592   8.146  10.279  0.2660 -0.4374 -0.8555
  190DOPC  H15B23397   0.711   8.151  10.415 -1.0763  1.2382  0.0603
  190DOPC  H15C23398   0.684   8.005  10.344 -0.2760  0.8272  2.5317
  190DOPC   C1123399   0.834   8.387  10.311  0.2957 -0.2065  1.0651
  190DOPC  H11A23400   0.822   8.479  10.250 -0.2788 -1.5203 -0.9178
  190DOPC  H11B23401   0.749   8.384  10.382  0.4023 -2.1765  1.1715
  190DOPC     P23402   1.048   8.502  10.380 -0.4102  0.0412 -0.0190
  190DOPC   O1323403   0.990   8.617  10.458 -0.1321 -0.1121  0.0687
  190DOPC   O1423404   1.094   8.526  10.242  0.2968 -0.0822  0.0484
  190DOPC   O1223405   0.953   8.381  10.388 -0.2616  0.5394  0.2622
  190DOPC   O1123406   1.176   8.461  10.459  0.4439  0.2934 -0.1611
  190DOPC    C123407   1.177   8.331  10.528 -0.6168  0.1640  0.2927
  190DOPC    HA23408   1.283   8.302  10.543 -0.0504  1.2674 -1.2642
  190DOPC    HB23409   1.134   8.252  10.462  0.8979 -1.4882  1.2095
  190DOPC    C223410   1.108   8.332  10.665 -0.4352 -0.3324 -0.3604
  190DOPC    HS23411   1.003   8.341  10.631  0.4378  4.7919 -2.5922
  190DOPC   O2123412   1.162   8.433  10.751  0.2801 -0.0231 -0.4833
  190DOPC   C2123413   1.077   8.468  10.847 -0.1882  0.1650 -0.0254
  190DOPC   O2223414   0.963   8.422  10.858  0.1912 -0.0210  0.5308
  190DOPC   C2223415   1.153   8.554  10.947  0.2468  0.1789 -0.6002
  190DOPC   H2R23416   1.155   8.661  10.914  1.2839 -0.3531 -2.4527
  190DOPC   H2S23417   1.255   8.516  10.970 -0.0227 -0.2859 -0.1846
  190DOPC    C323418   1.127   8.205  10.745  0.8393  0.7091 -0.5307
  190DOPC    HX23419   1.084   8.119  10.689 -0.3007  0.4615  0.6819
  190DOPC    HY23420   1.080   8.214  10.845  0.0954 -1.3686 -0.6393
  190DOPC   O3123421   1.265   8.179  10.754 -0.4250 -0.1909 -0.3096
  190DOPC   C3123422   1.301   8.057  10.789  0.1065 -0.3020 -0.0959
  190DOPC   O3223423   1.228   7.974  10.835 -0.7040  1.0997  0.1616
  190DOPC   C3223424   1.446   8.038  10.750  0.2771 -0.6270  0.3223
  190DOPC   H2X23425   1.483   7.939  10.784  1.9286 -0.6989 -1.4782
  190DOPC   H2Y23426   1.463   8.037  10.640 -1.0864  2.0592  0.0106
  190DOPC   C2323427   1.087   8.540  11.091 -0.0154 -0.2576  0.3459
  190DOPC   H3R23428   0.981   8.573  11.090 -0.0701 -0.3931  1.1439
  190DOPC   H3S23429   1.139   8.610  11.160  0.1750  0.1623 -0.2221
  190DOPC   C2423430   1.092   8.408  11.163 -0.1645 -0.2174  0.3948
  190DOPC   H4R23431   1.029   8.330  11.115  0.3647  1.1275 -2.7923
  190DOPC   H4S23432   1.047   8.434  11.261  1.0872  2.1539  0.4035
  190DOPC   C2523433   1.233   8.359  11.172 -0.1764  0.3533 -0.0254
  190DOPC   H5R23434   1.298   8.443  11.204  0.9001 -0.6665  0.5325
  190DOPC   H5S23435   1.272   8.310  11.080 -0.0846 -3.1493  1.6729
  190DOPC   C2623436   1.242   8.238  11.269  0.2004 -0.8194 -0.2164
  190DOPC   H6R23437   1.187   8.274  11.358 -1.5347 -2.7499 -0.4274
  190DOPC   H6S23438   1.347   8.219  11.298  1.5031  0.7679 -3.3489
  190DOPC   C2723439   1.176   8.116  11.199 -0.7962 -0.7135  0.9374
  190DOPC   H7R23440   1.207   8.106  11.093 -0.9051 -0.4310  0.8784
  190DOPC   H7S23441   1.066   8.129  11.202 -0.5423  1.9213  1.7370
  190DOPC   C2823442   1.220   7.983  11.271 -0.8031  0.2268 -0.0875
  190DOPC   H8R23443   1.218   8.000  11.380 -2.7089  0.6165 -0.1388
  190DOPC   H8S23444   1.325   7.964  11.239 -1.2933  1.1355 -2.5192
  190DOPC   C2923445   1.124   7.866  11.238 -0.4785  0.1900  0.3276
  190DOPC   H9R23446   1.034   7.854  11.299 -2.1093  0.4207 -1.9323
  190DOPC  C21023447   1.143   7.770  11.150 -1.3347 -0.3727 -0.2562
  190DOPC  H10R23448   1.073   7.685  11.142  0.9385 -2.3234 -0.5775
  190DOPC  C21123449   1.271   7.748  11.071 -0.2920  0.2670  0.2965
  190DOPC  H11R23450   1.331   7.839  11.052  3.3994 -1.9339  0.3211
  190DOPC  H11S23451   1.254   7.700  10.973  0.5429  0.5117  0.0211
  190DOPC  C21223452   1.342   7.637  11.150  0.2343  0.1182 -0.1369
  190DOPC  H12R23453   1.268   7.563  11.189  0.3526  1.5979  3.2753
  190DOPC  H12S23454   1.387   7.670  11.246  0.8877 -0.2549 -0.3122
  190DOPC  C21323455   1.459   7.565  11.074 -0.1666  0.4632 -0.4104
  190DOPC  H13R23456   1.538   7.629  11.029  1.8434 -1.7090 -0.1624
  190DOPC  H13S23457   1.410   7.497  11.001 -0.1096 -0.1134  0.0821
  190DOPC  C21423458   1.531   7.455  11.157 -0.1787 -0.7073  0.5619
  190DOPC  H14R23459   1.579   7.379  11.092 -3.6156 -2.5649 -0.0395
  190DOPC  H14S23460   1.450   7.393  11.202 -0.0215 -0.0029  1.8672
  190DOPC  C21523461   1.615   7.506  11.272  0.0300 -0.3428 -0.3743
  190DOPC  H15R23462   1.546   7.569  11.332  0.1165 -0.9459  0.3649
  190DOPC  H15S23463   1.689   7.576  11.229 -1.1389  1.3519  0.2661
  190DOPC  C21623464   1.686   7.396  11.347  0.0076 -0.3295  0.4701
  190DOPC  H16R23465   1.762   7.359  11.274  0.3180 -0.9715  1.1092
  190DOPC  H16S23466   1.609   7.320  11.369  0.5532 -1.2184 -0.5815
  190DOPC  C21723467   1.751   7.445  11.473  0.2113 -0.7378  0.5195
  190DOPC  H17R23468   1.663   7.482  11.531 -0.8462 -0.0274 -1.4403
  190DOPC  H17S23469   1.811   7.536  11.454  1.4287 -1.9068 -1.6241
  190DOPC  C21823470   1.847   7.344  11.539  0.5069 -0.3336 -0.0834
  190DOPC  H18R23471   1.950   7.344  11.497 -0.1248 -2.1618 -1.7867
  190DOPC  H18S23472   1.806   7.241  11.542  1.3024 -0.6395  0.8836
  190DOPC  H18T23473   1.861   7.383  11.642 -1.5793  0.2272  0.0165
  190DOPC   C3323474   1.533   8.153  10.801  0.5874 -0.5558  0.0746
  190DOPC   H3X23475   1.507   8.249  10.753 -1.7112 -0.9352  0.4253
  190DOPC   H3Y23476   1.638   8.132  10.774  0.6524  3.1010 -3.4046
  190DOPC   C3423477   1.523   8.179  10.955 -0.1973  0.3719  0.4045
  190DOPC   H4X23478   1.417   8.167  10.987 -0.0663 -1.1905  0.3469
  190DOPC   H4Y23479   1.550   8.285  10.975 -1.7259  0.5358  1.9057
  190DOPC   C3523480   1.608   8.085  11.033 -0.3387 -1.1588 -0.2270
  190DOPC   H5X23481   1.711   8.094  10.993 -0.7889  0.4611 -1.0876
  190DOPC   H5Y23482   1.573   7.983  11.006  0.5738 -1.8187  0.9545
  190DOPC   C3623483   1.598   8.089  11.184 -0.1178  0.1446  0.3179
  190DOPC   H6X23484   1.633   8.179  11.239  2.3879  0.4885 -1.6414
  190DOPC   H6Y23485   1.489   8.079  11.203 -0.5036  0.2238 -1.6354
  190DOPC   C3723486   1.677   7.970  11.244  0.2560  0.0143 -0.3036
  190DOPC   H7X23487   1.648   7.873  11.197 -1.0469  1.1603 -2.0257
  190DOPC   H7Y23488   1.784   7.986  11.217 -0.0206  0.6879 -1.0469
  190DOPC   C3823489   1.655   7.956  11.400 -0.3019  0.1179  0.2397
  190DOPC   H8X23490   1.548   7.944  11.425 -0.5871 -0.9370 -1.3766
  190DOPC   H8Y23491   1.684   8.052  11.449  0.1916 -0.0268  0.2434
  190DOPC   C3923492   1.738   7.842  11.442  0.2964  0.1391 -0.7251
  190DOPC   H9X23493   1.729   7.750  11.383 -2.4034 -1.1021  1.3927
  190DOPC  C31023494   1.796   7.819  11.557 -0.3344  0.0734 -0.3825
  190DOPC  H10X23495   1.852   7.724  11.565 -0.8312 -0.0302  2.9383
  190DOPC  C31123496   1.814   7.912  11.674  0.1889  0.1682 -0.1222
  190DOPC  H11X23497   1.747   7.886  11.759  1.4342 -1.4182  0.4105
  190DOPC  H11Y23498   1.791   8.014  11.637  2.1740  0.3039 -1.1348
  190DOPC  C31223499   1.960   7.933  11.715 -0.9300 -0.3636  0.2507
  190DOPC  H12X23500   1.979   8.025  11.775  2.2908 -2.0372  2.0254
  190DOPC  H12Y23501   2.026   7.942  11.626 -1.2054 -0.9540 -0.0155
  190DOPC  C31323502   2.025   7.834  11.817 -0.5227 -0.0092 -0.4043
  190DOPC  H13X23503   1.999   7.726  11.811  1.1454 -0.3924 -1.4579
  190DOPC  H13Y23504   2.135   7.842  11.803 -0.2559  3.3848  2.3077
  190DOPC  C31423505   1.999   7.882  11.968  0.3725 -0.0863 -0.5402
  190DOPC  H14X23506   2.047   7.980  11.988 -0.4685  0.8403 -2.7501
  190DOPC  H14Y23507   1.890   7.906  11.970 -0.3065 -2.7718  2.3113
  190DOPC  C31523508   2.042   7.778  12.079 -1.3381 -0.4031  0.3536
  190DOPC  H15X23509   2.151   7.768  12.064 -1.8492 -3.7404 -2.4055
  190DOPC  H15Y23510   2.001   7.678  12.053 -1.6397  0.0712 -1.1068
  190DOPC  C31623511   1.999   7.832  12.219 -0.3347  1.0873  0.2437
  190DOPC  H16X23512   2.039   7.934  12.235  0.2603  1.3792 -2.6605
  190DOPC  H16Y23513   1.889   7.842  12.230 -0.4509 -0.3844  0.7147
  190DOPC  C31723514   2.052   7.738  12.330 -0.4066  0.4870  0.6971
  190DOPC  H17X23515   2.159   7.710  12.314  0.6586  4.2789  0.1931
  190DOPC  H17Y23516   2.048   7.796  12.425  3.5242  2.3451 -0.0665
  190DOPC  C31823517   1.979   7.605  12.351  0.0151 -0.2754  0.0312
  190DOPC  H18X23518   1.999   7.540  12.263  0.4466 -2.6584  1.8032
  190DOPC  H18Y23519   2.003   7.553  12.446  0.0564  0.1097  0.2320
  190DOPC  H18Z23520   1.870   7.629  12.358  0.1762  0.6155 -0.3365
  191DOPC     N23521   6.308   8.086  10.778 -0.3861  0.4904  0.0538
  191DOPC   C1223522   6.437   8.097  10.860  0.2166  0.1781 -0.1590
  191DOPC  H12A23523   6.514   8.049  10.800  0.7459  1.1301 -0.2519
  191DOPC  H12B23524   6.432   8.035  10.948  3.0902  2.0489  1.4525
  191DOPC   C1323525   6.184   8.124  10.848  0.1713  0.5630 -0.5093
  191DOPC  H13A23526   6.209   8.222  10.886  0.6426  1.1750 -2.2730
  191DOPC  H13B23527   6.103   8.120  10.777  0.8925 -2.3097 -1.3201
  191DOPC  H13C23528   6.159   8.051  10.923  2.6394  1.2168  1.0572
  191DOPC   C1423529   6.294   7.941  10.722 -0.3956 -0.8891  0.0773
  191DOPC  H14A23530   6.210   7.933  10.655 -0.9107 -0.5584  0.6759
  191DOPC  H14B23531   6.380   7.923  10.658 -0.0229 -0.2276  0.3816
  191DOPC  H14C23532   6.276   7.872  10.803  0.3382 -0.3991  0.6736
  191DOPC   C1523533   6.313   8.171  10.654  0.7933 -0.6194  0.3635
  191DOPC  H15A23534   6.216   8.188  10.610  0.7227 -1.0128  0.3666
  191DOPC  H15B23535   6.373   8.121  10.579 -0.1557 -1.4186  0.1053
  191DOPC  H15C23536   6.359   8.265  10.679  0.7353 -0.3244 -0.5769
  191DOPC   C1123537   6.493   8.240  10.896  0.4026  0.4265 -0.3583
  191DOPC  H11A23538   6.401   8.285  10.938  0.4893 -0.4197  0.7700
  191DOPC  H11B23539   6.558   8.233  10.986  0.1732 -2.1607 -0.3399
  191DOPC     P23540   6.666   8.281  10.698  0.3937  0.0674  0.0805
  191DOPC   O1323541   6.759   8.385  10.734  0.3645 -0.5105 -0.2648
  191DOPC   O1423542   6.633   8.267  10.556 -0.1484  0.5466 -0.2130
  191DOPC   O1223543   6.536   8.302  10.780  0.4204  0.1655 -0.1642
  191DOPC   O1123544   6.726   8.151  10.761  0.6074 -0.3467  0.0276
  191DOPC    C123545   6.850   8.111  10.710 -0.6853 -0.4261 -0.2130
  191DOPC    HA23546   6.913   8.195  10.673 -1.4838  1.0700  1.6584
  191DOPC    HB23547   6.838   8.034  10.631 -0.0382  0.7201 -1.4682
  191DOPC    C223548   6.924   8.044  10.825 -0.1079 -0.4491  0.2844
  191DOPC    HS23549   6.852   7.968  10.862  0.6602 -0.6851  1.3275
  191DOPC   O2123550   6.953   8.136  10.929  0.2262  0.2782 -0.4081
  191DOPC   C2123551   6.863   8.143  11.035  0.3285  0.1177  0.2411
  191DOPC   O2223552   6.786   8.051  11.070  0.3767  0.2083  0.0405
  191DOPC   C2223553   6.848   8.280  11.100  0.6141  0.3098 -0.0293
  191DOPC   H2R23554   6.773   8.341  11.045 -0.0664 -2.0819 -1.8836
  191DOPC   H2S23555   6.945   8.334  11.087  0.3437  0.8840  0.2650
  191DOPC    C323556   7.048   7.961  10.785 -0.3705 -0.4182  0.6013
  191DOPC    HX23557   7.130   8.020  10.740 -1.0475 -0.0143 -0.1290
  191DOPC    HY23558   7.012   7.892  10.705  0.9921 -1.6389  0.9931
  191DOPC   O3123559   7.099   7.890  10.900 -0.5895  0.1824  0.6959
  191DOPC   C3123560   7.032   7.780  10.938 -0.2189 -0.1972  0.0867
  191DOPC   O3223561   6.957   7.711  10.875 -0.1131 -0.5868  0.5457
  191DOPC   C3223562   7.071   7.749  11.084 -0.3000  0.6843 -0.4676
  191DOPC   H2X23563   7.157   7.679  11.081  0.0185  1.0694 -0.5040
  191DOPC   H2Y23564   7.091   7.840  11.146 -0.7241  0.0733  0.5969
  191DOPC   C2323565   6.801   8.257  11.241 -0.0501 -0.5727 -0.2414
  191DOPC   H3R23566   6.868   8.201  11.310 -0.8298 -0.9629  0.2107
  191DOPC   H3S23567   6.708   8.198  11.227 -1.6412  1.5469  0.8408
  191DOPC   C2423568   6.762   8.388  11.306 -0.1221 -0.0458 -0.1657
  191DOPC   H4R23569   6.661   8.418  11.271  0.3284  0.6072 -0.9625
  191DOPC   H4S23570   6.841   8.462  11.277  0.5283 -0.8036 -0.3627
  191DOPC   C2523571   6.775   8.372  11.457  0.3298  0.1282 -0.0629
  191DOPC   H5R23572   6.869   8.313  11.470  0.7314  0.3755 -1.6180
  191DOPC   H5S23573   6.687   8.314  11.491 -0.4443  0.2833 -1.7314
  191DOPC   C2623574   6.776   8.512  11.527  0.8291  0.6898 -0.6860
  191DOPC   H6R23575   6.694   8.576  11.488 -0.2294  0.7727  1.5072
  191DOPC   H6S23576   6.867   8.570  11.502  0.6813  1.7926  1.1519
  191DOPC   C2723577   6.771   8.498  11.681  0.3405 -0.2863 -0.4127
  191DOPC   H7R23578   6.793   8.604  11.710 -0.7826  0.0024 -0.5785
  191DOPC   H7S23579   6.859   8.445  11.723  0.8360  2.1399  1.9383
  191DOPC   C2823580   6.644   8.455  11.748  0.1545  0.4068 -0.6941
  191DOPC   H8R23581   6.618   8.349  11.728 -3.8218  1.1569 -0.2244
  191DOPC   H8S23582   6.560   8.519  11.711 -0.3096  0.0905 -0.1922
  191DOPC   C2923583   6.666   8.475  11.900 -0.5628  0.6594  0.0938
  191DOPC   H9R23584   6.764   8.518  11.922  0.1656  0.0984 -1.7986
  191DOPC  C21023585   6.575   8.444  11.995 -0.6493 -0.1097 -0.1302
  191DOPC  H10R23586   6.608   8.454  12.099  0.7706 -1.0049 -0.4658
  191DOPC  C21123587   6.446   8.383  11.969 -0.2369  0.2807  0.0029
  191DOPC  H11R23588   6.430   8.304  12.046 -0.0347  0.2294 -0.0074
  191DOPC  H11S23589   6.435   8.340  11.867  2.1175  0.3939 -0.3646
  191DOPC  C21223590   6.332   8.483  11.984  0.2439 -0.6216  0.3871
  191DOPC  H12R23591   6.329   8.529  12.085 -0.3666 -1.4396  0.7594
  191DOPC  H12S23592   6.239   8.424  11.965  0.5473 -0.2759 -2.6811
  191DOPC  C21323593   6.347   8.597  11.890 -0.6044 -0.7609  0.8876
  191DOPC  H13R23594   6.351   8.559  11.786  0.3369 -0.2641  0.7303
  191DOPC  H13S23595   6.439   8.659  11.898 -1.4568  0.6422  0.2972
  191DOPC  C21423596   6.229   8.705  11.908 -0.2701 -0.2944 -0.0420
  191DOPC  H14R23597   6.250   8.769  11.997  0.5026  0.6557 -0.8830
  191DOPC  H14S23598   6.137   8.648  11.933  1.0776 -2.0198  1.2317
  191DOPC  C21523599   6.218   8.803  11.789 -0.6702  0.0133  0.4001
  191DOPC  H15R23600   6.145   8.879  11.825  2.4809  2.3198  2.4925
  191DOPC  H15S23601   6.183   8.747  11.699 -2.1918  0.8959  0.4089
  191DOPC  C21623602   6.348   8.882  11.766 -0.4645 -1.0788  0.0298
  191DOPC  H16R23603   6.428   8.818  11.722  0.0190  0.1402 -0.9375
  191DOPC  H16S23604   6.394   8.924  11.858 -0.2830  3.2198 -1.7815
  191DOPC  C21723605   6.334   8.994  11.664  0.5488  0.1551  0.3557
  191DOPC  H17R23606   6.431   9.046  11.651  0.3757  0.9220  1.8730
  191DOPC  H17S23607   6.260   9.071  11.693  0.2042 -0.6476  1.7004
  191DOPC  C21823608   6.302   8.930  11.530 -0.2130  0.5150  0.7844
  191DOPC  H18R23609   6.307   8.995  11.441  0.5293 -0.2388  0.2635
  191DOPC  H18S23610   6.209   8.870  11.535 -0.8370  1.3567 -0.5147
  191DOPC  H18T23611   6.383   8.856  11.510 -0.8695 -0.2316  0.8393
  191DOPC   C3323612   6.946   7.684  11.154  0.4401 -1.0492  0.1816
  191DOPC   H3X23613   6.940   7.580  11.117  0.2391 -0.1001 -2.7205
  191DOPC   H3Y23614   6.853   7.735  11.120  0.6929 -0.2130  0.7058
  191DOPC   C3423615   6.954   7.695  11.306 -0.3808  0.7832 -0.1296
  191DOPC   H4X23616   7.057   7.672  11.341 -1.5666 -0.0508  3.1966
  191DOPC   H4Y23617   6.896   7.615  11.357  1.6484 -0.3026  0.5707
  191DOPC   C3523618   6.923   7.829  11.363 -0.1397  0.3399  0.1416
  191DOPC   H5X23619   6.834   7.874  11.315 -0.7709 -1.0788 -0.0575
  191DOPC   H5Y23620   7.012   7.896  11.353 -1.0543  1.7725  1.1389
  191DOPC   C3623621   6.897   7.808  11.519 -0.0933 -0.1830  0.2569
  191DOPC   H6X23622   6.817   7.732  11.526 -3.4989  3.2327  2.2883
  191DOPC   H6Y23623   6.988   7.764  11.565 -0.7913 -2.1776 -0.1656
  191DOPC   C3723624   6.854   7.938  11.591  0.2617  0.0417  0.1539
  191DOPC   H7X23625   6.921   8.020  11.557 -0.6027  0.4993 -0.4966
  191DOPC   H7Y23626   6.758   7.966  11.542 -0.7262 -1.2750  1.2774
  191DOPC   C3823627   6.839   7.924  11.747 -0.2740 -0.0014  0.3104
  191DOPC   H8X23628   6.947   7.914  11.771 -0.2547 -0.8897 -0.1394
  191DOPC   H8Y23629   6.793   7.827  11.774 -2.1205  1.4096  2.5958
  191DOPC   C3923630   6.769   8.029  11.827  0.7825 -0.0583  0.0758
  191DOPC   H9X23631   6.661   8.018  11.813  1.1380  0.7037 -5.2188
  191DOPC  C31023632   6.812   8.116  11.918 -0.2249 -0.4143 -0.3983
  191DOPC  H10X23633   6.740   8.185  11.965  0.6583  0.3588 -0.1341
  191DOPC  C31123634   6.956   8.141  11.958  0.1825  0.0831  0.6993
  191DOPC  H11X23635   6.994   8.229  11.902  2.3909 -1.7787 -0.9492
  191DOPC  H11Y23636   7.024   8.063  11.916 -1.0799 -0.5532 -0.2202
  191DOPC  C31223637   6.990   8.150  12.106  0.1931  0.0300  0.6307
  191DOPC  H12X23638   6.963   8.049  12.144  0.1130  0.1793  0.9694
  191DOPC  H12Y23639   6.927   8.228  12.152  1.2519  1.3427 -0.0864
  191DOPC  C31323640   7.131   8.184  12.138 -0.3994 -0.5740  0.2639
  191DOPC  H13X23641   7.198   8.125  12.072  0.5900  0.2074  0.5464
  191DOPC  H13Y23642   7.162   8.290  12.121  2.8350 -1.2454  1.2419
  191DOPC  C31423643   7.169   8.152  12.277  0.1024  0.2264 -0.5045
  191DOPC  H14X23644   7.115   8.216  12.350 -1.9251 -1.7168 -0.2112
  191DOPC  H14Y23645   7.121   8.056  12.305  2.3589 -0.1788  2.6395
  191DOPC  C31523646   7.322   8.141  12.294 -0.2515  0.5186 -0.2116
  191DOPC  H15X23647   7.358   8.233  12.243  0.4468  0.3729  0.0017
  191DOPC  H15Y23648   7.363   8.057  12.234 -0.6659  0.0110  0.2090
  191DOPC  C31623649   7.379   8.121  12.437 -0.4929 -0.7629  0.2153
  191DOPC  H16X23650   7.329   8.202  12.496 -0.2200  0.9659 -1.8105
  191DOPC  H16Y23651   7.351   8.019  12.471 -0.6738 -0.6096  0.5367
  191DOPC  C31723652   7.534   8.146  12.443  0.1319 -0.0255 -0.3916
  191DOPC  H17X23653   7.580   8.109  12.348  0.6082  1.4399 -0.7580
  191DOPC  H17Y23654   7.548   8.256  12.443 -3.5169  0.5417 -0.0924
  191DOPC  C31823655   7.601   8.096  12.572 -0.8226 -0.2266 -0.1726
  191DOPC  H18X23656   7.557   8.158  12.653  0.8231  1.9009 -0.8275
  191DOPC  H18Y23657   7.584   7.987  12.584  0.8403 -0.2667  2.8039
  191DOPC  H18Z23658   7.711   8.112  12.566 -1.1701  2.5852 -0.4734
  192DOPC     N23659   8.444   4.584  10.850  0.1012  0.1761  0.2214
  192DOPC   C1223660   8.321   4.587  10.939  0.3315  0.5341 -0.4927
  192DOPC  H12A23661   8.234   4.586  10.875  0.3501  0.0079 -0.5170
  192DOPC  H12B23662   8.314   4.684  10.986 -1.9356  0.9407 -1.5378
  192DOPC   C1323663   8.434   4.484  10.739  0.7848  0.5807 -0.6900
  192DOPC  H13A23664   8.346   4.504  10.679  0.9981  0.6116 -0.9983
  192DOPC  H13B23665   8.525   4.476  10.681  1.6491 -1.9508  0.8714
  192DOPC  H13C23666   8.417   4.382  10.768  2.1992  0.2236 -1.0117
  192DOPC   C1423667   8.571   4.562  10.925  0.3340 -0.0270 -0.3629
  192DOPC  H14A23668   8.571   4.632  11.006  0.5758  2.2574 -2.2388
  192DOPC  H14B23669   8.578   4.461  10.964  0.5138 -0.1437 -0.6956
  192DOPC  H14C23670   8.653   4.574  10.855 -1.0505  1.6659 -1.7969
  192DOPC   C1523671   8.456   4.719  10.778  0.7529 -0.4702 -0.3956
  192DOPC  H15A23672   8.368   4.740  10.720 -0.6607 -2.9188  0.7067
  192DOPC  H15B23673   8.542   4.721  10.713  0.3146 -1.1174 -1.0103
  192DOPC  H15C23674   8.471   4.794  10.854  0.3116  1.2605 -1.9379
  192DOPC   C1123675   8.302   4.472  11.042  0.4549  1.1105 -0.1225
  192DOPC  H11A23676   8.396   4.449  11.097 -1.1458  0.4995  2.5702
  192DOPC  H11B23677   8.237   4.505  11.126  2.2623  2.6540  0.7625
  192DOPC     P23678   8.277   4.213  11.058 -0.2417  0.1372 -0.1705
  192DOPC   O1323679   8.424   4.189  11.042  0.1559  0.2950  0.0910
  192DOPC   O1423680   8.172   4.111  11.022  0.0797  0.5400 -0.3436
  192DOPC   O1223681   8.250   4.347  10.981 -0.1570  0.2930 -0.1104
  192DOPC   O1123682   8.247   4.263  11.210 -0.0818 -0.1664  0.6667
  192DOPC    C123683   8.111   4.281  11.246  0.1518  0.4280  0.3362
  192DOPC    HA23684   8.039   4.298  11.163  1.5179  0.6092 -0.8386
  192DOPC    HB23685   8.101   4.369  11.312 -0.8140  0.2237  0.4854
  192DOPC    C223686   8.052   4.160  11.334 -0.6020 -0.0500 -0.5903
  192DOPC    HS23687   8.045   4.072  11.267  1.6253 -0.3737 -0.4602
  192DOPC   O2123688   7.929   4.193  11.403 -0.4058  0.0739  0.0810
  192DOPC   C2123689   7.849   4.088  11.413  0.1876 -0.7273 -0.2016
  192DOPC   O2223690   7.873   3.970  11.381  0.2563  1.0020  0.5394
  192DOPC   C2223691   7.724   4.137  11.496 -0.5462 -0.5032  0.1915
  192DOPC   H2R23692   7.625   4.107  11.455 -0.6361  0.5270 -0.3697
  192DOPC   H2S23693   7.729   4.247  11.485 -0.2978 -0.4831  0.4731
  192DOPC    C323694   8.150   4.127  11.454  0.1410  0.3690 -0.0258
  192DOPC    HX23695   8.150   4.224  11.508  1.5583 -0.0945  0.8694
  192DOPC    HY23696   8.254   4.108  11.421 -0.1646 -3.0641  0.6065
  192DOPC   O3123697   8.096   4.024  11.547  0.1464 -0.5557 -0.1158
  192DOPC   C3123698   8.148   3.905  11.535  0.5127  0.1318 -0.0942
  192DOPC   O3223699   8.233   3.865  11.453 -0.3031  0.3828  0.1683
  192DOPC   C3223700   8.077   3.815  11.639  0.8683  0.5409 -0.5498
  192DOPC   H2X23701   8.022   3.877  11.712 -0.5188 -1.3356  0.0899
  192DOPC   H2Y23702   8.005   3.759  11.575  2.1386  0.9170 -2.4075
  192DOPC   C2323703   7.716   4.099  11.644 -0.1977  0.0910  0.8800
  192DOPC   H3R23704   7.811   4.100  11.702  0.3334 -2.8070  0.2327
  192DOPC   H3S23705   7.678   3.995  11.641 -3.1248  1.0711 -2.7203
  192DOPC   C2423706   7.613   4.178  11.720 -0.8553  0.7700  0.9382
  192DOPC   H4R23707   7.608   4.125  11.818  3.9769 -0.3287  0.8422
  192DOPC   H4S23708   7.514   4.176  11.671 -0.0674  1.0440 -0.7092
  192DOPC   C2523709   7.652   4.321  11.757  0.9188  0.3898  0.5490
  192DOPC   H5R23710   7.681   4.382  11.669  0.4004 -2.3924 -1.6987
  192DOPC   H5S23711   7.744   4.312  11.820 -0.0155 -2.2103  1.6987
  192DOPC   C2623712   7.555   4.396  11.851  0.2907  0.5281  0.0390
  192DOPC   H6R23713   7.561   4.347  11.950  3.1534  0.3030 -0.1698
  192DOPC   H6S23714   7.450   4.383  11.817 -0.8199  1.9974  2.6155
  192DOPC   C2723715   7.591   4.548  11.847  0.1411 -0.0882 -0.5277
  192DOPC   H7R23716   7.592   4.579  11.741 -1.6215 -0.4164 -0.6658
  192DOPC   H7S23717   7.698   4.560  11.877  0.1647  0.9997 -1.0074
  192DOPC   C2823718   7.505   4.644  11.927  0.2234  0.0718  0.9427
  192DOPC   H8R23719   7.413   4.660  11.867  0.2027 -1.1654  0.6077
  192DOPC   H8S23720   7.554   4.743  11.930  2.5311 -0.8435 -1.6582
  192DOPC   C2923721   7.457   4.582  12.054  0.5255 -0.3183 -0.8745
  192DOPC   H9R23722   7.390   4.495  12.049  2.7572 -2.0998 -1.6722
  192DOPC  C21023723   7.494   4.620  12.173 -0.0321  0.1512 -0.0998
  192DOPC  H10R23724   7.451   4.568  12.260  0.5086  0.4149  0.3315
  192DOPC  C21123725   7.566   4.742  12.224 -0.4691 -0.2007 -0.1455
  192DOPC  H11R23726   7.586   4.826  12.154  1.6770  0.9755  1.7279
  192DOPC  H11S23727   7.667   4.709  12.258 -0.7792 -1.4869 -0.4377
  192DOPC  C21223728   7.490   4.800  12.341 -0.3110  0.2882 -0.3528
  192DOPC  H12R23729   7.462   4.725  12.418 -1.2840  2.5646  1.6427
  192DOPC  H12S23730   7.389   4.838  12.314 -1.9656 -3.3258  0.1501
  192DOPC  C21323731   7.578   4.913  12.422  1.0418  0.0026 -0.0951
  192DOPC  H13R23732   7.589   5.000  12.354  1.0314  1.3484  1.5500
  192DOPC  H13S23733   7.679   4.871  12.443  0.9610 -0.2832 -0.2759
  192DOPC  C21423734   7.488   4.944  12.546 -0.3027 -0.8388  0.0806
  192DOPC  H14R23735   7.475   4.848  12.600 -1.0343 -0.4817  0.5482
  192DOPC  H14S23736   7.399   4.983  12.494 -0.5107  0.2937  1.2259
  192DOPC  C21523737   7.542   5.056  12.639  0.9912 -0.6189  0.0814
  192DOPC  H15R23738   7.510   5.142  12.577 -3.4940 -0.6031  2.0303
  192DOPC  H15S23739   7.652   5.068  12.638  0.7053  3.3659 -1.1520
  192DOPC  C21623740   7.466   5.082  12.772 -0.0103  0.4056 -0.1265
  192DOPC  H16R23741   7.450   4.982  12.818  2.2851 -0.3591 -0.8444
  192DOPC  H16S23742   7.374   5.139  12.749  0.1110  0.9960  0.8085
  192DOPC  C21723743   7.549   5.167  12.869  0.4214  0.9412  0.1574
  192DOPC  H17R23744   7.491   5.197  12.959 -1.4612 -2.0885  0.0971
  192DOPC  H17S23745   7.575   5.263  12.820  1.1136  0.2798 -0.8075
  192DOPC  C21823746   7.669   5.101  12.929 -0.2390 -0.0185 -0.2439
  192DOPC  H18R23747   7.711   5.161  13.013 -4.2386  1.1799  1.1088
  192DOPC  H18S23748   7.746   5.100  12.848  0.3421  0.9264  0.2743
  192DOPC  H18T23749   7.655   4.994  12.954  1.9461 -0.3514 -0.2502
  192DOPC   C3323750   8.185   3.737  11.704  0.0383 -0.3261  0.1422
  192DOPC   H3X23751   8.268   3.702  11.640 -1.3733 -2.6598 -0.5066
  192DOPC   H3Y23752   8.134   3.641  11.725 -0.2710 -0.2353 -0.1967
  192DOPC   C3423753   8.234   3.807  11.836  0.3656 -0.0663  0.4885
  192DOPC   H4X23754   8.139   3.810  11.894 -2.8371 -4.2358 -3.7490
  192DOPC   H4Y23755   8.264   3.912  11.818 -0.3426  0.3564  1.6175
  192DOPC   C3523756   8.336   3.727  11.903  0.0666 -0.1407  0.2207
  192DOPC   H5X23757   8.408   3.705  11.822 -0.4522  0.9925 -0.5654
  192DOPC   H5Y23758   8.300   3.626  11.934  0.3132 -0.1760  0.3973
  192DOPC   C3623759   8.413   3.788  12.024 -0.5747  0.0421  0.6236
  192DOPC   H6X23760   8.480   3.860  11.971  0.8452 -2.5567 -1.3979
  192DOPC   H6Y23761   8.347   3.846  12.091  2.0840  3.7449  0.3572
  192DOPC   C3723762   8.510   3.687  12.098 -0.0483  0.0583  0.0836
  192DOPC   H7X23763   8.559   3.617  12.027  1.0000  0.1706  0.6706
  192DOPC   H7Y23764   8.594   3.750  12.135 -0.5551  1.7605 -1.5032
  192DOPC   C3823765   8.439   3.603  12.208  0.3770  0.0522  0.0633
  192DOPC   H8X23766   8.493   3.513  12.244 -0.2919 -0.4529 -0.1821
  192DOPC   H8Y23767   8.352   3.559  12.154 -0.5660  0.1353  1.4694
  192DOPC   C3923768   8.399   3.680  12.334 -0.4609  0.0186 -0.1496
  192DOPC   H9X23769   8.481   3.721  12.395 -0.2211  0.5483 -0.8171
  192DOPC  C31023770   8.274   3.724  12.367 -0.6737  0.3927 -0.2105
  192DOPC  H10X23771   8.248   3.756  12.469 -1.4174  0.3337 -0.3759
  192DOPC  C31123772   8.160   3.697  12.269 -0.1789 -0.0836 -0.0356
  192DOPC  H11X23773   8.190   3.702  12.162 -2.8296 -1.3988 -0.9065
  192DOPC  H11Y23774   8.081   3.769  12.300  1.0020  1.5438 -0.6339
  192DOPC  C31223775   8.089   3.557  12.283 -0.1741  0.1115 -0.8564
  192DOPC  H12X23776   8.064   3.551  12.391  0.2541  1.3475 -0.6764
  192DOPC  H12Y23777   8.156   3.472  12.258  0.4140 -0.0263  1.0312
  192DOPC  C31323778   7.956   3.546  12.206 -0.3650 -0.3242 -0.1892
  192DOPC  H13X23779   7.900   3.641  12.197  0.1418 -0.0645 -0.6611
  192DOPC  H13Y23780   7.968   3.513  12.101 -1.9879 -3.3395  0.4527
  192DOPC  C31423781   7.864   3.445  12.285 -0.7317 -1.0690  0.2290
  192DOPC  H14X23782   7.861   3.464  12.394  0.1591  0.1894  0.0605
  192DOPC  H14Y23783   7.762   3.459  12.242 -0.1795 -0.5934 -0.9984
  192DOPC  C31523784   7.889   3.296  12.254  0.1238  0.2199  0.0010
  192DOPC  H15X23785   7.980   3.268  12.311 -0.4437 -1.1071  0.2941
  192DOPC  H15Y23786   7.918   3.269  12.150  1.1399 -1.9890  0.8033
  192DOPC  C31623787   7.781   3.196  12.303 -0.2933 -0.4472 -0.7315
  192DOPC  H16X23788   7.688   3.257  12.301  0.7490  1.2386  0.0800
  192DOPC  H16Y23789   7.775   3.115  12.228 -1.2609 -0.3253 -0.8027
  192DOPC  C31723790   7.806   3.142  12.445 -0.0036  0.1668  0.6418
  192DOPC  H17X23791   7.895   3.074  12.446 -1.3104 -1.6123  0.7287
  192DOPC  H17Y23792   7.829   3.233  12.505  3.0910 -1.0868  1.5636
  192DOPC  C31823793   7.694   3.064  12.514  0.6513  0.2850 -0.0671
  192DOPC  H18X23794   7.598   3.119  12.516 -0.6660 -1.9421  1.5433
  192DOPC  H18Y23795   7.681   2.963  12.468  0.1713  0.3392 -0.0588
  192DOPC  H18Z23796   7.714   3.056  12.623 -0.1134  1.0191  0.1400
  193DOPC     N23797   8.297   1.104  10.673  0.0272  0.8415 -0.2024
  193DOPC   C1223798   8.260   1.066  10.816  0.1268 -0.0225  0.6102
  193DOPC  H12A23799   8.164   1.110  10.838 -0.2242 -0.2013 -0.5129
  193DOPC  H12B23800   8.334   1.113  10.879  0.4107  2.1861 -1.2651
  193DOPC   C1323801   8.285   1.257  10.663 -0.1815  0.2828  0.6595
  193DOPC  H13A23802   8.190   1.283  10.708 -1.1940  0.3116 -1.4067
  193DOPC  H13B23803   8.364   1.295  10.726  1.0715 -2.0351  0.5925
  193DOPC  H13C23804   8.293   1.301  10.565  3.0455 -1.6113 -0.0830
  193DOPC   C1423805   8.195   1.052  10.573 -0.8272 -0.5340 -0.4123
  193DOPC  H14A23806   8.181   0.947  10.594 -0.3662 -0.3791  0.7274
  193DOPC  H14B23807   8.102   1.104  10.592 -0.6636 -0.9977  1.9366
  193DOPC  H14C23808   8.227   1.075  10.473 -1.6538 -0.2184 -0.6186
  193DOPC   C1523809   8.432   1.048  10.620 -0.0584  0.4475 -0.2532
  193DOPC  H15A23810   8.426   0.944  10.592  1.6562 -0.4425  2.3614
  193DOPC  H15B23811   8.501   1.044  10.702  0.8123  0.6150 -0.9591
  193DOPC  H15C23812   8.473   1.114  10.545  2.3301 -1.4214 -0.7179
  193DOPC   C1123813   8.253   0.917  10.861 -0.1017  0.6055  0.7248
  193DOPC  H11A23814   8.183   0.904  10.946  0.0237 -0.4476  0.6818
  193DOPC  H11B23815   8.215   0.851  10.780 -1.7019  1.2792  0.8885
  193DOPC     P23816   8.452   0.914  11.038  0.0687  0.5167 -0.5486
  193DOPC   O1323817   8.589   0.860  11.041 -0.3914  0.5332  0.1802
  193DOPC   O1423818   8.367   0.872  11.150 -0.8433  0.0973 -0.1697
  193DOPC   O1223819   8.384   0.877  10.902  0.1237  0.0569  0.1563
  193DOPC   O1123820   8.467   1.071  11.038  0.3793 -0.0106  0.5190
  193DOPC    C123821   8.408   1.171  11.121  0.3457  0.5821  1.0072
  193DOPC    HA23822   8.311   1.141  11.167  0.9065 -1.1507  1.1106
  193DOPC    HB23823   8.390   1.257  11.053  1.1135  1.4051  1.8205
  193DOPC    C223824   8.496   1.220  11.234 -0.3837  0.9728  0.6556
  193DOPC    HS23825   8.592   1.245  11.184 -0.7405  1.5170  0.2440
  193DOPC   O2123826   8.499   1.117  11.327  0.1296  0.0677  0.1276
  193DOPC   C2123827   8.614   1.066  11.348  0.0366  0.4835 -0.5591
  193DOPC   O2223828   8.722   1.103  11.310 -0.1123  0.2779 -0.0410
  193DOPC   C2223829   8.600   0.949  11.440  0.3716  0.3846  0.3761
  193DOPC   H2R23830   8.574   0.860  11.378 -2.2160  0.7193  0.8729
  193DOPC   H2S23831   8.518   0.966  11.513  0.2078  0.5549  0.1542
  193DOPC    C323832   8.439   1.341  11.296 -0.3999  0.0716  0.1157
  193DOPC    HX23833   8.347   1.311  11.352  0.3987  0.6433  1.8107
  193DOPC    HY23834   8.400   1.407  11.216 -0.6246 -3.0904 -2.5812
  193DOPC   O3123835   8.524   1.419  11.391 -0.5476 -0.3757  0.3769
  193DOPC   C3123836   8.606   1.507  11.331 -0.1077 -0.3145 -0.0615
  193DOPC   O3223837   8.600   1.535  11.211 -0.4851  0.3089  0.3864
  193DOPC   C3223838   8.718   1.546  11.426  0.0434 -0.0349 -0.0770
  193DOPC   H2X23839   8.763   1.646  11.405 -2.5869  0.9538 -1.4592
  193DOPC   H2Y23840   8.669   1.555  11.526  1.2385 -0.8161  0.6020
  193DOPC   C2323841   8.729   0.920  11.524  0.1342  0.3800 -0.6581
  193DOPC   H3R23842   8.750   1.011  11.584  1.2711 -0.4709  0.2636
  193DOPC   H3S23843   8.814   0.894  11.457 -0.9222  0.2237 -1.9887
  193DOPC   C2423844   8.715   0.797  11.619  0.0321 -0.6401  0.3584
  193DOPC   H4R23845   8.811   0.743  11.632  1.0392  1.1509  0.6867
  193DOPC   H4S23846   8.637   0.733  11.573 -0.4199 -0.0826  0.3460
  193DOPC   C2523847   8.669   0.834  11.763  0.4326 -0.8602 -0.2985
  193DOPC   H5R23848   8.640   0.740  11.814 -1.1008 -0.0738  0.3322
  193DOPC   H5S23849   8.575   0.893  11.762 -0.1669 -1.8069 -0.2409
  193DOPC   C2623850   8.783   0.910  11.842 -0.7027 -0.3832  0.3546
  193DOPC   H6R23851   8.819   0.986  11.769  0.2642 -0.5047  0.6931
  193DOPC   H6S23852   8.875   0.850  11.855 -0.3928 -0.7593 -2.7362
  193DOPC   C2723853   8.732   0.980  11.973 -0.8801 -0.2629  0.3736
  193DOPC   H7R23854   8.678   0.901  12.030 -0.7199  1.0977  2.5654
  193DOPC   H7S23855   8.647   1.050  11.953 -2.0068 -2.0779 -1.5861
  193DOPC   C2823856   8.835   1.059  12.054  0.2070  0.4585  0.0729
  193DOPC   H8R23857   8.775   1.138  12.105 -1.2456 -0.6492  0.1631
  193DOPC   H8S23858   8.899   1.122  11.990  1.7846  0.8700  1.9667
  193DOPC   C2923859   8.910   0.993  12.158  0.0569 -0.2991 -0.0775
  193DOPC   H9R23860   8.864   0.905  12.205  2.0366 -0.8213  0.9789
  193DOPC  C21023861   9.032   1.034  12.207  0.5890 -0.4502 -0.1684
  193DOPC  H10R23862   9.071   0.987  12.298  0.0304  1.5568  1.1841
  193DOPC  C21123863   9.100   1.164  12.171  0.2863 -0.3922  0.2135
  193DOPC  H11R23864   9.058   1.202  12.076 -0.9491  0.3529  1.0209
  193DOPC  H11S23865   9.208   1.148  12.154  0.4398  1.2602 -0.5084
  193DOPC  C21223866   9.066   1.285  12.265 -0.4447 -0.7502 -0.4479
  193DOPC  H12R23867   8.957   1.303  12.271 -0.3842 -0.6920  0.7719
  193DOPC  H12S23868   9.108   1.377  12.220 -1.2631 -0.5313 -0.7803
  193DOPC  C21323869   9.115   1.265  12.410 -0.3125  0.5375  0.7817
  193DOPC  H13R23870   9.066   1.174  12.451 -0.2689  0.1847  0.0675
  193DOPC  H13S23871   9.088   1.357  12.467  2.2631  0.2975  2.5584
  193DOPC  C21423872   9.272   1.242  12.413 -0.5245  0.1464 -0.0155
  193DOPC  H14R23873   9.326   1.321  12.357  1.5345 -0.7640  0.6085
  193DOPC  H14S23874   9.294   1.145  12.365  0.4821 -0.1342  0.9532
  193DOPC  C21523875   9.328   1.240  12.554  0.4794  0.0590 -0.1032
  193DOPC  H15R23876   9.287   1.156  12.614  0.0267  2.3126  2.9999
  193DOPC  H15S23877   9.282   1.328  12.604 -1.0931 -0.3003 -0.8604
  193DOPC  C21623878   9.484   1.240  12.560  0.7138  0.6190  0.4362
  193DOPC  H16R23879   9.516   1.342  12.529 -1.1579  0.7770 -1.1312
  193DOPC  H16S23880   9.530   1.163  12.494  2.1334  2.2367 -0.5336
  193DOPC  C21723881   9.543   1.211  12.707 -0.3604  0.9524  0.2388
  193DOPC  H17R23882   9.481   1.133  12.755 -0.1008 -0.0166 -0.9631
  193DOPC  H17S23883   9.524   1.299  12.773  1.1303  0.1028  1.9035
  193DOPC  C21823884   9.692   1.164  12.718  0.4306 -0.2087  0.2641
  193DOPC  H18R23885   9.703   1.072  12.657  2.2094 -0.5662  1.0750
  193DOPC  H18S23886   9.714   1.144  12.825 -1.8201  0.8541  0.9862
  193DOPC  H18T23887   9.761   1.240  12.674 -0.0457 -0.6514 -1.2997
  193DOPC   C3323888   8.823   1.430  11.450 -0.0951  0.2491 -0.1262
  193DOPC   H3X23889   8.883   1.423  11.356 -1.0039  1.9560 -0.8853
  193DOPC   H3Y23890   8.765   1.340  11.476 -0.4876  0.3700 -0.5701
  193DOPC   C3423891   8.914   1.471  11.561  0.5251 -0.4438 -0.4867
  193DOPC   H4X23892   8.864   1.492  11.658 -0.8288  2.4154 -1.6891
  193DOPC   H4Y23893   8.958   1.568  11.531 -0.6649  0.1880 -0.2415
  193DOPC   C3523894   9.028   1.373  11.601  0.3833 -0.0692  0.2512
  193DOPC   H5X23895   9.081   1.350  11.506  0.3878  1.6062 -0.1881
  193DOPC   H5Y23896   8.983   1.275  11.627  1.8213 -2.3430 -4.6905
  193DOPC   C3623897   9.135   1.439  11.687  0.6110 -0.0774 -0.0596
  193DOPC   H6X23898   9.230   1.383  11.674  0.7946  0.3659 -0.7195
  193DOPC   H6Y23899   9.155   1.546  11.664  0.5923  0.4240  2.0779
  193DOPC   C3723900   9.102   1.446  11.838  0.8643  0.0571 -0.3250
  193DOPC   H7X23901   9.012   1.511  11.853  1.4677  0.5127  1.5579
  193DOPC   H7Y23902   9.068   1.345  11.869  3.4546 -1.5584 -2.3907
  193DOPC   C3823903   9.213   1.491  11.924 -0.1885 -0.3186 -0.1552
  193DOPC   H8X23904   9.304   1.428  11.913  0.5090  0.7573 -0.7941
  193DOPC   H8Y23905   9.169   1.472  12.024  0.2906 -1.6327 -0.1813
  193DOPC   C3923906   9.253   1.643  11.906 -0.4691  0.1423 -0.3406
  193DOPC   H9X23907   9.256   1.673  11.800 -1.0864  1.8229  0.0882
  193DOPC  C31023908   9.272   1.733  12.007 -0.1067 -0.1223 -0.0914
  193DOPC  H10X23909   9.309   1.835  11.987 -0.6665  0.0732 -0.1264
  193DOPC  C31123910   9.258   1.705  12.146 -0.2083  0.4918 -0.0380
  193DOPC  H11X23911   9.325   1.623  12.180  2.0356  1.8306 -0.9973
  193DOPC  H11Y23912   9.151   1.679  12.162 -0.2596 -0.1942 -1.3579
  193DOPC  C31223913   9.277   1.818  12.241  1.1885 -0.5104 -0.3218
  193DOPC  H12X23914   9.200   1.891  12.208 -1.0449 -2.1135  1.0296
  193DOPC  H12Y23915   9.382   1.853  12.238  1.6212 -1.7132  0.1829
  193DOPC  C31323916   9.224   1.785  12.384  0.0345 -0.0440 -0.5515
  193DOPC  H13X23917   9.241   1.874  12.448  2.0816  0.0526 -1.1691
  193DOPC  H13Y23918   9.116   1.761  12.384 -0.4205  1.7542 -2.2439
  193DOPC  C31423919   9.307   1.672  12.450 -0.1799  0.2938 -0.1571
  193DOPC  H14X23920   9.306   1.576  12.396  0.3273 -0.1468  0.5998
  193DOPC  H14Y23921   9.412   1.708  12.447  0.6267 -1.9773 -1.1219
  193DOPC  C31523922   9.262   1.641  12.590 -0.0391  0.2483 -0.0678
  193DOPC  H15X23923   9.215   1.541  12.579 -0.3715  0.5878 -2.1243
  193DOPC  H15Y23924   9.179   1.711  12.616  1.5866  1.8641  0.9787
  193DOPC  C31623925   9.376   1.617  12.685 -0.4036 -0.2578  0.5489
  193DOPC  H16X23926   9.452   1.559  12.628  1.3640  2.3251  0.0927
  193DOPC  H16Y23927   9.423   1.716  12.703 -1.4608  0.0142  2.0117
  193DOPC  C31723928   9.351   1.554  12.816  0.2453 -0.1189 -0.0086
  193DOPC  H17X23929   9.314   1.451  12.796 -1.2383 -0.0503  2.0291
  193DOPC  H17Y23930   9.436   1.556  12.887 -0.8918  0.2893  1.3902
  193DOPC  C31823931   9.241   1.633  12.879 -0.6192 -0.0627 -0.1064
  193DOPC  H18X23932   9.246   1.743  12.863  0.3203 -0.1325 -0.3100
  193DOPC  H18Y23933   9.141   1.592  12.853 -0.3275  0.2674 -1.8718
  193DOPC  H18Z23934   9.253   1.617  12.988  1.1307  1.0394 -0.0922
  194DOPC     N23935   1.552   6.700  10.383 -0.5815 -0.4136 -0.3371
  194DOPC   C1223936   1.564   6.760  10.528 -0.2141  0.2086  0.3131
  194DOPC  H12A23937   1.660   6.810  10.527  0.6075 -1.1982  2.2234
  194DOPC  H12B23938   1.569   6.669  10.586  0.4623 -1.1768 -1.7723
  194DOPC   C1323939   1.554   6.799  10.272  0.1547 -0.5239 -0.0029
  194DOPC  H13A23940   1.539   6.751  10.177 -0.3211  0.3193 -0.3623
  194DOPC  H13B23941   1.475   6.872  10.280  0.8587  0.3940 -1.1389
  194DOPC  H13C23942   1.650   6.847  10.258 -1.3405  2.3043 -1.5444
  194DOPC   C1423943   1.420   6.624  10.377 -0.4346  0.0838  0.0757
  194DOPC  H14A23944   1.347   6.697  10.411  0.5875  1.2074 -0.0756
  194DOPC  H14B23945   1.392   6.593  10.278  2.5366 -0.4985 -0.6874
  194DOPC  H14C23946   1.414   6.544  10.449  0.3681 -0.7500 -0.7703
  194DOPC   C1523947   1.674   6.608  10.360  0.3998  0.2376  0.5133
  194DOPC  H15A23948   1.657   6.548  10.272 -0.4791 -1.4346  1.7554
  194DOPC  H15B23949   1.681   6.538  10.442  0.8683  1.5638  1.6500
  194DOPC  H15C23950   1.772   6.653  10.357  0.3811  0.2886  0.6639
  194DOPC   C1123951   1.451   6.848  10.585 -0.0561 -0.3153  0.8007
  194DOPC  H11A23952   1.492   6.883  10.682  3.1720 -0.6428 -0.3105
  194DOPC  H11B23953   1.443   6.942  10.527  0.0781  0.0791  1.4049
  194DOPC     P23954   1.305   6.675  10.717 -0.0878  0.0269  0.3056
  194DOPC   O1323955   1.390   6.560  10.676  0.0770 -0.3508 -0.7793
  194DOPC   O1423956   1.160   6.644  10.738 -0.2872 -0.1102  0.3288
  194DOPC   O1223957   1.328   6.777  10.603 -0.1783  0.0013  0.2454
  194DOPC   O1123958   1.364   6.736  10.854 -0.0735 -0.3743  0.4572
  194DOPC    C123959   1.308   6.864  10.897 -1.0998 -0.0953  0.5351
  194DOPC    HA23960   1.198   6.871  10.878 -0.3787  1.3770 -4.4146
  194DOPC    HB23961   1.349   6.945  10.834  1.9458 -2.5733 -0.9634
  194DOPC    C223962   1.324   6.900  11.046 -0.3572 -0.4898 -0.5503
  194DOPC    HS23963   1.284   7.000  11.071  2.1893  0.4108  0.1769
  194DOPC   O2123964   1.458   6.885  11.085  0.0464  0.1414 -0.5086
  194DOPC   C2123965   1.524   6.996  11.096  0.5708 -0.0577  0.6017
  194DOPC   O2223966   1.494   7.110  11.060 -0.0897 -0.2969 -0.3246
  194DOPC   C2223967   1.657   6.970  11.166 -0.3095  0.1320 -0.1513
  194DOPC   H2R23968   1.711   7.067  11.162 -0.5573  0.3137  0.5971
  194DOPC   H2S23969   1.722   6.903  11.107  0.5407  0.9243 -0.1428
  194DOPC    C323970   1.232   6.807  11.130 -0.6812 -0.1719 -0.1907
  194DOPC    HX23971   1.275   6.706  11.117  0.2946  0.2439 -0.2915
  194DOPC    HY23972   1.129   6.807  11.089 -0.4955 -0.3582 -0.6631
  194DOPC   O3123973   1.239   6.850  11.270 -0.0663  0.1125  0.0821
  194DOPC   C3123974   1.176   6.767  11.349  0.2215  0.1278  0.0886
  194DOPC   O3223975   1.110   6.671  11.306  0.2883 -0.7784  0.2303
  194DOPC   C3223976   1.182   6.803  11.498 -0.0656  0.1033  0.4531
  194DOPC   H2X23977   1.288   6.788  11.529  0.5806  1.1036 -1.1728
  194DOPC   H2Y23978   1.163   6.909  11.526  1.0417  0.0134  1.6520
  194DOPC   C2323979   1.649   6.919  11.310 -0.4340 -0.1194  0.2492
  194DOPC   H3R23980   1.752   6.926  11.353 -0.3104  0.0472 -0.0763
  194DOPC   H3S23981   1.610   6.815  11.306 -1.1910  0.1998 -1.5987
  194DOPC   C2423982   1.559   7.006  11.396  0.1943 -0.3941  0.2603
  194DOPC   H4R23983   1.455   7.010  11.357  1.1545  1.0176 -2.4505
  194DOPC   H4S23984   1.589   7.113  11.401 -1.3092  0.0559  0.3570
  194DOPC   C2523985   1.559   6.967  11.549 -0.5280 -0.3754 -0.1560
  194DOPC   H5R23986   1.649   6.993  11.608  0.4169  1.1965 -2.1695
  194DOPC   H5S23987   1.555   6.856  11.555 -0.0730 -0.3036  3.2742
  194DOPC   C2623988   1.440   7.026  11.619  0.2881 -0.1843  0.3018
  194DOPC   H6R23989   1.424   6.983  11.721 -0.5490 -1.6650 -0.4193
  194DOPC   H6S23990   1.344   7.002  11.569  0.3490 -0.4817  0.3248
  194DOPC   C2723991   1.457   7.176  11.628 -0.5161 -0.3297 -0.1734
  194DOPC   H7R23992   1.476   7.226  11.531  0.6374  0.6741  0.5443
  194DOPC   H7S23993   1.553   7.193  11.682 -0.8817  2.4135 -0.2692
  194DOPC   C2823994   1.341   7.252  11.700  0.2563  0.3180 -0.0074
  194DOPC   H8R23995   1.367   7.258  11.808  0.5432  1.0935 -0.1175
  194DOPC   H8S23996   1.258   7.178  11.697  0.5106  0.0764 -2.5624
  194DOPC   C2923997   1.313   7.386  11.641  0.1112  0.2458  0.8665
  194DOPC   H9R23998   1.245   7.377  11.554 -0.3578 -2.8226  1.4494
  194DOPC  C21023999   1.348   7.513  11.676  0.5521  0.7651  0.1942
  194DOPC  H10R24000   1.302   7.600  11.626 -1.4481 -0.7093 -0.6251
  194DOPC  C21124001   1.438   7.542  11.796  0.4698  0.6168 -0.1671
  194DOPC  H11R24002   1.528   7.477  11.797 -2.2130 -3.5578  2.3704
  194DOPC  H11S24003   1.383   7.521  11.890 -1.1296 -0.8609 -1.3773
  194DOPC  C21224004   1.488   7.687  11.797  0.1690  0.5516 -0.6412
  194DOPC  H12R24005   1.407   7.762  11.789  0.4953  0.7184 -3.7473
  194DOPC  H12S24006   1.547   7.707  11.705 -0.3359 -2.6005 -1.7888
  194DOPC  C21324007   1.572   7.725  11.925  0.2576 -0.1020  0.5007
  194DOPC  H13R24008   1.606   7.831  11.920 -0.7890  0.2037 -0.4067
  194DOPC  H13S24009   1.662   7.660  11.934  0.1599 -0.3470 -0.2265
  194DOPC  C21424010   1.488   7.723  12.047 -0.2657 -0.5832 -0.3494
  194DOPC  H14R24011   1.494   7.619  12.087  1.3300 -0.3884 -0.0361
  194DOPC  H14S24012   1.385   7.753  12.017  0.1254  1.0664 -0.1484
  194DOPC  C21524013   1.546   7.815  12.155 -0.6733  0.3681 -0.2252
  194DOPC  H15R24014   1.557   7.921  12.125  0.2440  0.3222 -0.0788
  194DOPC  H15S24015   1.641   7.763  12.178 -0.4728  0.3735 -1.0281
  194DOPC  C21624016   1.466   7.827  12.286  1.0467 -0.7948 -0.1254
  194DOPC  H16R24017   1.450   7.722  12.318  0.8718 -1.4892 -2.3271
  194DOPC  H16S24018   1.368   7.875  12.266  0.4152  0.1040  4.0511
  194DOPC  C21724019   1.528   7.917  12.394 -0.8277 -0.4577 -0.5254
  194DOPC  H17R24020   1.467   7.904  12.486 -0.4315  0.1534 -0.1673
  194DOPC  H17S24021   1.527   8.021  12.354 -2.7013 -0.4472 -0.5315
  194DOPC  C21824022   1.672   7.878  12.439  0.6993  0.1207 -0.5331
  194DOPC  H18R24023   1.741   7.893  12.354 -0.1239  0.5374 -1.1368
  194DOPC  H18S24024   1.683   7.775  12.479  1.0313  0.5284  0.4576
  194DOPC  H18T24025   1.698   7.948  12.521  1.0880 -0.2797 -0.3108
  194DOPC   C3324026   1.097   6.710  11.580 -0.4401  0.2905 -0.0763
  194DOPC   H3X24027   1.136   6.608  11.564 -2.8558 -0.5785 -0.9581
  194DOPC   H3Y24028   0.990   6.708  11.549 -0.0656 -1.2586 -1.3593
  194DOPC   C3424029   1.106   6.742  11.729 -0.7717 -0.4359 -0.5132
  194DOPC   H4X24030   1.054   6.837  11.756 -1.7873 -0.6948 -1.5209
  194DOPC   H4Y24031   1.214   6.745  11.754 -0.6427  2.3416 -1.0729
  194DOPC   C3524032   1.054   6.637  11.829 -0.2761  0.0759  0.0464
  194DOPC   H5X24033   1.068   6.535  11.788 -0.4393 -0.9729  2.3930
  194DOPC   H5Y24034   0.943   6.640  11.819 -0.2801  1.7634  0.3004
  194DOPC   C3624035   1.076   6.662  11.978  0.3085 -0.2981 -0.4764
  194DOPC   H6X24036   1.183   6.650  12.008 -0.4414 -0.4997  2.3400
  194DOPC   H6Y24037   1.059   6.767  12.007  0.0413 -0.2754 -0.7122
  194DOPC   C3724038   1.003   6.572  12.087 -0.0929 -0.0595 -0.6305
  194DOPC   H7X24039   1.023   6.583  12.195 -0.3087  1.5340 -0.7341
  194DOPC   H7Y24040   0.896   6.601  12.097  0.4343  1.4012  1.2257
  194DOPC   C3824041   0.990   6.422  12.050 -0.4843  0.0199 -0.2805
  194DOPC   H8X24042   1.092   6.381  12.031  0.0165  0.4282  1.3725
  194DOPC   H8Y24043   0.933   6.427  11.955  0.6445  0.0899 -0.9763
  194DOPC   C3924044   0.924   6.341  12.156  1.4699  0.3599 -0.1637
  194DOPC   H9X24045   0.921   6.374  12.261 -0.3219 -0.3964  0.0743
  194DOPC  C31024046   0.872   6.219  12.131 -0.0530  0.1189  0.2719
  194DOPC  H10X24047   0.801   6.167  12.197 -1.9688  1.2053 -0.8349
  194DOPC  C31124048   0.894   6.151  11.996 -0.2176  0.7047 -0.3519
  194DOPC  H11X24049   0.908   6.041  12.004 -0.9031  0.1111 -4.6971
  194DOPC  H11Y24050   0.985   6.178  11.938 -0.1847 -1.7065 -1.5481
  194DOPC  C31224051   0.784   6.162  11.883 -0.4742  0.1919 -0.6912
  194DOPC  H12X24052   0.806   6.086  11.805  2.1057 -1.3376  1.3237
  194DOPC  H12Y24053   0.792   6.263  11.839  1.5937  0.2626 -0.2897
  194DOPC  C31324054   0.639   6.144  11.941  0.0793 -0.5570  0.0804
  194DOPC  H13X24055   0.635   6.201  12.037  3.3056 -1.7345  1.0481
  194DOPC  H13Y24056   0.568   6.192  11.871 -1.9185 -0.7047  1.8832
  194DOPC  C31424057   0.603   5.998  11.965 -0.1972  0.5945  0.5962
  194DOPC  H14X24058   0.689   5.942  12.010 -0.6476 -1.3685 -0.8097
  194DOPC  H14Y24059   0.513   5.977  12.026 -1.2131 -0.1308 -1.0560
  194DOPC  C31524060   0.582   5.925  11.827  0.1688  0.1943 -0.4716
  194DOPC  H15X24061   0.579   5.816  11.846 -0.8021 -0.0085 -1.6383
  194DOPC  H15Y24062   0.663   5.946  11.754 -0.3525  3.3704 -0.2699
  194DOPC  C31624063   0.450   5.951  11.751 -0.8954 -0.0675  0.6481
  194DOPC  H16X24064   0.361   5.932  11.815 -2.9753  0.2622 -1.9540
  194DOPC  H16Y24065   0.447   6.055  11.714  0.8116 -0.6130 -1.1760
  194DOPC  C31724066   0.437   5.860  11.625 -0.5548 -0.3130  0.0293
  194DOPC  H17X24067   0.393   5.765  11.664 -1.9329 -0.1492 -1.0467
  194DOPC  H17Y24068   0.348   5.895  11.569 -0.9525 -0.7799  0.3542
  194DOPC  C31824069   0.551   5.861  11.521 -0.4833  0.1186  0.4236
  194DOPC  H18X24070   0.531   5.777  11.451 -0.3913 -0.6559  1.2888
  194DOPC  H18Y24071   0.558   5.955  11.463 -1.2179  0.8818  1.5134
  194DOPC  H18Z24072   0.651   5.831  11.558  0.6036  1.2524 -1.4575
  195DOPC     N24073   5.849   7.092  10.089  0.1049  0.2340 -0.3780
  195DOPC   C1224074   5.897   7.017  10.211 -0.4667 -0.3540 -0.5566
  195DOPC  H12A24075   5.983   7.067  10.252 -0.2495  0.1935 -1.6679
  195DOPC  H12B24076   5.937   6.919  10.186 -0.1677 -0.1644 -0.8212
  195DOPC   C1324077   5.933   7.057   9.971 -0.3843  0.2683 -0.4471
  195DOPC  H13A24078   5.914   7.104   9.875  2.4565  0.4238 -1.0365
  195DOPC  H13B24079   6.036   7.084   9.993 -0.2427 -0.6337  0.0146
  195DOPC  H13C24080   5.934   6.951   9.953 -0.8345  0.2311 -0.2435
  195DOPC   C1424081   5.855   7.242  10.110 -0.1812  0.2416  0.2389
  195DOPC  H14A24082   5.956   7.278  10.108  0.2880 -0.9884  1.1342
  195DOPC  H14B24083   5.796   7.291  10.034 -0.7357 -1.7968 -0.7138
  195DOPC  H14C24084   5.803   7.261  10.203  2.4869  1.4157  1.5874
  195DOPC   C1524085   5.714   7.049  10.041  0.2382  0.1095  0.5163
  195DOPC  H15A24086   5.644   7.059  10.123  0.8580  2.1334  0.8677
  195DOPC  H15B24087   5.725   6.947  10.009 -0.3729  0.2894 -0.2768
  195DOPC  H15C24088   5.673   7.114   9.965 -1.3870 -0.9284  0.4796
  195DOPC   C1124089   5.789   6.999  10.321  0.1361  0.1623  0.2912
  195DOPC  H11A24090   5.714   6.932  10.273 -1.1659  0.9769  1.1382
  195DOPC  H11B24091   5.836   6.937  10.399  2.1300 -0.2100 -1.1155
  195DOPC     P24092   5.814   7.218  10.463 -0.1475  0.0639  0.2542
  195DOPC   O1324093   5.746   7.345  10.482 -0.6002 -0.5547  0.5128
  195DOPC   O1424094   5.953   7.225  10.418  0.5596  0.0535  0.6810
  195DOPC   O1224095   5.733   7.120  10.367 -0.1065 -0.5887  0.0483
  195DOPC   O1124096   5.822   7.148  10.605  0.4548 -0.3326 -0.4649
  195DOPC    C124097   5.709   7.091  10.676 -0.0422 -0.3543  0.2264
  195DOPC    HA24098   5.748   6.995  10.716  1.4878  0.1267 -0.0320
  195DOPC    HB24099   5.622   7.069  10.610  0.5584 -1.3903 -0.2442
  195DOPC    C224100   5.675   7.175  10.797 -0.9163  0.2591 -0.7663
  195DOPC    HS24101   5.635   7.277  10.776  1.9171  2.1392  1.9799
  195DOPC   O2124102   5.800   7.199  10.865  0.6114 -0.3998 -0.2345
  195DOPC   C2124103   5.797   7.282  10.971  0.5752  0.1631 -0.5465
  195DOPC   O2224104   5.700   7.349  11.009 -0.3438 -0.2702  0.2982
  195DOPC   C2224105   5.925   7.267  11.050 -0.7646 -0.4997 -0.7378
  195DOPC   H2R24106   6.003   7.313  10.986  0.1094  0.2972  0.8367
  195DOPC   H2S24107   5.940   7.159  11.067 -1.3604 -0.2243  1.9615
  195DOPC    C324108   5.567   7.108  10.891  0.3440 -0.0215  1.1910
  195DOPC    HX24109   5.485   7.081  10.822  1.6052  0.2592 -0.4599
  195DOPC    HY24110   5.528   7.183  10.964  0.3394  2.2516 -0.9948
  195DOPC   O3124111   5.620   6.989  10.955 -0.1352 -0.6599  0.3412
  195DOPC   C3124112   5.642   6.997  11.079  0.4670 -0.1188 -1.2995
  195DOPC   O3224113   5.631   7.096  11.153 -0.1006 -0.1877 -0.9369
  195DOPC   C3224114   5.679   6.868  11.137  0.2288  0.3660  1.2489
  195DOPC   H2X24115   5.587   6.806  11.127  1.9053 -1.8601 -4.5104
  195DOPC   H2Y24116   5.749   6.821  11.065 -0.6120  2.0962 -0.7791
  195DOPC   C2324117   5.941   7.352  11.176  0.4471  0.6511 -0.0149
  195DOPC   H3R24118   5.911   7.458  11.162  2.9578  1.6929  1.7623
  195DOPC   H3S24119   6.049   7.360  11.200  0.3728  0.1024  0.5174
  195DOPC   C2424120   5.861   7.295  11.294 -0.0958  0.5202  0.2480
  195DOPC   H4R24121   5.880   7.186  11.294 -0.7100  0.3609  2.4054
  195DOPC   H4S24122   5.751   7.311  11.294  0.0189  1.9683 -2.7449
  195DOPC   C2524123   5.919   7.351  11.428 -0.6154 -0.0983  0.0009
  195DOPC   H5R24124   6.014   7.297  11.450  0.7729  1.3822 -1.9252
  195DOPC   H5S24125   5.850   7.321  11.509 -0.9972  1.0977  0.1386
  195DOPC   C2624126   5.930   7.505  11.439 -0.7890  0.4294 -1.3697
  195DOPC   H6R24127   6.005   7.533  11.363  0.0612 -0.3252 -0.8386
  195DOPC   H6S24128   5.974   7.516  11.541 -1.2149 -2.1526 -0.8254
  195DOPC   C2724129   5.791   7.572  11.438  0.5028  0.6272  0.3338
  195DOPC   H7R24130   5.730   7.544  11.526 -0.4900 -2.2740 -1.1353
  195DOPC   H7S24131   5.747   7.538  11.342  1.1463 -1.3483  0.6945
  195DOPC   C2824132   5.793   7.729  11.436 -0.3693 -0.1448 -0.2611
  195DOPC   H8R24133   5.855   7.763  11.522  1.5358  1.0745 -2.0199
  195DOPC   H8S24134   5.687   7.759  11.452 -1.1335 -1.2627 -2.7917
  195DOPC   C2924135   5.844   7.793  11.311  0.1094  0.6888  0.1042
  195DOPC   H9R24136   5.904   7.722  11.251 -0.6023 -0.3578  0.5954
  195DOPC  C21024137   5.820   7.915  11.265 -0.0614 -0.1028  0.5851
  195DOPC  H10R24138   5.836   7.945  11.161 -2.4039 -1.4901 -0.2418
  195DOPC  C21124139   5.745   8.010  11.357 -1.0843 -1.1153 -0.5020
  195DOPC  H11R24140   5.667   7.962  11.419 -0.2846 -0.1032  1.3560
  195DOPC  H11S24141   5.701   8.096  11.303  1.1614 -0.2924 -1.1360
  195DOPC  C21224142   5.840   8.067  11.463  0.1611 -0.8723 -0.4792
  195DOPC  H12R24143   5.942   8.082  11.422 -0.8354  0.9551 -2.5028
  195DOPC  H12S24144   5.844   7.998  11.550  1.1106 -0.6154 -0.3166
  195DOPC  C21324145   5.791   8.203  11.524  0.1407 -0.1574  0.3647
  195DOPC  H13R24146   5.682   8.208  11.546 -0.4531 -0.0419 -2.2892
  195DOPC  H13S24147   5.813   8.275  11.443  1.7582 -0.0236  0.8790
  195DOPC  C21424148   5.873   8.238  11.645  0.7803 -0.1767  0.0805
  195DOPC  H14R24149   5.980   8.235  11.618  0.7965 -2.4261  0.2523
  195DOPC  H14S24150   5.856   8.170  11.731 -2.0436  0.5541  0.2120
  195DOPC  C21524151   5.850   8.384  11.690 -0.5770  0.1241 -0.4602
  195DOPC  H15R24152   5.739   8.386  11.695 -0.5785 -0.7043  0.0872
  195DOPC  H15S24153   5.884   8.457  11.613 -0.9821  0.9574  0.1318
  195DOPC  C21624154   5.895   8.403  11.833 -0.0872 -0.1676 -0.5723
  195DOPC  H16R24155   5.996   8.361  11.854 -0.2536 -0.4768 -0.3959
  195DOPC  H16S24156   5.829   8.338  11.893  0.9815  0.1043  0.9783
  195DOPC  C21724157   5.877   8.546  11.883 -0.0868 -0.5572 -0.5050
  195DOPC  H17R24158   5.768   8.569  11.875  0.2000  2.2625  1.8871
  195DOPC  H17S24159   5.931   8.625  11.827 -0.7717 -0.9230 -1.7267
  195DOPC  C21824160   5.906   8.559  12.032 -0.5931 -0.1739  0.2379
  195DOPC  H18R24161   5.846   8.485  12.091 -0.8148  0.4464  0.8007
  195DOPC  H18S24162   5.868   8.658  12.066 -4.1259 -1.1336 -0.4520
  195DOPC  H18T24163   6.013   8.550  12.060 -1.0265 -0.7488  1.8719
  195DOPC   C3324164   5.724   6.872  11.285  0.2496 -0.2211 -0.6688
  195DOPC   H3X24165   5.790   6.959  11.307 -0.5985  0.0535  0.9185
  195DOPC   H3Y24166   5.776   6.775  11.300  0.2382 -0.1069  0.1409
  195DOPC   C3424167   5.598   6.867  11.380 -0.2791 -0.7172  0.4291
  195DOPC   H4X24168   5.540   6.777  11.353 -2.9048  0.8873  0.3883
  195DOPC   H4Y24169   5.544   6.963  11.365  1.2047 -0.2681 -3.0022
  195DOPC   C3524170   5.643   6.842  11.529 -0.0565 -0.3022 -0.8139
  195DOPC   H5X24171   5.740   6.896  11.535  0.5804 -1.4176 -0.8083
  195DOPC   H5Y24172   5.687   6.740  11.539  1.7892  0.2176 -2.7674
  195DOPC   C3624173   5.535   6.871  11.634  0.1157  0.3495 -0.7063
  195DOPC   H6X24174   5.592   6.898  11.725  0.4278 -2.0547 -0.1165
  195DOPC   H6Y24175   5.482   6.962  11.599  0.1093 -0.2123 -2.2317
  195DOPC   C3724176   5.445   6.746  11.665 -0.7343 -0.6071 -0.0334
  195DOPC   H7X24177   5.362   6.788  11.724 -0.2995  0.2065  0.0166
  195DOPC   H7Y24178   5.402   6.711  11.569  1.2154 -1.3109 -0.7130
  195DOPC   C3824179   5.506   6.637  11.745 -0.0874  0.2732  0.1789
  195DOPC   H8X24180   5.579   6.573  11.691  0.1429  2.0613 -1.7468
  195DOPC   H8Y24181   5.418   6.576  11.774 -0.2696  0.5466  0.2133
  195DOPC   C3924182   5.571   6.682  11.867 -0.3812  0.3590 -0.9418
  195DOPC   H9X24183   5.663   6.741  11.855  0.7085 -1.3112 -1.2397
  195DOPC  C31024184   5.544   6.642  11.996 -0.5144 -0.2802 -0.3996
  195DOPC  H10X24185   5.597   6.674  12.087 -1.7598  0.9422 -0.0622
  195DOPC  C31124186   5.425   6.555  12.051  0.2708  0.0251 -0.1787
  195DOPC  H11X24187   5.338   6.551  11.981  0.5801 -1.4864 -0.5050
  195DOPC  H11Y24188   5.384   6.584  12.150 -0.5657  0.2031 -0.5678
  195DOPC  C31224189   5.458   6.400  12.064 -0.5609 -0.3352 -0.5205
  195DOPC  H12X24190   5.431   6.357  11.966 -3.3346 -0.8421  0.3687
  195DOPC  H12Y24191   5.377   6.360  12.129 -0.1040 -0.9061 -0.2957
  195DOPC  C31324192   5.594   6.356  12.128  0.1316 -0.0231 -0.2932
  195DOPC  H13X24193   5.675   6.396  12.064 -0.0872  0.5110 -0.2474
  195DOPC  H13Y24194   5.597   6.396  12.232  0.1012  0.5609 -0.5121
  195DOPC  C31424195   5.617   6.207  12.142  0.1159 -0.3575 -0.3552
  195DOPC  H14X24196   5.701   6.179  12.209  1.2647 -2.0430 -2.3512
  195DOPC  H14Y24197   5.525   6.153  12.173 -0.8952 -0.5298 -3.2735
  195DOPC  C31524198   5.639   6.142  12.008  0.2998  0.4847 -0.1331
  195DOPC  H15X24199   5.725   6.185  11.951  0.8982 -0.0835  0.3184
  195DOPC  H15Y24200   5.552   6.159  11.942 -0.5990 -1.1830  0.5630
  195DOPC  C31624201   5.675   5.993  12.019 -0.2260 -0.1382  0.8432
  195DOPC  H16X24202   5.676   5.955  11.914  1.9313  1.2737  0.2975
  195DOPC  H16Y24203   5.778   5.981  12.060  0.8495 -0.6895 -1.7467
  195DOPC  C31724204   5.579   5.911  12.098  0.6978  0.4678 -0.5557
  195DOPC  H17X24205   5.556   5.958  12.195  1.1149  0.4021 -0.4219
  195DOPC  H17Y24206   5.491   5.920  12.031  0.3427  0.3137 -0.1105
  195DOPC  C31824207   5.618   5.761  12.116 -0.9196 -0.0704  0.6036
  195DOPC  H18X24208   5.721   5.753  12.157 -0.3472 -0.0429 -0.7730
  195DOPC  H18Y24209   5.540   5.707  12.174 -2.8190  3.7177  1.8888
  195DOPC  H18Z24210   5.602   5.723  12.013 -1.3559  1.8030 -0.0555
  196DOPC     N24211   2.641   1.587  10.234 -0.4978  0.4932  0.5272
  196DOPC   C1224212   2.642   1.620  10.379  0.5276  0.3982  0.2230
  196DOPC  H12A24213   2.544   1.652  10.414  2.1022  1.7419  3.9659
  196DOPC  H12B24214   2.724   1.689  10.392  1.7722 -0.7587 -1.1100
  196DOPC   C1324215   2.774   1.532  10.198  0.1569 -0.0067 -0.4638
  196DOPC  H13A24216   2.775   1.478  10.105  0.2049 -1.2710  0.2451
  196DOPC  H13B24217   2.851   1.608  10.208 -0.0253 -0.1375  3.5881
  196DOPC  H13C24218   2.816   1.465  10.272 -0.5559  1.4342  1.3244
  196DOPC   C1424219   2.621   1.706  10.147  0.3359 -0.1687 -0.3081
  196DOPC  H14A24220   2.523   1.739  10.179 -0.6161 -2.1064 -1.0867
  196DOPC  H14B24221   2.701   1.778  10.158 -0.2840  0.5968 -0.6738
  196DOPC  H14C24222   2.597   1.681  10.045 -1.7626  1.2724 -0.2343
  196DOPC   C1524223   2.544   1.476  10.195 -0.5923 -0.4432 -0.2928
  196DOPC  H15A24224   2.438   1.490  10.211 -0.6789 -1.6719  0.3187
  196DOPC  H15B24225   2.570   1.384  10.245  0.1117 -0.4572 -0.6760
  196DOPC  H15C24226   2.552   1.461  10.088 -0.7912  2.5785 -0.8241
  196DOPC   C1124227   2.675   1.504  10.475  0.3901  0.6664 -0.1097
  196DOPC  H11A24228   2.779   1.475  10.450  0.6351  1.5793 -0.1905
  196DOPC  H11B24229   2.674   1.540  10.580 -1.3913  1.5451 -0.3730
  196DOPC     P24230   2.478   1.342  10.554  0.2420  0.3162  0.1551
  196DOPC   O1324231   2.357   1.301  10.478 -0.2267  0.6441 -0.2135
  196DOPC   O1424232   2.457   1.429  10.667  0.2733  0.5031 -0.6974
  196DOPC   O1224233   2.590   1.384  10.461  0.0350 -0.4998 -0.3597
  196DOPC   O1124234   2.540   1.207  10.600 -0.0998  0.0276  0.3581
  196DOPC    C124235   2.665   1.197  10.676 -0.3651 -0.4249  0.4890
  196DOPC    HA24236   2.687   1.292  10.728 -0.0461  0.1719 -0.6950
  196DOPC    HB24237   2.753   1.163  10.616  0.8389  1.9574  0.8110
  196DOPC    C224238   2.656   1.094  10.790 -0.7145  0.1356 -0.0568
  196DOPC    HS24239   2.636   0.995  10.745 -1.6365  0.6307 -0.7648
  196DOPC   O2124240   2.548   1.131  10.881  0.0119  0.6244 -0.3058
  196DOPC   C2124241   2.513   1.029  10.970  0.1421  0.3775  0.0054
  196DOPC   O2224242   2.557   0.918  10.967 -0.6290 -0.9404  0.4837
  196DOPC   C2224243   2.414   1.084  11.069 -0.5357 -0.2098 -0.5163
  196DOPC   H2R24244   2.340   1.150  11.019  0.6339  0.7467 -1.0461
  196DOPC   H2S24245   2.484   1.132  11.141  0.4011  0.8530 -2.0669
  196DOPC    C324246   2.786   1.082  10.870  0.1292  0.1631 -0.4796
  196DOPC    HX24247   2.866   1.040  10.805  2.1046  0.7900  1.3977
  196DOPC    HY24248   2.776   1.017  10.960  1.0796 -0.9065 -1.1143
  196DOPC   O3124249   2.825   1.216  10.913  0.3166  0.6608 -0.4358
  196DOPC   C3124250   2.793   1.253  11.035 -0.0889  0.0570 -0.8280
  196DOPC   O3224251   2.734   1.187  11.117 -0.3479  0.3651 -0.1040
  196DOPC   C3224252   2.841   1.396  11.053 -0.4876 -0.0317 -1.0147
  196DOPC   H2X24253   2.922   1.423  10.983  0.5457  3.5641  1.3219
  196DOPC   H2Y24254   2.758   1.469  11.039 -1.1042  0.1328  2.4096
  196DOPC   C2324255   2.342   0.965  11.137 -0.9840  0.7443  0.7195
  196DOPC   H3R24256   2.424   0.909  11.186  1.1341  3.1650  0.1728
  196DOPC   H3S24257   2.284   0.905  11.064 -1.7517 -0.1018  1.9836
  196DOPC   C2424258   2.236   1.009  11.241 -1.4783  0.0520 -0.5263
  196DOPC   H4R24259   2.146   1.047  11.189 -1.0302 -0.6406 -1.8578
  196DOPC   H4S24260   2.286   1.091  11.298  1.8324 -1.0226 -1.6183
  196DOPC   C2524261   2.194   0.900  11.339 -0.1298 -0.0871 -0.2504
  196DOPC   H5R24262   2.288   0.847  11.366 -0.8812 -0.9423  0.7489
  196DOPC   H5S24263   2.128   0.829  11.285 -0.4949  1.5306 -2.0337
  196DOPC   C2624264   2.131   0.956  11.463  0.3185  0.3336 -0.0109
  196DOPC   H6R24265   2.198   1.036  11.502  0.3683 -1.0645  3.0403
  196DOPC   H6S24266   2.127   0.876  11.539  0.4752 -1.5383 -1.8811
  196DOPC   C2724267   1.985   0.998  11.434 -0.4547 -0.1208 -0.6753
  196DOPC   H7R24268   1.924   0.922  11.380 -1.1661 -0.3465  0.4217
  196DOPC   H7S24269   1.992   1.085  11.366  0.2686  1.3196  1.1505
  196DOPC   C2824270   1.908   1.051  11.553 -0.4137 -0.1698 -0.0468
  196DOPC   H8R24271   1.831   1.114  11.504 -0.3499 -1.4922 -1.9516
  196DOPC   H8S24272   1.979   1.104  11.621  3.1733 -2.3306 -1.7788
  196DOPC   C2924273   1.845   0.947  11.632  0.7680  0.5389 -0.2706
  196DOPC   H9R24274   1.874   0.844  11.606 -2.0758 -0.6517  0.8710
  196DOPC  C21024275   1.734   0.965  11.702  0.4652 -0.4568 -0.1291
  196DOPC  H10R24276   1.708   0.880  11.768  0.4083 -0.0031  0.4429
  196DOPC  C21124277   1.659   1.095  11.712 -0.5479 -0.0850 -0.5342
  196DOPC  H11R24278   1.552   1.090  11.684 -0.9596  3.2917  0.0866
  196DOPC  H11S24279   1.706   1.175  11.651  0.7850  0.3467  0.9955
  196DOPC  C21224280   1.660   1.132  11.865 -0.1395 -0.2113 -0.1677
  196DOPC  H12R24281   1.764   1.147  11.901 -0.4074  2.2285 -0.2559
  196DOPC  H12S24282   1.613   1.053  11.927  2.4809 -0.3342  1.8538
  196DOPC  C21324283   1.575   1.264  11.878 -0.4986 -0.3687 -0.3957
  196DOPC  H13R24284   1.493   1.264  11.802 -0.9167  1.0198  0.0362
  196DOPC  H13S24285   1.623   1.359  11.847 -1.8145  0.2376 -0.6827
  196DOPC  C21424286   1.494   1.263  12.006  0.3415  0.2150 -0.5818
  196DOPC  H14R24287   1.435   1.169  12.005  2.7485 -1.3996 -1.2718
  196DOPC  H14S24288   1.430   1.353  12.005 -0.3282 -0.2028  1.1666
  196DOPC  C21524289   1.586   1.260  12.135  1.1917  0.7746 -0.5888
  196DOPC  H15R24290   1.676   1.323  12.119  0.7282  1.7163  0.4036
  196DOPC  H15S24291   1.630   1.159  12.154  3.2935  1.9043  0.8392
  196DOPC  C21624292   1.499   1.287  12.259  0.4283  0.2338  0.3964
  196DOPC  H16R24293   1.417   1.213  12.269  0.7497 -0.5563 -2.1209
  196DOPC  H16S24294   1.449   1.384  12.240  1.3031  0.5458 -0.3573
  196DOPC  C21724295   1.597   1.296  12.378  0.3555  0.0951 -0.9847
  196DOPC  H17R24296   1.668   1.381  12.372  0.7796  0.2103  2.8479
  196DOPC  H17S24297   1.651   1.199  12.372 -1.1152 -0.7512 -1.0601
  196DOPC  C21824298   1.519   1.287  12.513  0.0544 -0.2079 -0.2969
  196DOPC  H18R24299   1.471   1.383  12.541 -1.5866 -1.3854  1.2019
  196DOPC  H18S24300   1.587   1.253  12.594  0.9923  0.0891 -0.9448
  196DOPC  H18T24301   1.442   1.209  12.499  0.1939 -0.1030 -1.8351
  196DOPC   C3324302   2.905   1.426  11.192 -0.1923  0.3024  0.2362
  196DOPC   H3X24303   2.994   1.490  11.170 -0.0229 -0.3474 -0.9950
  196DOPC   H3Y24304   2.949   1.331  11.230  0.6621  0.0037 -1.4139
  196DOPC   C3424305   2.812   1.498  11.296 -0.0013  0.2985 -0.8208
  196DOPC   H4X24306   2.717   1.439  11.298 -2.7085  4.2516  0.5997
  196DOPC   H4Y24307   2.789   1.598  11.254 -1.8458 -0.5695 -2.0035
  196DOPC   C3524308   2.879   1.507  11.427  0.5591 -0.0340 -0.2749
  196DOPC   H5X24309   2.951   1.423  11.434 -1.9957 -2.8231 -3.9150
  196DOPC   H5Y24310   2.801   1.516  11.505  0.6792  1.2579 -0.2669
  196DOPC   C3624311   2.959   1.644  11.434 -0.2797  1.2825  0.3311
  196DOPC   H6X24312   3.019   1.636  11.341  0.2216 -0.3631  0.7452
  196DOPC   H6Y24313   2.886   1.727  11.438 -1.8634 -0.0859  1.3186
  196DOPC   C3724314   3.065   1.647  11.560 -0.2338 -0.2843  0.5560
  196DOPC   H7X24315   3.130   1.557  11.550 -0.6322 -0.5159 -0.0276
  196DOPC   H7Y24316   3.126   1.739  11.545 -2.3278  0.7698 -2.5415
  196DOPC   C3824317   3.006   1.635  11.701 -0.6832 -0.5423  0.4540
  196DOPC   H8X24318   2.949   1.540  11.712  0.5442 -1.2356  0.9503
  196DOPC   H8Y24319   2.930   1.711  11.728 -0.9459 -1.0352  1.1466
  196DOPC   C3924320   3.117   1.645  11.801 -0.8197 -0.9380  0.3093
  196DOPC   H9X24321   3.179   1.555  11.812  0.5535 -0.1735 -0.8095
  196DOPC  C31024322   3.163   1.749  11.872  0.6126  0.1297  0.8836
  196DOPC  H10X24323   3.255   1.737  11.932  1.3811  1.1161 -0.0473
  196DOPC  C31124324   3.115   1.893  11.860 -0.1892  0.1003 -0.5814
  196DOPC  H11X24325   3.011   1.903  11.823  0.3939  0.5673 -2.1973
  196DOPC  H11Y24326   3.180   1.944  11.785 -0.0484 -1.2123 -1.3767
  196DOPC  C31224327   3.115   1.966  11.995  0.2255 -0.3955 -0.5608
  196DOPC  H12X24328   3.046   1.921  12.070  2.0707  0.1175  1.5647
  196DOPC  H12Y24329   3.085   2.072  11.978 -1.0179 -0.5512  0.4574
  196DOPC  C31324330   3.244   1.973  12.074 -0.2350  0.8735 -0.6534
  196DOPC  H13X24331   3.273   1.868  12.098 -2.3578  0.1506 -1.0386
  196DOPC  H13Y24332   3.328   2.026  12.024 -1.6031  2.4446 -1.3838
  196DOPC  C31424333   3.234   2.038  12.215  0.2992 -0.7834  0.3736
  196DOPC  H14X24334   3.223   2.148  12.203 -1.7525 -0.6641  2.5556
  196DOPC  H14Y24335   3.141   2.007  12.267  0.4871 -0.5241  0.8645
  196DOPC  C31524336   3.349   2.005  12.308  0.4448 -0.6646  0.2380
  196DOPC  H15X24337   3.345   1.896  12.329 -1.0025 -0.6424  0.1707
  196DOPC  H15Y24338   3.336   2.069  12.398  2.0097  1.3393 -0.8845
  196DOPC  C31624339   3.486   2.046  12.244  0.8125 -0.4104  0.9082
  196DOPC  H16X24340   3.566   2.036  12.320  0.4602  0.1045  1.3463
  196DOPC  H16Y24341   3.498   1.971  12.162 -1.9757  0.8747 -0.7915
  196DOPC  C31724342   3.501   2.196  12.195  0.5193  1.1108 -0.6338
  196DOPC  H17X24343   3.583   2.203  12.120  0.7199 -1.8778 -0.8011
  196DOPC  H17Y24344   3.408   2.219  12.139 -0.3785  1.8005  1.0678
  196DOPC  C31824345   3.514   2.297  12.308 -0.2184  0.1211  0.2425
  196DOPC  H18X24346   3.547   2.395  12.268  2.0453  0.2423  2.1956
  196DOPC  H18Y24347   3.414   2.312  12.356  0.6533  0.8626  1.9258
  196DOPC  H18Z24348   3.577   2.255  12.390 -0.8492  0.7543  1.0799
  197DOPC     N24349   0.528   7.617  10.743 -0.3930 -0.0580 -0.2141
  197DOPC   C1224350   0.446   7.559  10.858 -1.0474  0.0293  0.2464
  197DOPC  H12A24351   0.371   7.633  10.881  1.2768  2.3426  0.9806
  197DOPC  H12B24352   0.506   7.550  10.948 -0.3044  0.1567 -0.2234
  197DOPC   C1324353   0.569   7.761  10.764  0.5013  0.4021  0.5615
  197DOPC  H13A24354   0.635   7.763  10.850 -0.2478 -0.1734  1.1566
  197DOPC  H13B24355   0.626   7.795  10.679  1.8542 -2.5568  0.1363
  197DOPC  H13C24356   0.481   7.820  10.782  0.6017 -0.4979  5.3004
  197DOPC   C1424357   0.452   7.612  10.619 -0.1388 -0.5969  0.8964
  197DOPC  H14A24358   0.436   7.509  10.594 -1.1711 -0.1171 -0.5357
  197DOPC  H14B24359   0.359   7.662  10.641 -0.1363 -0.4426  0.5526
  197DOPC  H14C24360   0.508   7.657  10.538 -0.5847 -2.0269 -0.2396
  197DOPC   C1524361   0.654   7.532  10.732 -0.2742  0.0481  0.1130
  197DOPC  H15A24362   0.699   7.505  10.826 -0.5881  1.3499  0.6491
  197DOPC  H15B24363   0.730   7.592  10.684  0.9258 -0.9002  0.7472
  197DOPC  H15C24364   0.642   7.444  10.670 -0.2259  0.7138 -0.8714
  197DOPC   C1124365   0.384   7.418  10.837 -0.3873  0.5298 -0.0250
  197DOPC  H11A24366   0.464   7.357  10.790  1.9758  1.8264  2.1051
  197DOPC  H11B24367   0.352   7.359  10.925 -2.0218 -0.5005 -1.2397
  197DOPC     P24368   0.129   7.483  10.794 -0.1304 -0.3311  0.2316
  197DOPC   O1324369   0.036   7.449  10.685  0.0752 -0.8755 -0.3819
  197DOPC   O1424370   0.141   7.623  10.836  0.6189  0.0373 -0.4259
  197DOPC   O1224371   0.267   7.420  10.754 -1.0051 -0.3097 -0.1298
  197DOPC   O1124372   0.093   7.394  10.913 -0.5092  0.4953 -0.7003
  197DOPC    C124373   0.030   7.444  11.031  0.0583  0.5416 -0.4523
  197DOPC    HA24374  -0.031   7.363  11.076  1.0376  0.2093  0.3127
  197DOPC    HB24375  -0.032   7.536  11.018  0.5313  1.0615  0.7721
  197DOPC    C224376   0.136   7.486  11.134  0.2653 -0.0370 -0.6103
  197DOPC    HS24377   0.204   7.555  11.079 -0.3080 -0.6684 -2.1767
  197DOPC   O2124378   0.204   7.365  11.177  0.3901 -0.4760  0.0821
  197DOPC   C2124379   0.336   7.375  11.201  0.6882 -0.4469  0.2251
  197DOPC   O2224380   0.393   7.482  11.196 -0.2335  0.1794  0.0550
  197DOPC   C2224381   0.401   7.248  11.237 -0.5015  0.1081 -0.2520
  197DOPC   H2R24382   0.478   7.230  11.159  0.4150  0.2167  0.6168
  197DOPC   H2S24383   0.325   7.168  11.220 -0.6661  0.1114  0.4529
  197DOPC    C324384   0.069   7.549  11.259 -0.1946 -1.4069  0.1642
  197DOPC    HX24385  -0.002   7.474  11.300 -2.1380  1.1547  1.8047
  197DOPC    HY24386   0.007   7.641  11.248  1.7927 -0.1279 -1.0260
  197DOPC   O3124387   0.165   7.574  11.362 -0.6535  0.5947 -0.9861
  197DOPC   C3124388   0.247   7.673  11.367  0.3486  0.1568  0.0898
  197DOPC   O3224389   0.237   7.770  11.292 -0.0245 -0.3873 -0.2231
  197DOPC   C3224390   0.350   7.653  11.475 -1.1213  0.1947 -0.8698
  197DOPC   H2X24391   0.296   7.679  11.568 -0.9207 -0.1177 -0.6642
  197DOPC   H2Y24392   0.367   7.543  11.480 -0.1486  0.3936  0.8667
  197DOPC   C2324393   0.470   7.248  11.376 -0.1020 -0.9270 -0.7370
  197DOPC   H3R24394   0.538   7.336  11.376  0.5260 -1.2356  3.1555
  197DOPC   H3S24395   0.533   7.157  11.377  0.4782 -0.5567  1.0774
  197DOPC   C2424396   0.374   7.266  11.488  0.2116  0.0185  0.3206
  197DOPC   H4R24397   0.334   7.166  11.511  2.7210 -1.1674 -0.1510
  197DOPC   H4S24398   0.284   7.326  11.460  0.4140  0.9166  1.5182
  197DOPC   C2524399   0.446   7.325  11.605  0.0009  0.0850 -0.4995
  197DOPC   H5R24400   0.506   7.409  11.564 -1.1442  0.0308 -2.3792
  197DOPC   H5S24401   0.516   7.245  11.639  0.1815  1.1870  1.9856
  197DOPC   C2624402   0.350   7.355  11.719  0.0052 -0.4511 -0.1901
  197DOPC   H6R24403   0.319   7.257  11.762 -0.6177 -0.1899 -0.0361
  197DOPC   H6S24404   0.255   7.410  11.702  0.5558 -0.1431 -2.5685
  197DOPC   C2724405   0.435   7.429  11.825  0.8504 -0.3539  0.2946
  197DOPC   H7R24406   0.473   7.523  11.779 -2.2357  0.0856 -1.6603
  197DOPC   H7S24407   0.517   7.358  11.851  0.4594 -0.0604  2.4673
  197DOPC   C2824408   0.359   7.485  11.943  0.0945  0.2552 -0.8921
  197DOPC   H8R24409   0.319   7.583  11.909 -3.7048 -1.0291 -0.6613
  197DOPC   H8S24410   0.432   7.508  12.023 -0.4371 -1.1888  0.0347
  197DOPC   C2924411   0.241   7.404  11.995  0.0894 -0.2739 -0.4391
  197DOPC   H9R24412   0.173   7.351  11.927  0.5472 -2.7764  0.8964
  197DOPC  C21024413   0.193   7.412  12.127 -0.0496 -0.4824  0.1237
  197DOPC  H10R24414   0.110   7.342  12.143  0.3577 -1.6012 -2.2708
  197DOPC  C21124415   0.268   7.478  12.242  0.5730 -0.0573 -0.1795
  197DOPC  H11R24416   0.377   7.462  12.227  0.8638 -0.2835  1.9791
  197DOPC  H11S24417   0.243   7.416  12.331 -0.4579  0.9225  0.2349
  197DOPC  C21224418   0.225   7.631  12.246  0.1157  0.3115  0.9624
  197DOPC  H12R24419   0.123   7.636  12.290  0.3842 -3.1907  2.3010
  197DOPC  H12S24420   0.234   7.676  12.144 -0.1046  0.0751  0.8375
  197DOPC  C21324421   0.316   7.709  12.338  0.7251 -0.3478 -0.4282
  197DOPC  H13R24422   0.420   7.706  12.298  0.7036 -0.2121 -0.4948
  197DOPC  H13S24423   0.325   7.652  12.433  1.1034 -1.9929 -1.4164
  197DOPC  C21424424   0.281   7.860  12.367  0.2972  0.7198 -0.2288
  197DOPC  H14R24425   0.171   7.876  12.362  0.3926  1.8260  0.8264
  197DOPC  H14S24426   0.325   7.919  12.284 -2.3745 -1.7697 -3.7518
  197DOPC  C21524427   0.344   7.919  12.494  0.2841  0.1903  0.0834
  197DOPC  H15R24428   0.453   7.930  12.478  0.2095  1.7519  0.4693
  197DOPC  H15S24429   0.337   7.853  12.583  0.5680 -0.7064 -0.5555
  197DOPC  C21624430   0.284   8.062  12.518  0.1339  0.3451  0.6215
  197DOPC  H16R24431   0.183   8.066  12.565 -0.3490 -0.7358 -0.2887
  197DOPC  H16S24432   0.277   8.118  12.422  0.6991  0.1589  0.4687
  197DOPC  C21724433   0.375   8.147  12.605  0.9208  0.0857 -0.5172
  197DOPC  H17R24434   0.473   8.156  12.554  1.6690  1.8863  1.1365
  197DOPC  H17S24435   0.410   8.104  12.701  1.0941  4.0854  1.4211
  197DOPC  C21824436   0.317   8.291  12.639 -0.0091 -0.1591 -0.7551
  197DOPC  H18R24437   0.222   8.297  12.696  0.5556 -0.4821  0.2545
  197DOPC  H18S24438   0.300   8.346  12.544 -2.4312  0.9449  0.2562
  197DOPC  H18T24439   0.393   8.339  12.704 -1.6442  0.4623  0.7574
  197DOPC   C3324440   0.480   7.729  11.451 -0.5756 -0.0967  0.0009
  197DOPC   H3X24441   0.469   7.839  11.440  1.0783 -0.0493 -1.5012
  197DOPC   H3Y24442   0.518   7.702  11.351 -2.8034 -0.5048 -0.8062
  197DOPC   C3424443   0.583   7.703  11.570  0.4049  0.2377  0.2334
  197DOPC   H4X24444   0.602   7.594  11.572  0.3016  0.2270  0.8702
  197DOPC   H4Y24445   0.532   7.718  11.668  0.0331 -0.6712  0.1819
  197DOPC   C3524446   0.718   7.770  11.557 -0.4450 -0.1372 -0.1464
  197DOPC   H5X24447   0.692   7.877  11.567  1.0998  0.1156  1.7812
  197DOPC   H5Y24448   0.765   7.743  11.460 -0.6709 -1.4081  0.0724
  197DOPC   C3624449   0.824   7.744  11.672  0.4136 -0.2924  0.9227
  197DOPC   H6X24450   0.764   7.746  11.765 -2.9420  0.4634 -1.1039
  197DOPC   H6Y24451   0.856   7.638  11.662 -0.9484 -0.6017 -0.5962
  197DOPC   C3724452   0.941   7.842  11.684  0.2825  0.3251 -0.2962
  197DOPC   H7X24453   1.020   7.806  11.614  3.4838  0.5923  2.9329
  197DOPC   H7Y24454   0.902   7.944  11.659  0.7613  0.4298 -0.6450
  197DOPC   C3824455   0.992   7.847  11.824  0.2588 -0.3828 -1.0083
  197DOPC   H8X24456   0.906   7.859  11.893 -0.6102 -0.0108 -2.1209
  197DOPC   H8Y24457   1.056   7.938  11.830 -0.3476 -0.0350  0.5598
  197DOPC   C3924458   1.064   7.721  11.866 -0.0336 -0.2573  0.5195
  197DOPC   H9X24459   1.155   7.701  11.808 -0.8338 -2.8538  0.0285
  197DOPC  C31024460   1.029   7.644  11.971 -0.4337 -0.0125  0.7761
  197DOPC  H10X24461   1.092   7.554  11.978  1.4732  0.6375 -4.2063
  197DOPC  C31124462   0.926   7.671  12.079 -0.2952  0.5442 -0.0113
  197DOPC  H11X24463   0.901   7.776  12.104  0.7824  0.0484  3.7153
  197DOPC  H11Y24464   0.965   7.635  12.176 -0.4046  1.4451  0.3789
  197DOPC  C31224465   0.785   7.610  12.056  0.4892 -0.5748 -0.0577
  197DOPC  H12X24466   0.799   7.501  12.043 -0.4163 -0.6393 -0.5866
  197DOPC  H12Y24467   0.743   7.659  11.965  2.0074 -0.3453 -0.6753
  197DOPC  C31324468   0.694   7.629  12.175  0.0430 -0.0645 -0.0491
  197DOPC  H13X24469   0.681   7.738  12.194  2.6769  0.5092 -1.1321
  197DOPC  H13Y24470   0.594   7.587  12.152 -1.7084  2.7859  1.7232
  197DOPC  C31424471   0.735   7.564  12.314 -0.2985  0.2850  0.4713
  197DOPC  H14X24472   0.707   7.457  12.305  0.5298  0.1618 -1.0952
  197DOPC  H14Y24473   0.843   7.564  12.337  0.1217  2.9840 -1.0401
  197DOPC  C31524474   0.658   7.616  12.434  0.4767  0.0347  0.0174
  197DOPC  H15X24475   0.551   7.591  12.415 -0.3443  2.8710  0.4932
  197DOPC  H15Y24476   0.678   7.725  12.441 -0.7728  0.3919 -1.4195
  197DOPC  C31624477   0.693   7.528  12.561 -0.1123  0.2994  0.4682
  197DOPC  H16X24478   0.675   7.421  12.539 -0.5916  0.6032 -0.7020
  197DOPC  H16Y24479   0.798   7.557  12.580 -0.2660  0.5252  1.0026
  197DOPC  C31724480   0.604   7.571  12.681 -0.7301  0.6826  0.3706
  197DOPC  H17X24481   0.606   7.682  12.689  2.5188  0.8362 -1.0596
  197DOPC  H17Y24482   0.500   7.536  12.661 -0.7932 -0.7547  2.8450
  197DOPC  C31824483   0.649   7.501  12.811  0.6499  0.1478  0.5359
  197DOPC  H18X24484   0.565   7.503  12.885  0.5946 -2.6814  0.6599
  197DOPC  H18Y24485   0.674   7.397  12.784  0.5800  0.0399  0.8836
  197DOPC  H18Z24486   0.738   7.559  12.844  2.0376  0.2795 -2.9945
  198DOPC     N24487   6.988   6.224  10.810  0.5806 -0.4567  0.2160
  198DOPC   C1224488   7.083   6.114  10.862  0.3510  0.8175  0.0105
  198DOPC  H12A24489   7.169   6.161  10.909  0.3944  1.2672 -0.5196
  198DOPC  H12B24490   7.127   6.062  10.778 -1.2145  1.8961 -1.5394
  198DOPC   C1324491   6.876   6.164  10.743  0.4278 -0.1804 -0.2401
  198DOPC  H13A24492   6.908   6.102  10.661  2.0892 -0.2185  0.4137
  198DOPC  H13B24493   6.826   6.087  10.801  1.8258 -2.0714 -1.4365
  198DOPC  H13C24494   6.807   6.240  10.709  1.1993 -0.4666 -2.5922
  198DOPC   C1424495   7.061   6.308  10.713  0.1038 -0.4311  0.3098
  198DOPC  H14A24496   7.095   6.234  10.641  1.5955  1.0463 -0.5826
  198DOPC  H14B24497   6.999   6.371  10.650  1.0254 -1.3180 -1.5939
  198DOPC  H14C24498   7.150   6.359  10.746 -1.3977  2.7036 -0.1251
  198DOPC   C1524499   6.940   6.316  10.923  0.8478 -0.7217 -0.0795
  198DOPC  H15A24500   7.022   6.361  10.977  0.4285  3.7729 -2.6579
  198DOPC  H15B24501   6.888   6.263  11.001 -0.0313  1.9463  1.2983
  198DOPC  H15C24502   6.881   6.399  10.887  1.8185  0.1957  0.3758
  198DOPC   C1124503   7.032   6.010  10.963  0.0648 -0.5819  0.5458
  198DOPC  H11A24504   7.118   5.946  10.994 -0.6696 -1.6392  0.4279
  198DOPC  H11B24505   6.995   6.061  11.055 -0.4220  3.0664 -1.4977
  198DOPC     P24506   6.948   5.806  10.817 -0.5109  0.2478 -0.0576
  198DOPC   O1324507   7.049   5.828  10.713  0.0747  0.2627 -1.0238
  198DOPC   O1424508   6.818   5.766  10.768 -0.1163 -0.2383  0.1876
  198DOPC   O1224509   6.934   5.932  10.907  0.4461  0.2529 -0.5908
  198DOPC   O1124510   7.007   5.708  10.926  0.1658  0.1498 -0.0447
  198DOPC    C124511   6.917   5.647  11.027 -0.7065 -0.1500 -0.0553
  198DOPC    HA24512   6.947   5.542  11.049  0.1209 -0.1310 -1.0389
  198DOPC    HB24513   6.810   5.659  11.002 -0.2590  1.1480 -1.5564
  198DOPC    C224514   6.921   5.724  11.169 -0.7186  0.5300 -0.4445
  198DOPC    HS24515   6.860   5.816  11.156 -0.5161  1.1912  2.5827
  198DOPC   O2124516   7.065   5.747  11.199 -0.2408 -0.6331  0.1820
  198DOPC   C2124517   7.072   5.850  11.281  0.4370 -0.3775 -0.0946
  198DOPC   O2224518   6.988   5.939  11.297 -0.1298  0.3840  0.2230
  198DOPC   C2224519   7.209   5.835  11.356  0.3577  0.9995 -0.1632
  198DOPC   H2R24520   7.281   5.807  11.276  0.3429 -1.1709  0.5226
  198DOPC   H2S24521   7.206   5.744  11.419  0.8949  0.6160 -0.6781
  198DOPC    C324522   6.848   5.638  11.290 -0.1892 -0.5408  0.0126
  198DOPC    HX24523   6.913   5.550  11.310 -1.1801 -0.9895  1.3971
  198DOPC    HY24524   6.755   5.596  11.248  0.1381  0.6463 -2.0217
  198DOPC   O3124525   6.837   5.712  11.413 -0.0813 -0.6846 -0.0104
  198DOPC   C3124526   6.729   5.795  11.412 -0.1897 -0.0001 -0.0624
  198DOPC   O3224527   6.656   5.813  11.322  0.0048 -0.1101  0.4561
  198DOPC   C3224528   6.716   5.852  11.552  0.1848 -0.3652  0.1376
  198DOPC   H2X24529   6.805   5.914  11.578 -0.5640 -0.0056  1.9929
  198DOPC   H2Y24530   6.635   5.927  11.553 -0.0537 -0.5567 -1.7314
  198DOPC   C2324531   7.253   5.969  11.423  0.1976  0.0332 -0.3165
  198DOPC   H3R24532   7.172   6.013  11.485 -1.9617 -0.9543 -2.2924
  198DOPC   H3S24533   7.275   6.045  11.345  2.1613 -0.4205 -0.2490
  198DOPC   C2424534   7.385   5.949  11.500 -0.3193  0.1426 -0.1674
  198DOPC   H4R24535   7.458   5.893  11.437 -0.2487 -2.2663  1.8930
  198DOPC   H4S24536   7.361   5.877  11.581 -0.6934 -0.8257 -1.1314
  198DOPC   C2524537   7.440   6.086  11.559  0.0990  0.1115  0.4108
  198DOPC   H5R24538   7.368   6.137  11.626  0.1941 -0.3271  0.8509
  198DOPC   H5S24539   7.453   6.152  11.471  0.1971  0.7936  0.9307
  198DOPC   C2624540   7.566   6.063  11.643  1.0462 -0.0278  0.6219
  198DOPC   H6R24541   7.648   6.035  11.573  0.0162  0.0705 -0.6809
  198DOPC   H6S24542   7.549   5.983  11.718 -0.5143  0.1024  0.4428
  198DOPC   C2724543   7.608   6.195  11.715 -0.0150 -0.5749 -0.5874
  198DOPC   H7R24544   7.525   6.220  11.784  0.7804  1.9508 -0.4562
  198DOPC   H7S24545   7.608   6.283  11.648 -0.0087  0.5086  0.7875
  198DOPC   C2824546   7.738   6.176  11.797  0.7943 -0.4663  0.1261
  198DOPC   H8R24547   7.824   6.162  11.729 -1.1459 -1.2321 -2.3346
  198DOPC   H8S24548   7.722   6.078  11.847 -0.7894 -1.2634 -1.8054
  198DOPC   C2924549   7.773   6.285  11.898  1.3993  0.0927  0.4882
  198DOPC   H9R24550   7.838   6.358  11.848  2.2706 -0.9620  0.0514
  198DOPC  C21024551   7.725   6.290  12.028 -0.2503 -0.3219 -0.5137
  198DOPC  H10R24552   7.755   6.380  12.083  1.4704 -0.1004 -1.7197
  198DOPC  C21124553   7.631   6.196  12.101 -0.1098 -0.8345  1.0279
  198DOPC  H11R24554   7.686   6.161  12.191  0.2809 -2.0465  0.3503
  198DOPC  H11S24555   7.615   6.107  12.035  2.4943  0.5196 -1.7246
  198DOPC  C21224556   7.497   6.256  12.152 -0.1514 -0.6911 -0.7759
  198DOPC  H12R24557   7.440   6.316  12.078 -1.3175  0.2312  0.8032
  198DOPC  H12S24558   7.517   6.338  12.225 -0.9976 -0.5770 -0.6592
  198DOPC  C21324559   7.411   6.145  12.208  0.2152  0.5721  0.6154
  198DOPC  H13R24560   7.466   6.093  12.290 -0.3111  0.4010  0.8616
  198DOPC  H13S24561   7.394   6.076  12.122  1.1691  3.1197 -1.7631
  198DOPC  C21424562   7.274   6.195  12.256 -0.2771  0.7657  0.1023
  198DOPC  H14R24563   7.247   6.284  12.196  1.4987  1.2905  0.0344
  198DOPC  H14S24564   7.299   6.222  12.361  0.4574 -0.1018  0.1671
  198DOPC  C21524565   7.163   6.091  12.241 -0.6878  0.1451 -0.3646
  198DOPC  H15R24566   7.206   5.991  12.263 -1.2393 -0.1343 -0.5390
  198DOPC  H15S24567   7.131   6.074  12.136  0.4460 -1.9735 -0.4191
  198DOPC  C21624568   7.050   6.111  12.338  0.2814  0.4916  0.7557
  198DOPC  H16R24569   7.014   6.210  12.302  0.7616  0.4489  0.1465
  198DOPC  H16S24570   7.085   6.114  12.443 -0.0521 -2.0675  1.0041
  198DOPC  C21724571   6.946   5.997  12.334 -0.2341  0.4535 -0.7761
  198DOPC  H17R24572   6.990   5.902  12.374  0.1141  1.4096  1.2664
  198DOPC  H17S24573   6.903   5.989  12.232 -0.4718  0.8914 -0.7080
  198DOPC  C21824574   6.825   6.025  12.428  0.0670  0.2827 -0.3944
  198DOPC  H18R24575   6.766   6.113  12.394  1.2587  0.5940 -1.7583
  198DOPC  H18S24576   6.868   6.050  12.527 -1.5326 -2.2441  1.0536
  198DOPC  H18T24577   6.769   5.929  12.434  1.4844 -0.5107  0.6510
  198DOPC   C3324578   6.701   5.756  11.669  0.2466  0.6791  0.2822
  198DOPC   H3X24579   6.790   5.691  11.682  1.2034  2.1742  1.5019
  198DOPC   H3Y24580   6.613   5.689  11.654  0.8905 -0.4027  1.1694
  198DOPC   C3424581   6.664   5.836  11.790  0.2710 -0.5609  0.4605
  198DOPC   H4X24582   6.559   5.873  11.778  0.7487  0.3668 -1.3084
  198DOPC   H4Y24583   6.732   5.923  11.784  0.5925 -0.7890  0.8392
  198DOPC   C3524584   6.701   5.779  11.926  0.3790  0.0343 -0.2275
  198DOPC   H5X24585   6.802   5.734  11.914  0.3373 -0.0578 -0.2345
  198DOPC   H5Y24586   6.648   5.682  11.929  1.0643 -0.4063 -1.4649
  198DOPC   C3624587   6.683   5.880  12.045  0.1070  0.2306  0.0960
  198DOPC   H6X24588   6.744   5.839  12.129 -0.6468 -1.3874 -0.1044
  198DOPC   H6Y24589   6.713   5.983  12.016 -1.2474  0.2097 -1.4991
  198DOPC   C3724590   6.538   5.902  12.104  0.4751 -0.7237  0.2839
  198DOPC   H7X24591   6.543   5.981  12.181  0.6037  0.4225 -0.8710
  198DOPC   H7Y24592   6.481   5.943  12.018 -0.7879  0.1945  1.5102
  198DOPC   C3824593   6.484   5.770  12.155  0.4518 -0.3544 -1.0452
  198DOPC   H8X24594   6.555   5.740  12.236  0.1771  4.7213  1.4437
  198DOPC   H8Y24595   6.495   5.687  12.082  0.7275  0.4603 -1.9462
  198DOPC   C3924596   6.348   5.776  12.212 -0.1856 -0.0517  0.1506
  198DOPC   H9X24597   6.293   5.692  12.166 -1.1306  1.0430 -0.7736
  198DOPC  C31024598   6.296   5.840  12.314 -1.0393 -0.5972 -0.2108
  198DOPC  H10X24599   6.187   5.833  12.324 -1.0809  0.8164  0.6543
  198DOPC  C31124600   6.369   5.940  12.410 -0.1345  0.3302  0.0871
  198DOPC  H11X24601   6.460   5.990  12.372 -0.0546  1.0183  1.1548
  198DOPC  H11Y24602   6.414   5.891  12.498  0.3735 -0.1604 -0.4380
  198DOPC  C31224603   6.277   6.055  12.451  0.9451  0.2681 -0.1750
  198DOPC  H12X24604   6.192   6.030  12.518 -0.5707  0.3780 -1.9803
  198DOPC  H12Y24605   6.227   6.103  12.365 -0.7965  3.1986  2.2339
  198DOPC  C31324606   6.354   6.172  12.513 -0.6193 -0.2839  0.5470
  198DOPC  H13X24607   6.432   6.126  12.577  0.0611 -2.1502 -1.4798
  198DOPC  H13Y24608   6.412   6.208  12.425 -1.0683 -0.2143  0.2772
  198DOPC  C31424609   6.273   6.282  12.560  0.7057  0.3066 -0.6409
  198DOPC  H14X24610   6.354   6.357  12.573  2.0331 -1.3337  1.0307
  198DOPC  H14Y24611   6.198   6.327  12.490 -1.8462 -0.3201  1.5236
  198DOPC  C31524612   6.208   6.246  12.692 -0.1200 -0.2255 -0.1478
  198DOPC  H15X24613   6.289   6.210  12.759  0.3595 -0.3178 -0.7760
  198DOPC  H15Y24614   6.136   6.165  12.667  1.7027 -1.6524 -0.9294
  198DOPC  C31624615   6.141   6.365  12.767  0.0834 -0.4737 -0.2860
  198DOPC  H16X24616   6.227   6.434  12.781  2.0279 -2.7997  0.0215
  198DOPC  H16Y24617   6.070   6.406  12.693  0.3711  1.0882  0.2716
  198DOPC  C31724618   6.068   6.349  12.899  0.6877  0.0655  0.3251
  198DOPC  H17X24619   6.136   6.295  12.969 -0.8681 -1.8475  0.4540
  198DOPC  H17Y24620   6.054   6.455  12.930 -0.5648 -0.0509  0.2208
  198DOPC  C31824621   5.940   6.264  12.897 -0.4566 -0.3323 -0.1620
  198DOPC  H18X24622   5.886   6.276  12.994 -1.2238  1.1551 -0.7495
  198DOPC  H18Y24623   5.871   6.299  12.818  0.9876  0.3463 -1.1657
  198DOPC  H18Z24624   5.976   6.161  12.878  2.2904  0.8709 -1.9988
  199DOPC     N24625   6.925   0.127  10.481 -0.5355  0.1407  0.2168
  199DOPC   C1224626   6.873   0.175  10.620 -0.0856  0.6005 -0.6875
  199DOPC  H12A24627   6.855   0.088  10.681 -0.3477  1.0898 -0.0561
  199DOPC  H12B24628   6.779   0.226  10.615 -1.6714 -2.1994 -1.9709
  199DOPC   C1324629   6.979   0.241  10.395 -0.8639  0.2774 -0.5610
  199DOPC  H13A24630   6.898   0.301  10.356 -0.6757  1.1275  0.3206
  199DOPC  H13B24631   7.055   0.306  10.437 -1.5037  1.1311 -0.7019
  199DOPC  H13C24632   7.031   0.195  10.312  1.4391 -2.8390  2.3315
  199DOPC   C1424633   6.813   0.066  10.400  0.4308  0.0843  0.6077
  199DOPC  H14A24634   6.745   0.006  10.458  0.8244 -0.7642  0.1986
  199DOPC  H14B24635   6.747   0.146  10.368  0.8012 -0.1022 -0.6720
  199DOPC  H14C24636   6.854   0.021  10.311 -0.0098 -0.7619  0.8291
  199DOPC   C1524637   7.030   0.021  10.494  0.2786  0.1758 -0.5333
  199DOPC  H15A24638   7.009  -0.042  10.580 -1.0097  0.5277 -0.5738
  199DOPC  H15B24639   7.127   0.067  10.508 -0.1555  0.9698 -0.0841
  199DOPC  H15C24640   7.039  -0.041  10.406 -1.8636 -0.4303 -0.3731
  199DOPC   C1124641   6.966   0.259  10.713  0.0131 -0.1490  0.1219
  199DOPC  H11A24642   6.915   0.279  10.810  1.2139  0.7675  0.5838
  199DOPC  H11B24643   7.055   0.204  10.748  0.9247  1.7919  1.0016
  199DOPC     P24644   6.903   0.512  10.650 -0.0662  0.2442 -0.1391
  199DOPC   O1324645   6.782   0.475  10.576  0.1531  0.0665 -0.0193
  199DOPC   O1424646   6.967   0.634  10.608 -0.3494 -0.0826  0.1647
  199DOPC   O1224647   7.002   0.387  10.652 -0.1483 -0.2517 -0.0446
  199DOPC   O1124648   6.856   0.533  10.799  0.3700  0.2038  0.3771
  199DOPC    C124649   6.949   0.600  10.886  0.7411  0.1130 -0.3225
  199DOPC    HA24650   7.028   0.662  10.838 -0.2322  3.1963  1.7797
  199DOPC    HB24651   6.990   0.520  10.951 -2.0773  0.2444  1.7780
  199DOPC    C224652   6.871   0.704  10.973  0.1914 -0.5308  0.0088
  199DOPC    HS24653   6.961   0.736  11.031  0.5661 -0.9049 -0.3580
  199DOPC   O2124654   6.770   0.659  11.068  0.3269 -0.2272 -0.4733
  199DOPC   C2124655   6.803   0.567  11.154 -0.1016 -0.1476  0.0646
  199DOPC   O2224656   6.915   0.525  11.174  0.1414 -0.2217  0.4247
  199DOPC   C2224657   6.672   0.515  11.218 -0.3027  0.6696  0.1183
  199DOPC   H2R24658   6.626   0.460  11.134  0.7706  1.4657 -1.0202
  199DOPC   H2S24659   6.609   0.603  11.245  0.0823  1.2511 -0.8307
  199DOPC    C324660   6.817   0.830  10.894  0.1894  0.3666 -0.2867
  199DOPC    HX24661   6.725   0.786  10.852 -1.0399  0.6985  1.9000
  199DOPC    HY24662   6.895   0.859  10.821  0.2287 -0.7794 -0.7141
  199DOPC   O3124663   6.778   0.931  10.990  0.2586  0.1226  0.6156
  199DOPC   C3124664   6.809   1.052  10.954 -0.1634  0.1723  0.4702
  199DOPC   O3224665   6.849   1.085  10.842  0.4303  0.1081  0.0805
  199DOPC   C3224666   6.783   1.151  11.064 -0.1773 -0.3564 -0.0935
  199DOPC   H2X24667   6.674   1.140  11.084 -0.5710  0.8482 -1.4322
  199DOPC   H2Y24668   6.837   1.117  11.155 -0.7814 -0.8192  0.1007
  199DOPC   C2324669   6.702   0.428  11.345 -0.2339  0.7001 -0.2466
  199DOPC   H3R24670   6.765   0.345  11.306 -2.1936 -1.1516  0.3592
  199DOPC   H3S24671   6.604   0.378  11.359 -0.4626  0.1217 -3.2658
  199DOPC   C2424672   6.742   0.509  11.466  0.2260  0.1239 -0.7986
  199DOPC   H4R24673   6.663   0.585  11.485  0.5217  0.2311  0.0526
  199DOPC   H4S24674   6.840   0.554  11.442 -0.2217  0.8337 -1.3351
  199DOPC   C2524675   6.755   0.425  11.598 -0.2050  0.2986  0.2405
  199DOPC   H5R24676   6.865   0.405  11.599 -0.4294 -1.0909  1.5862
  199DOPC   H5S24677   6.702   0.330  11.575 -0.4866  0.0346  1.8729
  199DOPC   C2624678   6.728   0.490  11.736  0.8793 -0.2810  0.1536
  199DOPC   H6R24679   6.622   0.522  11.740  1.4394  1.6488  3.1002
  199DOPC   H6S24680   6.791   0.581  11.750 -1.9386  2.0533 -1.1784
  199DOPC   C2724681   6.735   0.385  11.854 -0.3237  0.1379 -0.5373
  199DOPC   H7R24682   6.816   0.315  11.825 -0.8178 -0.3878 -0.6707
  199DOPC   H7S24683   6.640   0.327  11.851 -0.2219 -0.0018 -1.1800
  199DOPC   C2824684   6.756   0.439  11.995 -0.2665  0.0815  0.4362
  199DOPC   H8R24685   6.846   0.505  11.995 -0.6466  0.6379  1.9613
  199DOPC   H8S24686   6.786   0.358  12.065 -1.7641 -0.5685  0.3581
  199DOPC   C2924687   6.633   0.503  12.050  0.7300 -0.2103 -0.2961
  199DOPC   H9R24688   6.542   0.446  12.029 -0.7346  1.2988  1.5709
  199DOPC  C21024689   6.605   0.614  12.119  0.1802 -0.4532 -0.3261
  199DOPC  H10R24690   6.502   0.636  12.148  0.1258 -1.5242  0.3330
  199DOPC  C21124691   6.702   0.720  12.163 -0.2207 -0.8783  0.0964
  199DOPC  H11R24692   6.802   0.671  12.164  0.6345  0.7840  1.4147
  199DOPC  H11S24693   6.688   0.757  12.267 -1.4075 -0.6996 -0.1137
  199DOPC  C21224694   6.718   0.851  12.081 -0.2908  0.5672  0.3747
  199DOPC  H12R24695   6.782   0.927  12.131  0.8485  2.4046 -3.4457
  199DOPC  H12S24696   6.619   0.901  12.066  0.2312  2.0384  1.5324
  199DOPC  C21324697   6.779   0.826  11.936  0.1615  0.1982  0.2552
  199DOPC  H13R24698   6.697   0.781  11.876 -0.6152  0.8922  0.7739
  199DOPC  H13S24699   6.867   0.758  11.938 -0.5512 -0.8033 -0.7330
  199DOPC  C21424700   6.820   0.959  11.860  1.0978 -0.1718  0.0969
  199DOPC  H14R24701   6.730   1.010  11.819  1.6622  2.7672  2.1926
  199DOPC  H14S24702   6.867   0.924  11.766 -0.7871  1.2374 -1.4543
  199DOPC  C21524703   6.909   1.044  11.945  0.2522  0.8113  0.3693
  199DOPC  H15R24704   6.983   0.980  11.997  0.1211  0.7675  0.5030
  199DOPC  H15S24705   6.848   1.108  12.012 -1.7649 -1.0818  0.4625
  199DOPC  C21624706   7.009   1.125  11.862  0.0596 -0.1466  0.5805
  199DOPC  H16R24707   6.969   1.208  11.800  1.5256  0.1724  0.0081
  199DOPC  H16S24708   7.047   1.059  11.781 -1.2116  1.1231 -1.1276
  199DOPC  C21724709   7.119   1.200  11.951  0.2667  0.1542  0.4241
  199DOPC  H17R24710   7.164   1.129  12.023 -2.2730 -1.0413  0.9384
  199DOPC  H17S24711   7.067   1.281  12.006  1.2341  2.3435 -1.6727
  199DOPC  C21824712   7.232   1.271  11.867  1.1689 -0.2698  0.2018
  199DOPC  H18R24713   7.302   1.325  11.934  1.4291 -0.1193 -0.1867
  199DOPC  H18S24714   7.179   1.354  11.815 -0.2261 -0.1793  1.6828
  199DOPC  H18T24715   7.285   1.195  11.806  3.4319  1.8956 -0.6867
  199DOPC   C3324716   6.818   1.301  11.035  0.7185 -0.2557 -0.1137
  199DOPC   H3X24717   6.770   1.363  11.113 -0.1205 -2.7875  1.4953
  199DOPC   H3Y24718   6.770   1.339  10.942  1.8098  0.0503 -0.5687
  199DOPC   C3424719   6.967   1.335  11.034 -0.2374 -0.4542 -0.4496
  199DOPC   H4X24720   7.022   1.291  10.948 -0.5736 -0.2506 -0.7713
  199DOPC   H4Y24721   7.014   1.284  11.121 -1.9088 -1.6216 -0.1833
  199DOPC   C3524722   6.992   1.489  11.064  0.5515 -0.1739  0.9171
  199DOPC   H5X24723   7.098   1.513  11.085  0.5147  1.5481 -0.5899
  199DOPC   H5Y24724   6.921   1.512  11.146  0.6360  0.1506  0.8978
  199DOPC   C3624725   6.951   1.576  10.942 -0.3260  0.4452  0.4879
  199DOPC   H6X24726   6.991   1.541  10.844 -1.6677  0.0745  0.0527
  199DOPC   H6Y24727   6.841   1.570  10.927 -0.3085  2.4538 -0.8344
  199DOPC   C3724728   6.984   1.724  10.963  0.1280 -0.5387  0.1394
  199DOPC   H7X24729   7.079   1.726  11.020 -0.3809 -0.5328  1.0073
  199DOPC   H7Y24730   7.006   1.764  10.862 -1.2651 -0.1831 -0.0392
  199DOPC   C3824731   6.879   1.813  11.032  0.9495  0.6332 -0.1317
  199DOPC   H8X24732   6.858   1.768  11.132 -1.0261  0.3709 -0.6267
  199DOPC   H8Y24733   6.781   1.793  10.983  1.0078 -1.5820  0.5175
  199DOPC   C3924734   6.916   1.959  11.038  0.0351  0.1591 -0.2410
  199DOPC   H9X24735   6.938   2.004  10.940  2.4282 -0.6825 -0.1503
  199DOPC  C31024736   6.928   2.044  11.140 -0.3279  0.0492  0.4590
  199DOPC  H10X24737   6.957   2.150  11.131  0.0552 -0.0991 -0.1399
  199DOPC  C31124738   6.901   2.006  11.283 -0.3362  0.1071  0.2984
  199DOPC  H11X24739   6.986   2.037  11.348 -0.9746 -0.6977  1.5577
  199DOPC  H11Y24740   6.899   1.895  11.291  5.8461 -0.7043 -3.0888
  199DOPC  C31224741   6.775   2.075  11.347 -0.1024 -0.0265  0.5015
  199DOPC  H12X24742   6.694   2.079  11.271  0.7963  0.7340 -0.4439
  199DOPC  H12Y24743   6.819   2.177  11.356  3.0967 -1.3016  0.6068
  199DOPC  C31324744   6.732   2.025  11.486  0.0188 -0.0332 -0.2729
  199DOPC  H13X24745   6.654   2.086  11.537  0.4434 -0.8628  1.4293
  199DOPC  H13Y24746   6.699   1.919  11.483 -2.0386  0.5307  0.6754
  199DOPC  C31424747   6.850   2.038  11.590  0.0151 -0.4502 -0.2600
  199DOPC  H14X24748   6.941   1.982  11.560  1.2598  2.0349 -1.3865
  199DOPC  H14Y24749   6.890   2.141  11.583 -1.2852 -0.0291 -2.3103
  199DOPC  C31524750   6.817   2.005  11.738  0.0869  0.3285 -0.6959
  199DOPC  H15X24751   6.776   1.902  11.744  0.5395  0.1268 -1.0196
  199DOPC  H15Y24752   6.741   2.073  11.782  1.4478  0.0655  2.2925
  199DOPC  C31624753   6.940   2.031  11.820 -0.0922  0.2088  0.5490
  199DOPC  H16X24754   7.027   1.972  11.782 -0.3112 -1.0158  1.8478
  199DOPC  H16Y24755   6.954   2.141  11.812  2.1957  0.0537  1.5985
  199DOPC  C31724756   6.926   1.984  11.969 -0.5121 -0.5699  0.8873
  199DOPC  H17X24757   6.841   2.036  12.017  0.0527  0.3768  0.8849
  199DOPC  H17Y24758   6.907   1.875  11.960  2.1918 -1.0250 -0.2714
  199DOPC  C31824759   7.047   2.014  12.047  0.3872 -0.2077 -0.4281
  199DOPC  H18X24760   7.124   1.941  12.012 -0.1446 -0.7777 -0.4275
  199DOPC  H18Y24761   7.080   2.119  12.039 -1.8224  0.8520  2.5658
  199DOPC  H18Z24762   7.025   1.996  12.154  0.4174  0.3874 -0.3184
  200DOPC     N24763   1.160   0.885  10.299  0.3885 -0.2609 -0.6151
  200DOPC   C1224764   1.169   0.916  10.446 -0.0203 -0.0286 -0.0681
  200DOPC  H12A24765   1.069   0.898  10.485 -0.6504 -1.4863 -2.1629
  200DOPC  H12B24766   1.183   1.022  10.454  0.2972  0.0126 -1.0330
  200DOPC   C1324767   1.117   0.741  10.285 -0.5080 -0.2272  0.2958
  200DOPC  H13A24768   1.092   0.719  10.183  2.3800  2.4691 -1.1673
  200DOPC  H13B24769   1.198   0.676  10.315 -0.8903 -0.3939  0.9867
  200DOPC  H13C24770   1.034   0.709  10.347 -0.2281  1.8366  1.8439
  200DOPC   C1424771   1.291   0.897  10.225 -0.0862  0.0275 -0.4496
  200DOPC  H14A24772   1.314   1.002  10.224 -0.1668  0.2051  3.1552
  200DOPC  H14B24773   1.375   0.846  10.271  1.7723  2.0262 -1.4591
  200DOPC  H14C24774   1.283   0.866  10.122  0.3845  0.7185 -0.7016
  200DOPC   C1524775   1.066   0.983  10.238  0.1022 -0.5099  0.2744
  200DOPC  H15A24776   0.972   0.968  10.290 -0.1865  0.6759  0.1186
  200DOPC  H15B24777   1.064   0.967  10.131 -1.5271 -0.1059  0.2090
  200DOPC  H15C24778   1.100   1.083  10.257  0.7327 -0.8374  0.8928
  200DOPC   C1124779   1.268   0.835  10.533 -0.5963  0.4009  0.0681
  200DOPC  H11A24780   1.375   0.860  10.518 -0.6944  0.5726 -0.3441
  200DOPC  H11B24781   1.239   0.870  10.634  3.0208  0.2601  1.3190
  200DOPC     P24782   1.359   0.590  10.498 -0.1409  0.3388 -0.1636
  200DOPC   O1324783   1.416   0.628  10.367 -0.2529 -0.2311 -0.4608
  200DOPC   O1424784   1.301   0.455  10.523 -0.1509  0.0320  0.3062
  200DOPC   O1224785   1.241   0.697  10.531 -0.0712  0.5098  0.2623
  200DOPC   O1124786   1.472   0.615  10.603 -0.0499  0.1577 -0.3568
  200DOPC    C124787   1.482   0.543  10.727 -0.1683 -0.2695 -0.0348
  200DOPC    HA24788   1.582   0.571  10.765 -0.2422 -1.4284  1.0484
  200DOPC    HB24789   1.464   0.434  10.724  0.4178 -0.4437  1.7694
  200DOPC    C224790   1.378   0.597  10.835  0.3204  0.1628 -0.3534
  200DOPC    HS24791   1.278   0.580  10.789  0.7625  1.3460 -1.8377
  200DOPC   O2124792   1.416   0.740  10.856  0.1098  0.1153 -0.0717
  200DOPC   C2124793   1.310   0.815  10.860  0.0320  0.4921  0.0707
  200DOPC   O2224794   1.191   0.785  10.860 -0.1094 -0.1179 -0.0461
  200DOPC   C2224795   1.360   0.961  10.888  0.5039 -0.6931 -0.0489
  200DOPC   H2R24796   1.429   0.993  10.807  1.7465 -2.1982  0.3539
  200DOPC   H2S24797   1.419   0.965  10.982 -0.4431 -2.0213  0.6349
  200DOPC    C324798   1.376   0.518  10.969  0.1396 -0.4436  0.5068
  200DOPC    HX24799   1.482   0.501  10.997  1.1937  3.1403 -0.7205
  200DOPC    HY24800   1.335   0.416  10.950 -1.5264  0.0116  1.4376
  200DOPC   O3124801   1.316   0.591  11.076  0.5811 -0.2348 -0.2190
  200DOPC   C3124802   1.180   0.576  11.081 -0.0443  0.0744 -0.1290
  200DOPC   O3224803   1.116   0.516  10.998 -0.3985  0.0649  0.2793
  200DOPC   C3224804   1.118   0.641  11.201 -0.8377  0.3204 -0.3146
  200DOPC   H2X24805   1.008   0.632  11.191 -0.7537  0.5826 -1.6392
  200DOPC   H2Y24806   1.166   0.600  11.293 -0.3524 -0.4403 -0.8889
  200DOPC   C2324807   1.241   1.057  10.920 -0.2455  0.8410 -0.7272
  200DOPC   H3R24808   1.144   1.005  10.930  1.1592 -2.0763 -1.2173
  200DOPC   H3S24809   1.226   1.126  10.834  2.4999  0.7794 -1.3609
  200DOPC   C2424810   1.261   1.137  11.054 -1.1373  0.2363  0.0229
  200DOPC   H4R24811   1.353   1.199  11.045 -1.4889  0.7994  0.2511
  200DOPC   H4S24812   1.266   1.071  11.142 -2.5770  2.2748  1.7393
  200DOPC   C2524813   1.144   1.235  11.088 -0.0735  0.0526 -0.7671
  200DOPC   H5R24814   1.173   1.278  11.187 -1.3163 -0.7329 -0.0344
  200DOPC   H5S24815   1.055   1.171  11.108 -0.3272  1.1758  2.2580
  200DOPC   C2624816   1.099   1.333  10.984 -0.6907 -0.5393  0.1828
  200DOPC   H6R24817   1.017   1.400  11.017 -3.1014 -2.6853 -1.1498
  200DOPC   H6S24818   1.059   1.266  10.905  0.1449  0.3862 -1.0726
  200DOPC   C2724819   1.220   1.408  10.912  0.3209 -0.6152  0.9219
  200DOPC   H7R24820   1.173   1.478  10.839  1.8910 -0.4366  0.0459
  200DOPC   H7S24821   1.286   1.342  10.853  0.0872  0.2681 -0.3810
  200DOPC   C2824822   1.287   1.511  11.005 -0.1784  0.4836 -0.3762
  200DOPC   H8R24823   1.367   1.459  11.061  1.3400  1.7525 -1.2671
  200DOPC   H8S24824   1.214   1.540  11.084  0.1150  1.1409 -0.3363
  200DOPC   C2924825   1.333   1.644  10.951 -0.5313 -0.1413 -1.1111
  200DOPC   H9R24826   1.277   1.672  10.861 -1.0052 -1.0467 -1.1129
  200DOPC  C21024827   1.438   1.711  10.998  0.0636  0.5416  0.3097
  200DOPC  H10R24828   1.465   1.806  10.949 -1.0915  0.8130  0.1580
  200DOPC  C21124829   1.534   1.684  11.116  0.4470 -0.7678 -0.5727
  200DOPC  H11R24830   1.631   1.737  11.107  0.7319 -1.0224  0.8222
  200DOPC  H11S24831   1.553   1.576  11.103 -1.4726 -1.0472 -1.4728
  200DOPC  C21224832   1.464   1.714  11.250 -0.2178  0.0591  0.3833
  200DOPC  H12R24833   1.369   1.657  11.263 -0.5573  0.6617  0.5814
  200DOPC  H12S24834   1.446   1.823  11.260 -2.9011 -0.3034  0.2193
  200DOPC  C21324835   1.563   1.700  11.367  0.7366  0.0453  0.2127
  200DOPC  H13R24836   1.641   1.777  11.346  1.4744  0.1199  2.8014
  200DOPC  H13S24837   1.624   1.607  11.365 -0.4271 -0.8432 -4.3433
  200DOPC  C21424838   1.493   1.722  11.498  0.4096 -0.1446  0.2266
  200DOPC  H14R24839   1.418   1.643  11.517 -1.2532  1.1837 -0.4996
  200DOPC  H14S24840   1.459   1.828  11.499  4.2731  1.2731  2.3196
  200DOPC  C21524841   1.605   1.718  11.608 -0.0216 -0.5973 -0.3794
  200DOPC  H15R24842   1.695   1.779  11.583  0.5040 -1.0148  0.4301
  200DOPC  H15S24843   1.631   1.610  11.608  2.4427 -0.1836  2.9288
  200DOPC  C21624844   1.553   1.740  11.756 -0.4554 -0.0240  0.8739
  200DOPC  H16R24845   1.637   1.715  11.824 -1.8113 -2.3252  1.8447
  200DOPC  H16S24846   1.474   1.665  11.780 -1.5014  0.1308 -1.7748
  200DOPC  C21724847   1.508   1.877  11.795  0.6386 -0.5989 -0.4159
  200DOPC  H17R24848   1.427   1.908  11.726 -0.9419 -1.6955  0.8650
  200DOPC  H17S24849   1.581   1.961  11.784 -0.8795  0.7079 -0.7938
  200DOPC  C21824850   1.455   1.889  11.936  0.9099  0.3153 -0.6342
  200DOPC  H18R24851   1.434   1.996  11.962 -1.6784 -0.3358  0.2685
  200DOPC  H18S24852   1.535   1.862  12.009  0.8644 -0.9074 -1.0266
  200DOPC  H18T24853   1.366   1.825  11.946  1.2363 -0.4092 -2.0933
  200DOPC   C3324854   1.136   0.790  11.186  0.1962 -0.4339 -0.1060
  200DOPC   H3X24855   1.102   0.829  11.087  0.3375 -0.4669 -0.1685
  200DOPC   H3Y24856   1.241   0.827  11.193 -0.5779  1.8562  0.2744
  200DOPC   C3424857   1.057   0.873  11.288  0.4577  0.6444 -0.4111
  200DOPC   H4X24858   1.082   0.981  11.282 -0.1391  0.9945  2.0211
  200DOPC   H4Y24859   1.093   0.844  11.390  0.3146  1.0399 -0.2436
  200DOPC   C3524860   0.902   0.861  11.279 -0.5456 -0.0936  0.0820
  200DOPC   H5X24861   0.869   0.763  11.321  1.1835 -0.7816 -0.0582
  200DOPC   H5Y24862   0.868   0.857  11.173 -1.5069  0.8720  0.3403
  200DOPC   C3624863   0.840   0.990  11.322  0.1904 -0.0307 -0.5890
  200DOPC   H6X24864   0.915   1.056  11.371 -1.0441  0.0370  1.3003
  200DOPC   H6Y24865   0.800   1.045  11.234  0.8239  0.6423 -0.4667
  200DOPC   C3724866   0.734   0.969  11.431 -0.0295 -0.3501 -0.3267
  200DOPC   H7X24867   0.674   1.062  11.438  1.4486  0.6191  0.0221
  200DOPC   H7Y24868   0.668   0.888  11.394 -3.3069  1.4840  1.1103
  200DOPC   C3824869   0.789   0.930  11.568 -0.4840 -0.0037 -0.0391
  200DOPC   H8X24870   0.842   1.019  11.610  0.6295 -0.9426  0.5936
  200DOPC   H8Y24871   0.857   0.844  11.556 -3.3837 -2.5888  0.7526
  200DOPC   C3924872   0.680   0.888  11.661 -0.7578 -0.1472 -0.0108
  200DOPC   H9X24873   0.579   0.894  11.617 -2.3663  1.1671  3.5190
  200DOPC  C31024874   0.700   0.845  11.793 -0.3621  0.4468  0.9623
  200DOPC  H10X24875   0.620   0.808  11.858  0.3223 -2.9935  0.0484
  200DOPC  C31124876   0.835   0.835  11.853 -0.1352 -0.4812  0.5299
  200DOPC  H11X24877   0.917   0.874  11.788  0.0646 -0.1275  0.9879
  200DOPC  H11Y24878   0.858   0.728  11.872 -0.8014 -0.7128  0.0678
  200DOPC  C31224879   0.846   0.904  11.988  0.5450 -0.2532 -0.8946
  200DOPC  H12X24880   0.769   0.882  12.065 -0.7188  1.0700 -1.7224
  200DOPC  H12Y24881   0.842   1.012  11.964  1.0245  0.2641  1.1382
  200DOPC  C31324882   0.989   0.886  12.053  0.0923 -0.0072 -0.1722
  200DOPC  H13X24883   1.005   0.779  12.076  0.5794  0.4683  1.8402
  200DOPC  H13Y24884   1.061   0.901  11.970  0.1921 -0.2051 -0.1216
  200DOPC  C31424885   1.005   0.961  12.184 -0.6170  0.3713  0.0654
  200DOPC  H14X24886   0.975   1.066  12.163  0.0050  0.6873  0.7431
  200DOPC  H14Y24887   0.940   0.917  12.262 -1.8492  0.5609 -0.8234
  200DOPC  C31524888   1.146   0.966  12.251  0.5905  0.1642  0.0439
  200DOPC  H15X24889   1.162   1.051  12.320  0.4437  1.0882 -1.0272
  200DOPC  H15Y24890   1.218   0.998  12.173 -1.4332  1.8713 -1.2472
  200DOPC  C31624891   1.188   0.837  12.320  0.3028 -0.2655  0.5272
  200DOPC  H16X24892   1.102   0.805  12.384  0.9380 -0.7884  1.1346
  200DOPC  H16Y24893   1.223   0.758  12.250  1.9408  2.8915 -2.4697
  200DOPC  C31724894   1.299   0.853  12.423 -0.6770  0.5170  0.8142
  200DOPC  H17X24895   1.387   0.912  12.389 -0.4474  0.9936  2.2001
  200DOPC  H17Y24896   1.255   0.909  12.508  0.2495  0.1801  1.5329
  200DOPC  C31824897   1.333   0.714  12.476  0.0283 -0.2698  0.1991
  200DOPC  H18X24898   1.416   0.713  12.550  0.8290 -2.6611 -0.6544
  200DOPC  H18Y24899   1.248   0.674  12.536  0.9616 -1.4347  0.7819
  200DOPC  H18Z24900   1.374   0.648  12.397 -0.2838 -1.0209  0.6522
  201SOD    SOD24901   8.029   7.422  14.616 -0.2446  0.1462 -0.6790
  202SOD    SOD24902   1.346   7.133  10.044 -0.0950  0.3262 -0.1822
  203SOD    SOD24903   3.199   3.807  15.432  0.2574  0.2631 -0.4377
  204SOD    SOD24904   1.586   5.172   9.147 -0.0945  0.5051 -0.1140
  205SOD    SOD24905   6.400   2.729  14.951  0.1529 -0.3949 -0.4488
  206SOD    SOD24906   1.501   1.719   8.700 -0.5417  0.3360 -0.1684
  207SOD    SOD24907   6.239   2.658  10.041 -0.3206  0.0264 -0.2314
  208SOD    SOD24908   0.850   4.448  14.173  0.2201 -0.0386 -0.1561
  209SOD    SOD24909   1.587   7.957   9.577  0.3185 -0.4045 -0.2754
  210SOD    SOD24910   4.602   1.187  14.472  0.0042 -0.4753  0.6184
  211SOD    SOD24911   0.331   1.388  15.735 -0.1524 -0.4468 -0.0583
  212SOD    SOD24912   5.085   0.920  15.178 -0.4048 -0.3590  0.4647
  213SOD    SOD24913   4.544   0.353   9.987  0.0704 -1.0173  0.2278
  214SOD    SOD24914   3.212   7.911  14.763 -0.3775 -0.7682  0.2785
  215SOD    SOD24915   4.574   7.333  15.437  0.1783 -0.1636 -0.1870
  216SOD    SOD24916   1.595   4.244  15.119 -0.0899 -0.1334  0.3165
  217SOD    SOD24917   6.289   6.703   9.202 -0.5579  0.3880 -0.0622
  218SOD    SOD24918   4.556   5.257  15.378  0.1795  0.3304  0.0814
  219SOD    SOD24919   4.281   4.992  13.685 -0.2646 -0.5143  0.0848
  220SOD    SOD24920   3.890   1.000   9.272 -0.2002 -0.2201 -0.5083
  221SOD    SOD24921   8.411   4.804  10.398  0.2782 -0.4014  0.6377
  222SOD    SOD24922   7.487   7.962  14.417  0.1117  0.3003  0.5026
  223SOD    SOD24923   5.390   5.718  10.018 -0.2068  0.1310  0.1357
  224SOD    SOD24924   2.735   4.608  10.282  0.1889 -0.7073  0.1434
  225SOD    SOD24925   4.827   3.451  10.489 -0.0062 -0.6003  0.2562
  226SOD    SOD24926   1.223   8.144  13.710 -0.0192  0.0002 -0.5157
  227CLA    CLA24927   1.725   4.090   9.655 -0.6784  0.1427  0.6485
  228CLA    CLA24928   6.921   1.729   9.235 -0.1113 -0.1768  0.3654
  229CLA    CLA24929   5.957   6.200   9.023 -0.2553  0.0106 -0.2239
  230CLA    CLA24930   0.179   1.190  15.819  0.3825  0.2439 -0.0325
  231CLA    CLA24931   1.809   3.820  14.967 -0.3977  0.0609 -0.2396
  232CLA    CLA24932   3.943   7.943  15.691 -0.1933  0.0491 -0.3993
  233CLA    CLA24933   1.633   6.227  14.356 -0.0491 -0.5730  0.1294
  234CLA    CLA24934   7.141   7.890  15.212  0.1218  0.2115  0.0520
  235CLA    CLA24935   6.905   2.458   9.813  0.3914  0.1314 -0.1495
  236CLA    CLA24936   6.291   4.555  15.336  0.2448 -0.4267 -0.1817
  237CLA    CLA24937   3.281   3.069  15.229 -0.1741  0.0815  0.1971
  238CLA    CLA24938   5.557   5.590   9.511  0.0927 -0.4528 -0.3062
  239CLA    CLA24939   7.830   7.354  10.551  0.2934  0.1715 -0.1546
  240CLA    CLA24940   3.647   5.410  14.531  0.0015  0.1954 -0.4916
  241CLA    CLA24941   3.391   4.651  10.882 -0.3525 -0.5075  0.0058
  242CLA    CLA24942   5.773   7.445  14.629 -0.1495  0.6452  0.0013
  243CLA    CLA24943   1.548   2.372  10.100 -0.2756  0.4682 -0.2907
  244CLA    CLA24944   2.305   2.224   9.335 -0.0726 -0.4393  0.1870
  245CLA    CLA24945   2.677   8.055   9.781 -0.0443  0.1787  0.0308
  246CLA    CLA24946   5.063   5.243  15.353 -0.1342 -0.2858  0.2652
  247CLA    CLA24947   1.076   3.338   8.767  0.5380 -0.0731 -0.1836
  248CLA    CLA24948   2.330   5.999  10.292 -0.2696 -0.0677 -0.1915
  249CLA    CLA24949   3.785   1.572   9.544  0.4390  0.1675  0.1060
  250CLA    CLA24950   4.021   4.600  15.423 -0.0893 -0.7219  0.0208
  251CLA    CLA24951   5.732   1.077  14.916  0.1916 -0.2040  0.2187
  252CLA    CLA24952   3.186   7.438  10.235 -0.0926  0.1103  0.2349
  253TIP3   OH224953   4.225   2.086  15.026 -0.0764 -0.0616  0.1100
  253TIP3    H124954   4.210   2.011  14.968  1.9157 -0.6108  0.2155
  253TIP3    H224955   4.315   2.113  15.007  0.7219 -0.3651  3.0241
  254TIP3   OH224956   3.924   7.983  14.632 -0.1310  0.2169 -0.4407
  254TIP3    H124957   3.988   7.997  14.562 -0.0067 -0.7503 -0.5359
  254TIP3    H224958   3.848   7.946  14.588  0.1530 -0.9279 -0.0023
  255TIP3   OH224959   7.106   3.958  15.964 -0.0723 -0.0614 -0.0065
  255TIP3    H124960   7.151   3.978  16.046  0.0337 -1.3113  0.2653
  255TIP3    H224961   7.052   3.881  15.985 -0.3075 -0.1861 -1.0156
  256TIP3   OH224962   4.857   5.944  15.315 -0.0878  0.3681  0.3328
  256TIP3    H124963   4.879   5.853  15.338 -0.0477  0.0204 -0.9748
  256TIP3    H224964   4.899   5.997  15.383  0.4812 -0.5620  0.7290
  257TIP3   OH224965   6.598   8.059  15.218 -0.0544 -0.2930 -0.1974
  257TIP3    H124966   6.632   8.007  15.290  0.1431 -1.5166 -1.1411
  257TIP3    H224967   6.527   8.006  15.181 -2.2423  1.6371  0.9325
  258TIP3   OH224968   1.857   8.132  15.914  0.1862  0.7918 -0.2899
  258TIP3    H124969   1.878   8.219  15.947  1.0075  0.8308 -0.8986
  258TIP3    H224970   1.762   8.125  15.925  0.0671  1.8667 -0.5095
  259TIP3   OH224971   6.038   0.081  15.984 -0.4462  0.0572 -0.1787
  259TIP3    H124972   5.976   0.013  16.011 -0.4564 -0.6563 -1.8921
  259TIP3    H224973   5.983   0.158  15.967 -0.6892 -0.1300 -0.2555
  260TIP3   OH224974   2.757   4.761  15.196  0.4700  0.2405  0.0858
  260TIP3    H124975   2.739   4.668  15.204  1.2136  0.1784  1.1353
  260TIP3    H224976   2.852   4.768  15.192  0.4179  0.9463 -0.1955
  261TIP3   OH224977   1.188   2.205  15.131  0.1965 -0.4990 -0.3437
  261TIP3    H124978   1.278   2.239  15.137  0.5835 -1.4955 -0.2774
  261TIP3    H224979   1.133   2.280  15.155  1.0113  0.1007 -0.2782
  262TIP3   OH224980   0.662   7.331  14.476  0.6646  0.3044 -0.1935
  262TIP3    H124981   0.568   7.333  14.463  0.8128  2.3550 -1.1772
  262TIP3    H224982   0.699   7.365  14.395  2.0587  3.0818  1.4564
  263TIP3   OH224983   4.901   3.282  13.972 -0.7836  1.0582  0.2483
  263TIP3    H124984   4.915   3.336  13.894  0.5096  1.1575  0.5273
  263TIP3    H224985   4.982   3.233  13.982 -1.4604 -0.0104  0.7387
  264TIP3   OH224986   7.027   2.579  15.892  0.5985 -0.0977  0.1129
  264TIP3    H124987   7.105   2.526  15.911  1.4741  0.9510 -0.4093
  264TIP3    H224988   7.044   2.615  15.805  0.1757  1.2817  0.5832
  265TIP3   OH224989   7.243   5.364  15.489  0.2448 -0.1380  0.7346
  265TIP3    H124990   7.295   5.429  15.442  1.3790  0.3691  2.5897
  265TIP3    H224991   7.269   5.281  15.449  0.0637  0.3641 -0.5041
  266TIP3   OH224992   3.847   8.297  15.899  0.5223  0.0882  0.3266
  266TIP3    H124993   3.896   8.376  15.876 -0.3037  0.1144 -1.4959
  266TIP3    H224994   3.914   8.229  15.906  0.9697  0.3389 -1.1239
  267TIP3   OH224995   8.350   5.438  15.500  0.1742 -0.7536  0.3705
  267TIP3    H124996   8.414   5.369  15.481  1.3382 -0.4762  2.9071
  267TIP3    H224997   8.389   5.518  15.465  0.1287 -0.9299 -0.0920
  268TIP3   OH224998   0.690   0.124  15.211 -0.3208 -0.1461 -0.2447
  268TIP3    H124999   0.731   0.107  15.296  0.5201 -1.5109 -0.8809
  268TIP3    H225000   0.693   0.219  15.202 -1.4478  0.1205  1.7212
  269TIP3   OH225001   6.524   6.612  15.709  0.3174  0.0800  0.0330
  269TIP3    H125002   6.608   6.651  15.685 -0.5128  1.0088 -1.5399
  269TIP3    H225003   6.470   6.685  15.738 -0.5936 -0.1827 -0.9419
  270TIP3   OH225004   5.026   6.348  13.879  0.4199  0.1262  0.3110
  270TIP3    H125005   5.065   6.280  13.824  1.2555  1.0815 -0.3307
  270TIP3    H225006   5.092   6.418  13.880 -1.4304  2.0361 -1.2279
  271TIP3   OH225007   6.729   6.557  14.209 -0.3613 -0.1111 -0.4153
  271TIP3    H125008   6.728   6.476  14.158  0.4132 -0.4758  0.1231
  271TIP3    H225009   6.799   6.544  14.274  0.1055  1.1776 -0.6216
  272TIP3   OH225010   4.185   0.425  15.898  0.0105  0.3217  0.3905
  272TIP3    H125011   4.266   0.416  15.847 -1.5171  1.5926 -2.4401
  272TIP3    H225012   4.215   0.443  15.987  2.8189 -0.6438 -0.2546
  273TIP3   OH225013   4.305   5.461  15.009  0.0625  0.3414  0.0067
  273TIP3    H125014   4.332   5.382  14.962 -3.2883  0.1533 -1.9132
  273TIP3    H225015   4.334   5.533  14.952 -0.0361  0.3294 -0.0581
  274TIP3   OH225016   5.018   6.067  14.105 -0.0045  0.6736  0.2529
  274TIP3    H125017   4.991   6.095  14.018 -0.6353 -1.7470 -0.3930
  274TIP3    H225018   5.041   5.975  14.095 -1.9329 -0.2346  3.0146
  275TIP3   OH225019   0.965   3.477  15.308 -0.0335  0.0404 -0.3278
  275TIP3    H125020   0.884   3.447  15.267  0.1157 -0.9185  0.0404
  275TIP3    H225021   0.936   3.530  15.382 -0.3422 -0.7871  0.1542
  276TIP3   OH225022   3.249   1.643  14.284  0.0639  0.1733 -0.0647
  276TIP3    H125023   3.271   1.556  14.251  1.2468  0.9068 -1.2819
  276TIP3    H225024   3.190   1.680  14.218 -2.3152 -0.4917  1.5392
  277TIP3   OH225025   5.262   1.483  15.377 -0.6156  0.2093 -0.2023
  277TIP3    H125026   5.259   1.436  15.294  0.7293 -1.7640  0.7773
  277TIP3    H225027   5.170   1.494  15.402 -1.0609  1.1276 -2.0302
  278TIP3   OH225028   2.193   5.967  14.631  0.0992 -0.4089 -0.2033
  278TIP3    H125029   2.267   5.954  14.572  1.0507 -0.6153  1.0176
  278TIP3    H225030   2.120   5.924  14.587  1.3342 -2.7731 -0.1109
  279TIP3   OH225031   0.749   6.193  14.703 -0.3152 -0.4435  0.2475
  279TIP3    H125032   0.718   6.119  14.755  0.2417 -1.0729 -0.2945
  279TIP3    H225033   0.802   6.244  14.764 -0.7861 -0.4278  0.6521
  280TIP3   OH225034   6.885   0.850  16.149 -0.0247 -0.0495  0.7238
  280TIP3    H125035   6.822   0.901  16.201 -0.4966  0.9678 -0.7685
  280TIP3    H225036   6.962   0.907  16.142 -0.2007  0.0983 -0.1753
  281TIP3   OH225037   0.186   6.230  15.892 -0.2478 -0.0659 -0.1821
  281TIP3    H125038   0.132   6.258  15.818 -1.1970  3.7438  1.6738
  281TIP3    H225039   0.136   6.159  15.932 -0.8914 -0.5819 -1.8013
  282TIP3   OH225040   1.118   3.480  14.103 -0.4929 -0.2093 -0.1461
  282TIP3    H125041   1.176   3.450  14.033  1.7484  1.2637  0.9924
  282TIP3    H225042   1.149   3.568  14.124 -2.8611  0.4558  0.8773
  283TIP3   OH225043   8.390   6.761  14.327  0.0350  0.1693  0.2860
  283TIP3    H125044   8.423   6.844  14.362  0.9874 -0.5903  1.2714
  283TIP3    H225045   8.459   6.698  14.348 -1.1628 -1.0903  0.5830
  284TIP3   OH225046   1.040   7.793  10.689 -0.3449  0.0626 -0.4967
  284TIP3    H125047   1.104   7.754  10.630  1.0243 -0.8758  1.5166
  284TIP3    H225048   1.080   7.876  10.716 -1.1957  0.7356 -1.2092
  285TIP3   OH225049   7.041   8.081  10.029  0.2906 -0.7162 -0.1946
  285TIP3    H125050   7.029   8.049  10.118 -0.5694 -1.3806 -0.5283
  285TIP3    H225051   7.127   8.122  10.029 -0.6843  1.4933  1.5839
  286TIP3   OH225052   7.296   2.404   9.283  0.0775 -0.5438  0.3600
  286TIP3    H125053   7.214   2.446   9.308  0.9354  1.8031 -0.5412
  286TIP3    H225054   7.310   2.336   9.350 -2.2435 -0.5870  0.8795
  287TIP3   OH225055   0.048   4.245  10.437 -0.7442  0.0368  0.3532
  287TIP3    H125056   0.130   4.291  10.458 -1.2429  0.1033  2.3518
  287TIP3    H225057   0.072   4.186  10.365  0.7551  0.8997  0.0846
  288TIP3   OH225058   6.571   7.887  10.987 -0.1577  0.0743 -0.2292
  288TIP3    H125059   6.651   7.928  11.021  0.0608 -1.0228  0.6164
  288TIP3    H225060   6.602   7.822  10.924 -0.5159  1.2365 -1.6882
  289TIP3   OH225061   1.428   4.102  10.951 -0.2830 -0.0162 -0.2882
  289TIP3    H125062   1.466   4.186  10.926 -0.1200 -0.7610 -2.8548
  289TIP3    H225063   1.503   4.046  10.971 -0.3312  0.0639  0.1308
  290TIP3   OH225064   4.607   6.320  10.406  0.0621  0.3153 -0.3303
  290TIP3    H125065   4.567   6.279  10.483  0.5880 -0.7958 -0.6267
  290TIP3    H225066   4.539   6.317  10.339  0.1365 -0.1914 -0.3863
  291TIP3   OH225067   1.112   2.603   9.146  0.0161  0.1001  0.5577
  291TIP3    H125068   1.130   2.600   9.240  1.3390 -1.6360  0.2880
  291TIP3    H225069   1.143   2.519   9.113 -1.6417  0.1309 -1.2440
  292TIP3   OH225070   2.451   1.929  10.860  0.4957 -0.4012 -0.8439
  292TIP3    H125071   2.509   1.973  10.799  0.0331 -0.8310 -1.6119
  292TIP3    H225072   2.506   1.867  10.906  0.7951 -0.2561 -1.0064
  293TIP3   OH225073   1.904   8.197  10.243 -0.1703  0.5645 -0.1266
  293TIP3    H125074   1.824   8.215  10.193 -0.2595  0.8765  0.1267
  293TIP3    H225075   1.895   8.249  10.323 -0.5765 -0.7818  0.7584
  294TIP3   OH225076   4.098   5.444   9.946 -0.1166 -0.3158 -0.2736
  294TIP3    H125077   4.126   5.396  10.025 -1.3578  0.0509  0.4128
  294TIP3    H225078   4.002   5.443   9.950 -0.2232 -0.7276 -2.0650
  295TIP3   OH225079   0.240   7.616  10.287  0.1824 -0.5394  0.3290
  295TIP3    H125080   0.310   7.671  10.322 -1.5890  1.6018  0.7586
  295TIP3    H225081   0.265   7.600  10.196  0.2869  1.9315 -0.1387
  296TIP3   OH225082   6.629   4.030   9.727 -0.7541  0.1004  0.3199
  296TIP3    H125083   6.606   4.025   9.820 -1.7533 -0.0266  0.0772
  296TIP3    H225084   6.683   3.952   9.711 -1.9019 -0.7468  0.4466
  297TIP3   OH225085   6.712   6.409  10.739 -0.0905 -0.0240  0.4574
  297TIP3    H125086   6.734   6.502  10.746  1.5348 -0.5030  3.1272
  297TIP3    H225087   6.676   6.386  10.824 -0.1695 -1.9293 -0.0289
  298TIP3   OH225088   1.714   7.673   8.642 -0.5666  0.2771  0.2486
  298TIP3    H125089   1.669   7.644   8.563 -1.9167  0.4373  0.9264
  298TIP3    H225090   1.696   7.767   8.646  0.4873  0.4970  0.1365
  299TIP3   OH225091   1.580   4.035   9.319 -0.0057  0.2714  0.3057
  299TIP3    H125092   1.640   4.086   9.374 -1.6060  1.1071  1.3262
  299TIP3    H225093   1.556   3.960   9.372  1.2249 -0.8625 -0.6644
  300TIP3   OH225094   8.377   3.716   8.696  0.1007  0.9744 -0.1471
  300TIP3    H125095   8.447   3.723   8.761 -0.3898  2.8542  0.2366
  300TIP3    H225096   8.413   3.757   8.617 -0.2111  1.0433 -0.2574
  301TIP3   OH225097   8.104   4.043   8.770  0.5812  0.0282 -0.0057
  301TIP3    H125098   8.162   4.009   8.837  0.1852  0.1640  0.4104
  301TIP3    H225099   8.025   3.989   8.776  0.1844  0.6130  0.2558
  302TIP3   OH225100   1.085   0.659   9.685 -0.1977 -0.5904  0.3293
  302TIP3    H125101   0.990   0.656   9.671 -0.0968 -0.8423 -0.3747
  302TIP3    H225102   1.096   0.684   9.777 -0.9306  0.2440  0.1944
  303TIP3   OH225103   7.906   5.489   9.237  0.0475 -0.0695 -0.5542
  303TIP3    H125104   7.876   5.580   9.236 -0.6311 -0.2839 -0.8843
  303TIP3    H225105   7.874   5.453   9.154 -1.0350 -1.0303  0.2564
  304TIP3   OH225106   5.721   3.061   9.347 -0.4754 -0.4520  0.1572
  304TIP3    H125107   5.632   3.092   9.333 -0.7689 -1.6537 -0.8657
  304TIP3    H225108   5.713   2.966   9.356  0.6252 -0.5129  0.7234
  305TIP3   OH225109   0.164   7.943   9.881  0.4008  0.7490 -0.0909
  305TIP3    H125110   0.150   7.942   9.786 -0.5595 -0.8804  0.0340
  305TIP3    H225111   0.236   7.882   9.896 -0.6466 -0.4414  0.3426
  306TIP3   OH225112   6.686   3.761   9.578  0.1565  0.2654 -0.5711
  306TIP3    H125113   6.705   3.686   9.522  0.8563  0.9481 -1.2512
  306TIP3    H225114   6.655   3.721   9.660 -3.2609 -0.7468 -2.1630
  307TIP3   OH225115   3.939   8.363   9.234 -0.8056  0.1266  0.5211
  307TIP3    H125116   3.890   8.361   9.152  3.1377 -0.5567 -2.0787
  307TIP3    H225117   3.994   8.284   9.231  2.1270  1.9457  1.9486
  308TIP3   OH225118   2.582   6.712   9.354  0.1521 -0.4297  0.5337
  308TIP3    H125119   2.645   6.641   9.368  0.6005 -0.2818 -0.5838
  308TIP3    H225120   2.613   6.755   9.274 -1.0028  0.0469  0.3264
  309TIP3   OH225121   0.570   1.565   9.561  0.7773 -0.0424  0.6657
  309TIP3    H125122   0.483   1.604   9.546  0.6794  0.1540  1.7080
  309TIP3    H225123   0.613   1.625   9.622  1.4686 -0.4060  0.5443
  310TIP3   OH225124   2.741   4.442   9.912 -0.1719  0.1922 -0.1007
  310TIP3    H125125   2.813   4.503   9.898 -0.4213  0.3795 -0.5871
  310TIP3    H225126   2.784   4.359   9.933  0.3184 -0.4553 -3.2293
  311TIP3   OH225127   6.431   7.575   9.597 -0.0442  0.1305 -0.5366
  311TIP3    H125128   6.453   7.530   9.515  1.0775 -2.0058  0.8314
  311TIP3    H225129   6.353   7.529   9.629  1.2282 -1.0921  0.9787
  312TIP3   OH225130   6.650   3.328   9.043 -0.2899  0.0708 -0.3333
  312TIP3    H125131   6.694   3.279   9.113  0.6687 -1.2423 -1.7933
  312TIP3    H225132   6.568   3.282   9.030  0.3769 -0.8673 -1.3441
  313TIP3   OH225133   8.338   2.623  10.866 -0.4388 -0.4624  0.1752
  313TIP3    H125134   8.244   2.635  10.851 -0.1680  1.2587 -0.4301
  313TIP3    H225135   8.366   2.569  10.792 -0.6584  0.5823 -0.7072
  314TIP3   OH225136   5.169   6.664  10.463 -0.0812  0.2124  0.0247
  314TIP3    H125137   5.112   6.705  10.528 -0.0783  0.5598 -0.1907
  314TIP3    H225138   5.201   6.585  10.506 -2.1779 -0.9828 -0.5275
  315TIP3   OH225139   8.271   0.183   9.889 -0.5167 -0.0094  1.0897
  315TIP3    H125140   8.254   0.153   9.978  0.5833  1.9971  2.0572
  315TIP3    H225141   8.366   0.174   9.879 -0.3220  1.7197  0.9517
  316TIP3   OH225142   1.351   0.004   9.678 -0.0850 -0.1652 -0.2908
  316TIP3    H125143   1.322   0.061   9.748  0.6375  0.6570 -0.6420
  316TIP3    H225144   1.324  -0.084   9.705  1.0206  0.0025  1.4913
  317TIP3   OH225145   1.000   4.140   9.507  0.0392  0.2113  0.0888
  317TIP3    H125146   1.005   4.199   9.583  1.0825  0.2025  0.0411
  317TIP3    H225147   1.091   4.116   9.490 -0.3789 -1.6385  0.2660
  318TIP3   OH225148   0.015   1.661   9.862 -0.3177 -0.0280  0.6257
  318TIP3    H125149   0.034   1.611   9.783  1.6689 -0.3944  1.2695
  318TIP3    H225150  -0.005   1.749   9.831 -1.6414 -0.6568 -0.3884
  319TIP3   OH225151   2.145   6.902  10.595 -0.0597 -0.0494  0.1675
  319TIP3    H125152   2.078   6.970  10.601 -0.2610 -0.0831 -1.2537
  319TIP3    H225153   2.188   6.918  10.511 -0.0129 -1.5802 -0.1276
  320TIP3   OH225154   1.991   4.099  10.321  0.3923  0.0531  0.4621
  320TIP3    H125155   1.940   4.082  10.242  1.1180 -0.7469  0.1472
  320TIP3    H225156   1.931   4.147  10.379  0.2301  1.7562 -1.0290
  321TIP3   OH225157   6.499   5.127  10.012  0.0662 -0.4395 -0.3593
  321TIP3    H125158   6.417   5.118   9.964 -0.0916  1.9375 -0.6503
  321TIP3    H225159   6.473   5.152  10.101  0.4553 -0.1538 -0.3216
  322TIP3   OH225160   6.523   5.221   9.018 -0.2997 -0.1771 -0.1004
  322TIP3    H125161   6.531   5.127   8.999 -0.7691 -0.0633 -0.9144
  322TIP3    H225162   6.593   5.239   9.080 -0.9421 -1.3044  0.9885
  323TIP3   OH225163   0.891   7.372  14.639  0.3545 -0.2083 -0.2761
  323TIP3    H125164   0.956   7.318  14.594 -1.2374 -3.1952  0.6769
  323TIP3    H225165   0.810   7.358  14.590 -0.0745  1.6194 -0.1500
  324TIP3   OH225166   4.496   6.537  15.204 -0.1693  0.5252 -0.3197
  324TIP3    H125167   4.570   6.523  15.145 -0.5682 -0.4772 -0.5975
  324TIP3    H225168   4.534   6.578  15.282  0.2747  2.5421 -1.5203
  325TIP3   OH225169   3.226   5.802  15.142 -0.0600 -0.2593  0.4638
  325TIP3    H125170   3.228   5.855  15.062  1.3142  0.0739  0.6857
  325TIP3    H225171   3.283   5.850  15.203 -0.3793 -0.9697  1.3356
  326TIP3   OH225172   5.262   0.948  15.781  0.1116 -0.2702 -0.2093
  326TIP3    H125173   5.197   0.956  15.851 -1.5985 -1.3905 -1.6055
  326TIP3    H225174   5.280   0.854  15.776  1.1842 -0.0637 -0.4618
  327TIP3   OH225175   2.027   3.101  14.079 -0.0178 -0.1473  0.0079
  327TIP3    H125176   1.942   3.058  14.071 -0.7372  0.4243  3.1599
  327TIP3    H225177   2.091   3.031  14.061 -1.1127 -0.8623 -1.2651
  328TIP3   OH225178   0.543   4.498  13.898 -0.4087 -0.7241  0.3381
  328TIP3    H125179   0.475   4.552  13.938 -0.3802  0.4820 -1.1530
  328TIP3    H225180   0.598   4.561  13.850  0.1920 -1.9764 -0.6659
  329TIP3   OH225181   6.993   0.360  14.814  0.2383  0.5326 -0.1360
  329TIP3    H125182   6.945   0.341  14.895  3.4416 -1.3556  1.5355
  329TIP3    H225183   7.006   0.455  14.815 -0.3729  0.6197  1.2095
  330TIP3   OH225184   6.709   7.189  16.094 -0.4084 -0.2998 -0.1686
  330TIP3    H125185   6.723   7.111  16.040 -2.3243 -0.3035 -0.7206
  330TIP3    H225186   6.775   7.251  16.064 -0.1849 -0.9923 -1.1634
  331TIP3   OH225187   3.783   0.751  15.687  0.1782 -0.2932 -0.2185
  331TIP3    H125188   3.837   0.826  15.713  0.9488 -0.6428 -0.7520
  331TIP3    H225189   3.837   0.675  15.708 -0.0508 -0.6493 -0.8908
  332TIP3   OH225190   7.171   6.649  14.966 -0.5477 -0.5205  0.6236
  332TIP3    H125191   7.120   6.685  14.894  1.6864 -0.9691 -1.2869
  332TIP3    H225192   7.132   6.563  14.983  0.3427 -1.4961 -1.7983
  333TIP3   OH225193   7.583   3.149  16.194  0.3650  0.1913 -0.1541
  333TIP3    H125194   7.604   3.213  16.125 -0.9664  1.3040  0.4036
  333TIP3    H225195   7.603   3.195  16.275  0.4429 -0.5262  0.2302
  334TIP3   OH225196   3.814   4.446  14.653  0.3273  0.3873 -0.1601
  334TIP3    H125197   3.727   4.442  14.693  0.5055  0.0713  0.2064
  334TIP3    H225198   3.808   4.393  14.574  0.9565 -2.0803  1.3595
  335TIP3   OH225199   3.983   0.449  14.189  0.4403  0.1850 -0.2212
  335TIP3    H125200   4.072   0.443  14.153  0.2610  1.0606 -0.8478
  335TIP3    H225201   3.926   0.442  14.112  0.0407  1.9215 -0.1292
  336TIP3   OH225202   1.894   1.690  16.292 -0.0921 -0.1141 -0.2153
  336TIP3    H125203   1.971   1.655  16.246  0.4653 -2.4615  2.2931
  336TIP3    H225204   1.839   1.725  16.221  1.6941 -1.4764 -2.4387
  337TIP3   OH225205   0.764   0.677  14.222 -0.6762 -0.3120 -0.1264
  337TIP3    H125206   0.708   0.753  14.236  0.2151  0.3998 -0.3410
  337TIP3    H225207   0.826   0.705  14.155 -0.0738 -1.0935  0.0935
  338TIP3   OH225208   4.649   6.081  14.850 -0.2502  0.2290 -0.0263
  338TIP3    H125209   4.654   6.002  14.903  2.7109  0.7594  0.6394
  338TIP3    H225210   4.670   6.053  14.761  1.9298  0.3274  0.3951
  339TIP3   OH225211   8.027   1.894  14.819  0.0579 -0.6982  0.0238
  339TIP3    H125212   8.065   1.842  14.748  1.2817 -1.0289  0.8778
  339TIP3    H225213   8.047   1.845  14.899  0.0501  0.4026  0.7306
  340TIP3   OH225214   4.780   8.396  16.031  0.0448 -0.0009  0.6377
  340TIP3    H125215   4.750   8.306  16.029 -1.4326  0.4710  0.3273
  340TIP3    H225216   4.769   8.428  15.941  0.7025  0.4568  0.7060
  341TIP3   OH225217   1.340   7.996  13.558  0.2988  0.0812  0.1109
  341TIP3    H125218   1.374   7.936  13.493  2.9265  1.1945  0.3448
  341TIP3    H225219   1.389   7.976  13.638 -0.7641  0.6864  0.9484
  342TIP3   OH225220   5.086   4.236  15.794 -0.4331 -0.9644 -0.5119
  342TIP3    H125221   5.086   4.207  15.703 -0.8347 -0.4236 -0.6869
  342TIP3    H225222   5.054   4.161  15.844 -0.3328 -1.2162 -0.8282
  343TIP3   OH225223   4.433   4.643  15.861  0.7989 -0.0196 -0.1349
  343TIP3    H125224   4.364   4.579  15.841  1.0761  0.2872 -2.3273
  343TIP3    H225225   4.504   4.620  15.802  1.1789  1.8710 -0.4732
  344TIP3   OH225226   8.123   3.176  14.518 -0.5074 -0.0935 -0.0147
  344TIP3    H125227   8.157   3.163  14.606 -1.6006 -0.6421  0.3557
  344TIP3    H225228   8.179   3.123  14.462  0.4327  0.5641  0.2859
  345TIP3   OH225229   0.690   3.005  15.404  0.2082  0.5118  0.2687
  345TIP3    H125230   0.740   2.938  15.357  0.9725  0.1642  1.5163
  345TIP3    H225231   0.732   3.088  15.382 -1.4232  0.7848 -2.1751
  346TIP3   OH225232   2.359   1.304  13.581 -0.5847  0.0540  0.1773
  346TIP3    H125233   2.353   1.250  13.502 -1.3896  2.1511 -1.2977
  346TIP3    H225234   2.444   1.282  13.619 -0.6617 -1.8237 -0.6561
  347TIP3   OH225235   6.923   7.371  16.035  0.0229  0.4816 -0.0344
  347TIP3    H125236   7.004   7.354  15.988  0.7107  2.2147  0.4144
  347TIP3    H225237   6.894   7.457  16.002 -1.1075  0.3272  0.5091
  348TIP3   OH225238   2.063   1.867  15.520 -0.2749 -0.3079  0.3559
  348TIP3    H125239   2.152   1.896  15.542 -0.4774  1.1142 -0.5863
  348TIP3    H225240   2.030   1.828  15.602  0.7583  0.3012  1.0879
  349TIP3   OH225241   5.104   4.688  15.852  0.2830  0.0655  0.4815
  349TIP3    H125242   5.076   4.774  15.822  1.8354 -0.5385 -3.1822
  349TIP3    H225243   5.180   4.705  15.907 -0.6396  1.0912  1.4789
  350TIP3   OH225244   3.037   1.027  14.913 -0.9160  0.3544  0.1946
  350TIP3    H125245   2.961   1.083  14.900 -1.3202  0.1677  1.5581
  350TIP3    H225246   3.003   0.938  14.906 -0.8235  0.2722  0.7256
  351TIP3   OH225247   7.952   3.590  15.488 -0.4142  0.0541 -0.3758
  351TIP3    H125248   7.976   3.562  15.399 -0.2292  1.1712 -0.6873
  351TIP3    H225249   8.034   3.625  15.524 -1.1832  2.5834 -0.9312
  352TIP3   OH225250   6.402   5.123  15.133  0.2339  0.6341 -0.7373
  352TIP3    H125251   6.307   5.122  15.140  0.1651 -1.2891 -1.4823
  352TIP3    H225252   6.433   5.085  15.215  0.3927  1.3300 -0.4614
  353TIP3   OH225253   1.471   3.394  14.461 -0.1760  0.1869 -0.4593
  353TIP3    H125254   1.546   3.335  14.452  0.3891  1.0753 -1.9636
  353TIP3    H225255   1.504   3.470  14.508 -0.7416 -0.3735  0.8997
  354TIP3   OH225256   3.733   7.992  15.344  0.0217 -0.1732  0.1137
  354TIP3    H125257   3.719   7.999  15.249  2.5315  0.2628 -0.2936
  354TIP3    H225258   3.778   7.908  15.355 -2.1783 -1.2843  1.2436
  355TIP3   OH225259   3.859   2.106  15.280 -0.4420  0.0376 -0.6882
  355TIP3    H125260   3.834   2.121  15.189  0.0528 -0.7137 -0.9596
  355TIP3    H225261   3.780   2.126  15.330 -0.9525 -0.2750 -1.3464
  356TIP3   OH225262   7.332   2.153  14.992 -0.1592  0.4395 -0.0229
  356TIP3    H125263   7.345   2.069  15.036  0.8922  0.7733  0.3549
  356TIP3    H225264   7.396   2.154  14.921 -1.5138  0.1153 -1.3024
  357TIP3   OH225265   3.363   3.937  15.342  0.3050  0.0305 -0.0539
  357TIP3    H125266   3.458   3.922  15.340  0.1802 -0.6896 -0.7477
  357TIP3    H225267   3.353   4.029  15.318  0.8750  0.3807  0.9618
  358TIP3   OH225268   0.287   0.798  14.238 -0.1032 -0.1347 -0.2527
  358TIP3    H125269   0.201   0.755  14.232 -1.1384  1.6565  0.8242
  358TIP3    H225270   0.293   0.849  14.158  0.7657 -1.5654 -1.1424
  359TIP3   OH225271   1.141   4.307  16.438 -0.2188  0.1632  0.1811
  359TIP3    H125272   1.157   4.366  16.365 -0.6053 -0.9193 -0.8057
  359TIP3    H225273   1.225   4.302  16.484 -0.4235  2.2316  0.9000
  360TIP3   OH225274   3.415   1.841  15.151  0.0611 -0.4893  0.0076
  360TIP3    H125275   3.448   1.845  15.062 -1.3710 -1.8445 -0.6323
  360TIP3    H225276   3.320   1.848  15.142 -0.0264  0.8264  1.5615
  361TIP3   OH225277   1.678   2.503  14.648  0.1587 -0.0597  0.0150
  361TIP3    H125278   1.607   2.446  14.680  0.4574  0.6987  2.2467
  361TIP3    H225279   1.634   2.565  14.590 -0.8960 -0.0914  0.7408
  362TIP3   OH225280   7.508   6.304  15.175 -0.3560  0.1310 -0.1944
  362TIP3    H125281   7.491   6.395  15.151  0.1203  0.5188  0.8879
  362TIP3    H225282   7.603   6.298  15.184 -0.4681 -0.1302  0.9949
  363TIP3   OH225283   6.733   5.964  15.900  0.6734 -0.1404  0.3978
  363TIP3    H125284   6.670   5.891  15.896  0.4084  0.0587  0.7989
  363TIP3    H225285   6.804   5.931  15.956  0.4716 -0.0371  0.7221
  364TIP3   OH225286   1.182   4.503  16.233  0.4082 -0.1778 -0.2634
  364TIP3    H125287   1.153   4.482  16.144 -0.1293 -0.1182 -0.1028
  364TIP3    H225288   1.272   4.533  16.222  0.2587  0.0733 -0.8194
  365TIP3   OH225289   3.892   3.926  14.593 -0.1868 -0.6165 -0.1312
  365TIP3    H125290   3.914   3.869  14.518 -0.7949 -0.0831 -0.7277
  365TIP3    H225291   3.826   3.877  14.641 -0.3313 -0.6487 -0.3576
  366TIP3   OH225292   8.219   7.925  15.773  0.0384 -0.0692 -0.4472
  366TIP3    H125293   8.292   7.864  15.772 -1.3197 -1.7850  0.2298
  366TIP3    H225294   8.170   7.906  15.693 -1.6661 -1.5912  0.8600
  367TIP3   OH225295   6.482   6.186  15.189 -0.3798  0.0828 -0.2051
  367TIP3    H125296   6.431   6.239  15.127  0.6604  2.0215  0.5249
  367TIP3    H225297   6.470   6.229  15.273  0.5204 -0.8542  0.4218
  368TIP3   OH225298   2.300   6.543  15.242  0.4350 -0.1835 -0.5255
  368TIP3    H125299   2.282   6.629  15.282  0.0928 -1.1274  1.4545
  368TIP3    H225300   2.220   6.493  15.256  1.2407 -1.3891 -0.0733
  369TIP3   OH225301   0.804   8.409  14.707 -0.2468  0.2725 -0.2595
  369TIP3    H125302   0.808   8.379  14.616 -0.0323  1.0684 -0.5258
  369TIP3    H225303   0.858   8.488  14.708 -0.0926  0.1643  0.6071
  370TIP3   OH225304   3.600   1.116  15.474  0.0545  0.1583  0.6473
  370TIP3    H125305   3.589   1.173  15.550  1.0510  0.8720  0.2841
  370TIP3    H225306   3.663   1.162  15.419 -0.7264 -0.2877 -0.6731
  371TIP3   OH225307   5.037   5.579  14.729  0.4036  0.5487  0.0457
  371TIP3    H125308   5.000   5.498  14.693  0.2240  1.3624 -1.7149
  371TIP3    H225309   5.107   5.549  14.787  1.4347 -0.8757 -1.7887
  372TIP3   OH225310   2.240   3.698  14.060  0.3318  0.3993 -0.2195
  372TIP3    H125311   2.180   3.714  13.988  0.6779  0.2654 -0.5368
  372TIP3    H225312   2.184   3.667  14.132 -0.0259  0.6535 -0.3864
  373TIP3   OH225313   7.208   1.471  15.254 -0.1053 -0.1862 -0.2124
  373TIP3    H125314   7.180   1.487  15.164 -1.7016  0.4677  0.3775
  373TIP3    H225315   7.185   1.550  15.301 -0.2208 -0.9073  0.9843
  374TIP3   OH225316   5.280   5.438  13.880  0.4700 -0.1440  0.2224
  374TIP3    H125317   5.285   5.533  13.885 -0.6085  0.1583 -2.5472
  374TIP3    H225318   5.187   5.419  13.891  0.6768 -0.8922  0.7369
  375TIP3   OH225319   5.443   1.196  14.658 -0.3094 -0.1089  0.0963
  375TIP3    H125320   5.538   1.183  14.666 -0.3739 -1.2072 -0.6318
  375TIP3    H225321   5.425   1.179  14.565 -1.6034 -2.8025  0.7489
  376TIP3   OH225322   1.457   5.119  15.851  0.0322 -0.1343  0.3710
  376TIP3    H125323   1.539   5.087  15.815 -1.0155  0.0269 -2.4347
  376TIP3    H225324   1.469   5.214  15.858  0.1882 -0.1398  0.2048
  377TIP3   OH225325   0.257   7.666  15.070 -0.1984 -0.0083 -0.2461
  377TIP3    H125326   0.271   7.670  14.976  1.0872  1.0655 -0.0425
  377TIP3    H225327   0.264   7.573  15.092  1.6588 -0.0629 -0.9205
  378TIP3   OH225328   0.598   5.291  15.158 -0.7280 -0.5009 -0.1446
  378TIP3    H125329   0.656   5.344  15.213 -2.1573 -0.8470  1.7976
  378TIP3    H225330   0.556   5.354  15.099  0.1107  0.0284 -0.1888
  379TIP3   OH225331   1.454   6.977  14.390 -0.5175  0.1255  0.8861
  379TIP3    H125332   1.435   6.980  14.296 -0.0991  0.5773  0.8101
  379TIP3    H225333   1.473   7.068  14.413  1.4298 -0.2593  0.9664
  380TIP3   OH225334   6.995   1.468  15.635 -0.2413 -0.6337 -0.2976
  380TIP3    H125335   7.087   1.443  15.630 -0.4550 -1.2626 -1.8217
  380TIP3    H225336   6.995   1.563  15.628  0.4392 -0.3063  2.9504
  381TIP3   OH225337   8.129   5.650  14.117 -0.8637  0.1681  0.6287
  381TIP3    H125338   8.131   5.745  14.108 -2.1443  0.1787  0.3318
  381TIP3    H225339   8.221   5.624  14.114 -0.5076  1.3745  0.5562
  382TIP3   OH225340   1.725   3.938  15.748 -0.0444 -0.3960 -0.2219
  382TIP3    H125341   1.689   4.019  15.783 -2.0284 -1.4022  0.2077
  382TIP3    H225342   1.735   3.881  15.825 -1.3089 -1.4871 -0.8222
  383TIP3   OH225343   3.771   2.242  15.768 -0.0657 -0.3615  0.5198
  383TIP3    H125344   3.803   2.181  15.835  4.1724  1.2507  0.2463
  383TIP3    H225345   3.792   2.329  15.802  1.1261  0.5738 -2.3409
  384TIP3   OH225346   7.375   0.774  14.199 -0.1777 -0.1749 -0.2303
  384TIP3    H125347   7.319   0.757  14.275 -0.5572  0.1511 -0.4291
  384TIP3    H225348   7.408   0.863  14.213  0.8823 -0.6353  0.2472
  385TIP3   OH225349   6.278   8.201  14.939 -0.4075  0.0261 -0.0233
  385TIP3    H125350   6.228   8.120  14.926 -0.0915  0.1137 -2.3553
  385TIP3    H225351   6.349   8.194  14.875  0.3097  1.6306  0.5681
  386TIP3   OH225352   1.301   4.040  14.392 -0.2196 -0.0963 -0.1447
  386TIP3    H125353   1.335   3.993  14.315 -1.8730 -0.6121 -0.6132
  386TIP3    H225354   1.372   4.036  14.456  0.3499 -1.7238 -0.8095
  387TIP3   OH225355   2.320   6.605  14.402  0.0009  0.4718  0.0964
  387TIP3    H125356   2.245   6.570  14.353  0.1646 -0.6295  0.6035
  387TIP3    H225357   2.352   6.677  14.348 -0.5139 -0.0016 -0.8681
  388TIP3   OH225358   7.245   4.238  15.278 -0.3191  0.9958 -0.0533
  388TIP3    H125359   7.193   4.158  15.281 -0.6591  1.2392  0.7250
  388TIP3    H225360   7.189   4.301  15.232  0.3346  0.5266 -1.5440
  389TIP3   OH225361   7.966   3.476  15.246 -0.3377 -0.4081  0.2403
  389TIP3    H125362   7.941   3.557  15.201  0.3420  0.0976  0.7456
  389TIP3    H225363   7.964   3.409  15.178 -0.3637  0.1434 -0.3148
  390TIP3   OH225364   5.161   4.508  14.947 -0.0071  0.1905 -0.5216
  390TIP3    H125365   5.218   4.435  14.972 -1.0838 -1.3259 -2.2252
  390TIP3    H225366   5.186   4.579  15.006  3.0246 -0.6538 -0.5939
  391TIP3   OH225367   1.764   6.650  15.818 -0.7293  0.8792 -0.0091
  391TIP3    H125368   1.829   6.653  15.889  0.7975  0.5210 -1.3176
  391TIP3    H225369   1.710   6.728  15.831  0.9676  2.0731  0.2514
  392TIP3   OH225370   3.462   3.089  14.388 -0.1316 -0.0669 -0.4062
  392TIP3    H125371   3.478   3.159  14.324  1.4497  0.6591  0.6889
  392TIP3    H225372   3.421   3.134  14.462  1.2286 -0.1822  0.4534
  393TIP3   OH225373   1.652   0.062  15.518  0.3162 -0.4249  0.0705
  393TIP3    H125374   1.569   0.026  15.550  0.2500 -1.8355 -1.5379
  393TIP3    H225375   1.626   0.120  15.446  0.4811  2.4851  2.1669
  394TIP3   OH225376   4.023   8.299  14.745  0.3241 -0.4516  0.4041
  394TIP3    H125377   4.040   8.297  14.840  0.3360 -2.0800  0.3861
  394TIP3    H225378   3.984   8.214  14.726 -0.7924  0.3142 -0.8693
  395TIP3   OH225379   1.794   7.720  14.173 -0.0591 -0.1503 -0.5085
  395TIP3    H125380   1.852   7.745  14.246 -1.4669 -0.7243  0.8586
  395TIP3    H225381   1.804   7.625  14.167 -1.5296 -0.3753  0.3559
  396TIP3   OH225382   4.896   0.689  14.454 -0.2916 -0.0351 -0.2425
  396TIP3    H125383   4.910   0.686  14.549  0.3984 -0.9155 -0.3505
  396TIP3    H225384   4.960   0.752  14.422 -0.3903  0.1142 -0.1480
  397TIP3   OH225385   1.188   6.588  14.263  0.0088  0.2660 -0.2975
  397TIP3    H125386   1.246   6.524  14.305  0.0314  1.2528  1.2397
  397TIP3    H225387   1.233   6.612  14.183  0.3201 -1.1325 -0.5779
  398TIP3   OH225388   7.595   4.949  14.607 -0.2412 -0.2714  0.3300
  398TIP3    H125389   7.533   4.996  14.551 -0.4216  0.0362  0.7856
  398TIP3    H225390   7.680   4.961  14.564 -0.3294  0.2340  0.2916
  399TIP3   OH225391   6.411   1.042  14.859 -0.1667 -0.3505  0.0028
  399TIP3    H125392   6.356   1.120  14.862 -0.2417 -0.4268  0.8985
  399TIP3    H225393   6.488   1.068  14.809 -1.0288 -0.2635 -1.3490
  400TIP3   OH225394   1.856   6.856  15.197 -0.5127  0.3406  0.2873
  400TIP3    H125395   1.861   6.888  15.287  0.4814  1.6475 -0.2140
  400TIP3    H225396   1.796   6.916  15.153  0.8989  1.2300 -0.5067
  401TIP3   OH225397   3.251   7.080  14.374  0.5877  0.1600 -0.0264
  401TIP3    H125398   3.305   7.077  14.295 -1.0871  0.0336 -1.2462
  401TIP3    H225399   3.284   7.010  14.430  1.3651 -0.2198 -0.9447
  402TIP3   OH225400   6.408   0.291  15.506 -0.1929  0.2858 -0.3534
  402TIP3    H125401   6.435   0.379  15.477 -1.1920  0.4182 -0.9114
  402TIP3    H225402   6.434   0.288  15.598  0.3851  0.9421 -0.4775
  403TIP3   OH225403   4.641   5.505  14.955  0.6957 -0.7176  0.2161
  403TIP3    H125404   4.631   5.599  14.972 -3.1311 -1.1654  1.1752
  403TIP3    H225405   4.704   5.476  15.021  0.8891  0.9341  0.8098
  404TIP3   OH225406   1.969   3.167  14.346  0.0955 -0.5924  0.4202
  404TIP3    H125407   2.041   3.211  14.390 -0.6866  0.8047  0.3493
  404TIP3    H225408   1.996   3.160  14.254  0.7417 -1.4110  0.6616
  405TIP3   OH225409   3.123   2.229  13.883  0.2677 -0.5180  0.0606
  405TIP3    H125410   3.184   2.274  13.824  1.2562  1.1940  2.2310
  405TIP3    H225411   3.069   2.175  13.826  2.4158 -0.4586 -2.1862
  406TIP3   OH225412   3.334   5.410  14.967  0.1273  0.3341 -0.5502
  406TIP3    H125413   3.405   5.375  15.021  1.1593  1.3961 -1.1720
  406TIP3    H225414   3.254   5.380  15.010  0.8960 -3.0006 -1.2145
  407TIP3   OH225415   6.573   0.628  16.054  0.0100 -0.3156 -0.4334
  407TIP3    H125416   6.643   0.658  16.112 -0.6945 -1.7557  1.2514
  407TIP3    H225417   6.493   0.646  16.103 -0.7085 -0.2470 -1.6138
  408TIP3   OH225418   5.929   7.055  15.463  0.1093  0.4488 -0.3121
  408TIP3    H125419   6.015   7.016  15.476  0.6598  1.5977 -0.3413
  408TIP3    H225420   5.890   7.056  15.550 -0.5379 -1.4957 -0.5379
  409TIP3   OH225421   5.435   6.520  14.997 -0.2043  0.5144 -0.0110
  409TIP3    H125422   5.511   6.483  15.042 -0.3202 -1.6832 -1.4899
  409TIP3    H225423   5.360   6.491  15.050 -0.1367  1.3716  0.5807
  410TIP3   OH225424   4.634   2.391  15.488  0.2185 -0.4566  0.3976
  410TIP3    H125425   4.652   2.377  15.395  2.2214 -1.7072  0.9111
  410TIP3    H225426   4.547   2.355  15.501 -0.0393 -0.3922 -0.9539
  411TIP3   OH225427   7.235   7.114  14.391 -0.0141 -0.1792  0.4917
  411TIP3    H125428   7.279   7.109  14.306  0.0128  0.8946  0.4341
  411TIP3    H225429   7.142   7.125  14.368  0.0228  0.3671  0.5928
  412TIP3   OH225430   7.289   1.718  13.874 -0.1543 -0.7948  0.5634
  412TIP3    H125431   7.321   1.768  13.949 -2.4479  0.6437  0.7008
  412TIP3    H225432   7.292   1.781  13.801 -0.0144 -1.4925 -0.0427
  413TIP3   OH225433   2.819   5.894  15.485 -0.3865 -0.0586  0.4482
  413TIP3    H125434   2.827   5.799  15.475  0.3372  0.1370 -1.2529
  413TIP3    H225435   2.899   5.929  15.446 -0.8234  1.2625  0.6821
  414TIP3   OH225436   7.821   1.503  14.542  0.0616  0.0867 -0.0492
  414TIP3    H125437   7.834   1.594  14.569  0.1945 -0.5293  2.2009
  414TIP3    H225438   7.893   1.456  14.584 -0.8123 -1.2492  0.0130
  415TIP3   OH225439   7.442   4.257  13.951 -0.3009  0.2807 -0.3437
  415TIP3    H125440   7.365   4.302  13.916 -0.3718 -0.3297 -1.0066
  415TIP3    H225441   7.430   4.258  14.046 -0.8896  0.6092 -0.4181
  416TIP3   OH225442   2.001   7.213  14.729 -0.6971  0.1372 -0.5292
  416TIP3    H125443   1.979   7.228  14.821 -0.7130  0.9664 -0.6619
  416TIP3    H225444   1.970   7.124  14.711  0.4041 -0.4909  0.5966
  417TIP3   OH225445   7.034   3.724  16.087  0.4514  0.6168  0.4568
  417TIP3    H125446   7.049   3.639  16.130 -0.2379  0.5872  0.6423
  417TIP3    H225447   6.946   3.750  16.114  0.4587  1.1540 -0.0134
  418TIP3   OH225448   5.252   7.859  15.892  0.0770 -0.3313  0.0079
  418TIP3    H125449   5.209   7.905  15.820 -1.2128  1.9421  2.1187
  418TIP3    H225450   5.337   7.901  15.900  0.2007 -0.5518 -0.1254
  419TIP3   OH225451   5.471   2.381  14.409 -0.0064  0.6160 -0.0189
  419TIP3    H125452   5.469   2.345  14.497 -1.5215  0.6401 -0.0084
  419TIP3    H225453   5.498   2.308  14.353  0.8275  0.5668  0.4431
  420TIP3   OH225454   2.273   1.355  15.650  0.0534 -0.4127  0.0718
  420TIP3    H125455   2.189   1.330  15.611 -1.1930 -0.2152  2.4166
  420TIP3    H225456   2.273   1.451  15.648  0.1843 -0.4112  0.1582
  421TIP3   OH225457   6.424   5.561  15.553 -0.0126 -0.0932  0.2980
  421TIP3    H125458   6.465   5.561  15.467 -0.4576 -0.7907  0.0804
  421TIP3    H225459   6.426   5.469  15.581 -0.8371 -0.0449  0.5540
  422TIP3   OH225460   1.560   4.697  13.714  0.3260 -0.1485  0.0624
  422TIP3    H125461   1.585   4.611  13.679  0.2085 -0.2235  0.1625
  422TIP3    H225462   1.464   4.697  13.711  0.3428  0.3981 -0.9550
  423TIP3   OH225463   7.728   4.010  13.895  0.1393  0.0923  0.3756
  423TIP3    H125464   7.774   4.093  13.901  0.7245 -0.2492  0.6899
  423TIP3    H225465   7.644   4.032  13.853 -0.8428  1.2891  2.7700
  424TIP3   OH225466   7.233   4.518  15.658 -0.3822 -0.3040  0.2886
  424TIP3    H125467   7.280   4.548  15.735  1.3146  2.3395 -1.6454
  424TIP3    H225468   7.143   4.548  15.671  0.0163  0.5986  1.0086
  425TIP3   OH225469   1.449   5.563  15.253 -0.3620  0.6287 -0.2598
  425TIP3    H125470   1.409   5.582  15.168  0.9477  0.1119 -1.0250
  425TIP3    H225471   1.492   5.645  15.278 -1.2799  0.9767  0.2368
  426TIP3   OH225472   3.141   4.146  14.115 -0.1274 -0.0969 -0.3888
  426TIP3    H125473   3.186   4.077  14.066 -0.4571  0.5604 -1.6478
  426TIP3    H225474   3.177   4.227  14.081 -2.0934  0.4514 -1.3042
  427TIP3   OH225475   0.059   1.134  14.268  0.2979  0.1672 -1.0210
  427TIP3    H125476   0.078   1.160  14.178  0.5516  1.3995 -0.6259
  427TIP3    H225477  -0.009   1.195  14.298  0.9200  0.4175 -0.0577
  428TIP3   OH225478   2.966   0.011  14.738 -0.4210 -0.4939 -0.2313
  428TIP3    H125479   2.888   0.002  14.684  0.4753 -1.1305 -1.4984
  428TIP3    H225480   2.948  -0.042  14.816 -2.0737  1.1197  0.5432
  429TIP3   OH225481   3.514   1.822  15.435 -0.5105 -0.4672 -0.0772
  429TIP3    H125482   3.462   1.811  15.355 -1.5149  2.2251  0.1124
  429TIP3    H225483   3.593   1.770  15.419 -0.9161 -0.4406 -2.5836
  430TIP3   OH225484   4.423   5.169  15.208  0.6804  0.2269 -0.9186
  430TIP3    H125485   4.411   5.177  15.113 -1.2458  1.3222 -0.6308
  430TIP3    H225486   4.377   5.087  15.231  1.3233 -0.1472 -0.9407
  431TIP3   OH225487   0.846   8.348  13.995 -0.8004  0.1930 -0.1487
  431TIP3    H125488   0.788   8.424  14.006  1.6912  2.0798  0.8668
  431TIP3    H225489   0.880   8.332  14.083  0.0732 -0.9919 -0.6859
  432TIP3   OH225490   3.884   4.820  15.183 -0.4856 -0.7069 -0.1828
  432TIP3    H125491   3.937   4.829  15.263 -1.1485 -2.5680  0.5116
  432TIP3    H225492   3.833   4.901  15.179  0.8903  0.2342  0.2400
  433TIP3   OH225493   0.817   1.999  14.391  0.7032  0.3420 -0.5114
  433TIP3    H125494   0.807   1.969  14.481  1.0998 -1.9787 -1.1679
  433TIP3    H225495   0.760   2.075  14.384  1.2006  1.0151  1.8584
  434TIP3   OH225496   7.312   2.515  15.234 -0.0197 -0.3687  0.9916
  434TIP3    H125497   7.331   2.589  15.292 -2.0294  1.0865 -0.0426
  434TIP3    H225498   7.216   2.514  15.229  0.0454 -1.7106 -0.7288
  435TIP3   OH225499   0.706   5.947  14.581 -0.3958  0.4643  0.2026
  435TIP3    H125500   0.736   6.030  14.620  0.3511 -0.3554  1.4411
  435TIP3    H225501   0.744   5.879  14.637  1.4202 -0.8440 -2.4235
  436TIP3   OH225502   4.956   6.691  15.789  0.6967  0.2462 -0.1362
  436TIP3    H125503   4.908   6.653  15.863  1.2779 -1.5290 -0.5992
  436TIP3    H225504   5.033   6.731  15.828  0.6033 -0.0044  0.3099
  437TIP3   OH225505   6.747   3.162  15.524 -0.4464  0.4738  0.6890
  437TIP3    H125506   6.719   3.082  15.567  1.0473 -0.7126 -0.4185
  437TIP3    H225507   6.667   3.202  15.492 -1.0728 -2.1595 -1.3489
  438TIP3   OH225508   0.547   0.545  13.512  0.1402 -0.5260  0.5010
  438TIP3    H125509   0.610   0.501  13.455  0.8971  0.1836  0.7796
  438TIP3    H225510   0.487   0.476  13.539 -0.4499 -0.8350 -1.4195
  439TIP3   OH225511   0.570   5.499  14.471 -0.0614 -0.2315 -0.2757
  439TIP3    H125512   0.655   5.517  14.511  0.3572 -1.1031 -0.7371
  439TIP3    H225513   0.508   5.554  14.518  0.8264  0.7386 -0.2213
  440TIP3   OH225514   5.178   0.763  14.402 -0.0829 -0.5785  0.1461
  440TIP3    H125515   5.236   0.754  14.327 -0.2380 -0.7017  0.0405
  440TIP3    H225516   5.189   0.853  14.431  0.7493 -0.8112  0.6045
  441TIP3   OH225517   3.565   4.937  14.992  0.0362  0.4027 -0.1017
  441TIP3    H125518   3.652   4.973  15.010  0.0931  0.9901 -1.4368
  441TIP3    H225519   3.507   4.985  15.051  0.3392  1.5759 -0.7150
  442TIP3   OH225520   2.077   2.452  16.190 -0.4664  0.1368 -0.2167
  442TIP3    H125521   2.019   2.376  16.186  0.0639 -0.3325  0.7441
  442TIP3    H225522   2.102   2.458  16.282  0.5345  0.6927 -0.5126
  443TIP3   OH225523   7.757   3.510  14.599  0.0690  0.0804 -0.4933
  443TIP3    H125524   7.700   3.435  14.619 -0.9670  0.6366 -1.2759
  443TIP3    H225525   7.842   3.485  14.636 -0.7230 -0.6645  0.9626
  444TIP3   OH225526   2.398   4.877  15.873  0.4507  0.4304  0.5002
  444TIP3    H125527   2.439   4.941  15.932 -0.0934  1.1015  0.1688
  444TIP3    H225528   2.305   4.898  15.876  0.0533 -1.2618  1.4710
  445TIP3   OH225529   6.300   7.538  14.089 -0.1901 -0.4713 -0.2495
  445TIP3    H125530   6.222   7.485  14.104  0.7202 -1.4438  1.2854
  445TIP3    H225531   6.358   7.517  14.162  1.3147  0.6003 -1.0790
  446TIP3   OH225532   1.375   1.204  15.295 -0.2576  0.1350 -0.0997
  446TIP3    H125533   1.404   1.280  15.243  1.2822 -1.9223 -2.4847
  446TIP3    H225534   1.393   1.129  15.239 -0.1657 -2.1689  2.8137
  447TIP3   OH225535   1.791   0.233  15.660  0.3691 -0.2584  0.5754
  447TIP3    H125536   1.819   0.303  15.601  0.2464 -0.0677  0.7410
  447TIP3    H225537   1.744   0.171  15.605 -0.6357  0.4191  0.6426
  448TIP3   OH225538   6.367   1.334  15.524  0.1404 -0.1229  0.2874
  448TIP3    H125539   6.301   1.347  15.456  2.3060  0.5350 -1.8492
  448TIP3    H225540   6.421   1.262  15.492 -0.4397 -1.7864  2.7974
  449TIP3   OH225541   0.135   3.027  15.341  0.1497 -0.4024 -0.1884
  449TIP3    H125542   0.083   3.041  15.262  0.0500 -2.1395 -0.4577
  449TIP3    H225543   0.092   2.956  15.387  0.8056 -0.1153  0.9142
  450TIP3   OH225544   4.821   6.395  15.851  0.2331  0.0554  0.0669
  450TIP3    H125545   4.805   6.412  15.758 -0.5823  0.4023  0.2628
  450TIP3    H225546   4.914   6.372  15.855  0.9567  2.4952 -0.5188
  451TIP3   OH225547   6.479   4.308  14.507 -0.7411  0.0519 -0.0627
  451TIP3    H125548   6.422   4.261  14.446 -0.3822  0.3589 -0.6408
  451TIP3    H225549   6.542   4.242  14.536  0.2377  0.3197 -1.4586
  452TIP3   OH225550   5.270   2.295  15.319  0.5907 -0.3643  0.1767
  452TIP3    H125551   5.332   2.338  15.378 -1.5043  0.9599  1.5141
  452TIP3    H225552   5.307   2.208  15.305  2.8667  0.4487  0.6881
  453TIP3   OH225553   1.379   3.330  14.744 -0.4896  0.0628 -0.5012
  453TIP3    H125554   1.467   3.291  14.747 -0.4401  0.2352  0.9297
  453TIP3    H225555   1.353   3.324  14.652  0.4910 -1.1796 -0.7220
  454TIP3   OH225556   2.978   4.165  15.752 -0.5020  0.3030 -0.0465
  454TIP3    H125557   3.063   4.206  15.767 -0.3383  0.8500 -2.1888
  454TIP3    H225558   2.914   4.235  15.765 -0.3188  0.9467 -2.2110
  455TIP3   OH225559   1.418   2.848  13.409 -0.2858 -0.3436 -0.1043
  455TIP3    H125560   1.373   2.931  13.393 -0.9431 -0.5450  0.6297
  455TIP3    H225561   1.510   2.867  13.390 -0.4135  0.5854  0.1484
  456TIP3   OH225562   4.866   7.085  15.354 -0.6330  0.5890 -0.2845
  456TIP3    H125563   4.947   7.107  15.307 -1.3333  1.1913 -1.2376
  456TIP3    H225564   4.831   7.009  15.307 -1.2603  1.0995 -0.6505
  457TIP3   OH225565   0.978   6.558  14.476 -0.3267 -0.0044 -0.3007
  457TIP3    H125566   1.033   6.552  14.397 -0.5058  1.2615 -0.5493
  457TIP3    H225567   0.986   6.473  14.518  2.6293  0.4243  0.2025
  458TIP3   OH225568   5.696   6.902  15.380 -0.8810 -0.0277 -0.6818
  458TIP3    H125569   5.779   6.951  15.376 -1.3775  0.8673 -0.2565
  458TIP3    H225570   5.669   6.895  15.288 -1.6094  1.9489 -0.6705
  459TIP3   OH225571   5.193   6.241  14.918 -0.2346  0.5513 -0.2634
  459TIP3    H125572   5.112   6.217  14.963 -0.2604  0.4722 -0.3523
  459TIP3    H225573   5.240   6.296  14.981 -0.2755  0.4489 -0.1428
  460TIP3   OH225574   0.447   4.549  14.299  0.7043  0.7966  0.3180
  460TIP3    H125575   0.481   4.637  14.281  0.7558  0.8394  0.6321
  460TIP3    H225576   0.355   4.563  14.323  0.0041  0.5608 -1.9720
  461TIP3   OH225577   4.948   0.441  15.959 -0.3749 -0.1921  0.1811
  461TIP3    H125578   5.039   0.442  15.929 -0.6749 -1.0952 -0.7825
  461TIP3    H225579   4.950   0.387  16.038 -0.1915 -0.7961 -0.2357
  462TIP3   OH225580   6.896   5.417  15.825 -0.2056 -0.1603 -0.1974
  462TIP3    H125581   6.838   5.372  15.886 -1.6904  0.5680 -0.9954
  462TIP3    H225582   6.837   5.448  15.756  1.0566  1.1626 -0.7245
  463TIP3   OH225583   6.889   1.345  16.131 -0.0536 -0.5574 -0.7933
  463TIP3    H125584   6.972   1.303  16.150 -0.1497 -1.0960 -1.5042
  463TIP3    H225585   6.912   1.432  16.099  0.2331 -0.6775 -0.9158
  464TIP3   OH225586   3.998   2.428  15.892  0.4944  0.4342  0.2762
  464TIP3    H125587   3.967   2.454  15.806 -0.1707  0.8789  0.6397
  464TIP3    H225588   4.025   2.510  15.934  0.3469  0.2876  0.6674
  465TIP3   OH225589   1.224   1.006  15.658  0.1570  0.7759 -0.6897
  465TIP3    H125590   1.260   0.918  15.659 -0.4373  0.5346 -0.0996
  465TIP3    H225591   1.297   1.061  15.629  0.5264  0.0949 -1.0780
  466TIP3   OH225592   1.160   6.343  13.833 -0.3307  0.4990  0.4718
  466TIP3    H125593   1.143   6.281  13.904  2.4021 -0.4749  0.4094
  466TIP3    H225594   1.229   6.400  13.868  0.4874  0.5230 -1.0787
  467TIP3   OH225595   2.761   8.027  15.880  0.1365  0.0632 -0.3387
  467TIP3    H125596   2.734   7.983  15.800 -1.2626  1.6379 -0.7819
  467TIP3    H225597   2.820   7.965  15.923  0.1681 -1.1926 -2.1076
  468TIP3   OH225598   6.507   2.667  13.962 -0.5895  0.2780 -0.0456
  468TIP3    H125599   6.487   2.573  13.956  0.1239  0.1184  0.0389
  468TIP3    H225600   6.527   2.681  14.054  1.2267  0.1078 -0.3804
  469TIP3   OH225601   4.107   2.381  15.377 -0.1381 -0.7763 -0.7937
  469TIP3    H125602   4.174   2.378  15.446 -0.3857 -0.6830 -0.5499
  469TIP3    H225603   4.045   2.313  15.400 -1.3026  0.5715  0.1972
  470TIP3   OH225604   2.978   2.588  13.597 -0.1823  0.4435 -0.0798
  470TIP3    H125605   3.073   2.591  13.587  0.2392  3.0915  2.9124
  470TIP3    H225606   2.950   2.679  13.583 -2.3028 -0.2728 -0.8584
  471TIP3   OH225607   1.364   6.079  15.209  0.4214 -0.3836  0.1003
  471TIP3    H125608   1.347   6.083  15.114 -0.2571 -0.2777  0.2199
  471TIP3    H225609   1.279   6.097  15.249  0.7853 -0.0726  0.7353
  472TIP3   OH225610   2.858   7.583  15.445  0.3804  0.2609  0.5186
  472TIP3    H125611   2.888   7.529  15.371  0.5593  0.4017  0.4864
  472TIP3    H225612   2.775   7.619  15.415 -0.3941 -1.0209  1.0392
  473TIP3   OH225613   8.259   3.898  15.585 -0.1604 -0.3635  0.1580
  473TIP3    H125614   8.340   3.892  15.534  0.7479  1.9799  1.1906
  473TIP3    H225615   8.189   3.882  15.521  1.0552 -2.5706 -0.7380
  474TIP3   OH225616   4.027   6.792  14.436 -0.2560  0.2092  0.4362
  474TIP3    H125617   3.943   6.749  14.418  0.3846 -0.4087 -1.2139
  474TIP3    H225618   4.051   6.761  14.524 -1.7538  0.4426  0.9631
  475TIP3   OH225619   7.451   5.620  13.889  0.1975  0.2123 -0.1214
  475TIP3    H125620   7.428   5.529  13.912 -0.8486  0.5790  0.3372
  475TIP3    H225621   7.371   5.657  13.854  0.5217  1.0676  0.0171
  476TIP3   OH225622   3.465   0.417  15.347 -0.5461  0.0569 -0.3782
  476TIP3    H125623   3.429   0.349  15.404 -0.0534 -0.0148 -0.1407
  476TIP3    H225624   3.559   0.418  15.368 -0.0347 -1.1086 -2.3605
  477TIP3   OH225625   2.129   4.622  14.240  0.1428 -0.5548  0.1465
  477TIP3    H125626   2.072   4.552  14.208 -3.0193  0.3654  3.1578
  477TIP3    H225627   2.151   4.596  14.330  0.8062  1.2505  0.5575
  478TIP3   OH225628   8.392   2.272  14.305  0.1671  0.7149  0.2525
  478TIP3    H125629   8.299   2.249  14.310 -0.4725  2.9812  0.2351
  478TIP3    H225630   8.413   2.302  14.394  1.5352 -1.7514  0.8516
  479TIP3   OH225631   4.880   2.724  14.872 -0.1909 -0.7414  0.0191
  479TIP3    H125632   4.921   2.771  14.945  0.4762 -1.7342  0.2988
  479TIP3    H225633   4.787   2.723  14.893 -0.2474  0.6085 -0.0847
  480TIP3   OH225634   6.239   3.941  14.279 -0.9195 -0.1872  0.6462
  480TIP3    H125635   6.283   4.021  14.305  0.8395 -0.9919  0.2544
  480TIP3    H225636   6.170   3.929  14.345 -1.3255  1.6848  0.6177
  481TIP3   OH225637   5.737   3.865  15.497 -0.1375  0.0796 -0.4467
  481TIP3    H125638   5.741   3.784  15.548  0.4662  1.5121  1.9961
  481TIP3    H225639   5.684   3.924  15.551 -0.8534  1.2390 -2.3211
  482TIP3   OH225640   3.201   1.282  15.966  0.1442 -0.4517  0.6976
  482TIP3    H125641   3.216   1.338  15.890  1.0448  0.3179  1.4213
  482TIP3    H225642   3.224   1.194  15.936 -1.0174 -0.4154 -0.3678
  483TIP3   OH225643   1.142   6.049  14.271 -0.4026 -0.0503 -0.1078
  483TIP3    H125644   1.213   6.003  14.315 -0.2308 -0.5202 -0.8461
  483TIP3    H225645   1.182   6.128  14.237 -0.4100  0.0487  0.1127
  484TIP3   OH225646   0.579   5.445  14.216  0.5552  0.6053  0.2324
  484TIP3    H125647   0.514   5.491  14.164  0.2117  0.4553  0.5234
  484TIP3    H225648   0.571   5.484  14.304  2.6644  2.4565 -0.2991
  485TIP3   OH225649   0.115   6.613  15.183  0.1651 -0.7367 -0.2406
  485TIP3    H125650   0.137   6.694  15.137  0.0840 -0.8380 -0.4610
  485TIP3    H225651   0.159   6.620  15.268 -2.1802  0.8343  0.9411
  486TIP3   OH225652   1.667   5.401  15.201  0.2268  0.1275  0.4019
  486TIP3    H125653   1.716   5.415  15.282  0.6115 -0.1338  0.2160
  486TIP3    H225654   1.581   5.438  15.219 -0.6356 -2.3862  1.9124
  487TIP3   OH225655   1.232   0.408  15.843 -0.3139  0.0041 -0.5312
  487TIP3    H125656   1.177   0.441  15.773  1.0570  1.1939 -1.0919
  487TIP3    H225657   1.172   0.361  15.901 -1.7244  0.3867 -1.6361
  488TIP3   OH225658   6.925   1.092  14.647  0.0947  0.2196  0.0273
  488TIP3    H125659   6.994   1.046  14.599  0.5643 -1.4511  2.1199
  488TIP3    H225660   6.971   1.162  14.694 -0.0711  0.6914 -0.4983
  489TIP3   OH225661   1.929   0.835  15.355  0.0030  0.0457 -0.3499
  489TIP3    H125662   2.001   0.834  15.418  0.0446  1.3756 -0.3374
  489TIP3    H225663   1.973   0.843  15.270  0.0002 -2.7080 -0.7141
  490TIP3   OH225664   0.977   6.630  15.888 -0.1431 -0.0735  0.3605
  490TIP3    H125665   0.887   6.609  15.913  0.3251 -1.5614  0.8898
  490TIP3    H225666   0.983   6.725  15.897 -1.4962 -0.0201  0.8696
  491TIP3   OH225667   1.122   7.279  15.025  0.2898 -0.0563  0.3709
  491TIP3    H125668   1.164   7.252  14.943 -1.9226 -1.7906 -0.2838
  491TIP3    H225669   1.185   7.253  15.093  1.3074 -0.3993 -0.6718
  492TIP3   OH225670   1.383   1.200  15.561  0.7092  0.2142 -0.6859
  492TIP3    H125671   1.381   1.198  15.465  2.8245  1.8289 -0.8301
  492TIP3    H225672   1.363   1.291  15.583  3.0528  0.5668  0.2308
  493TIP3   OH225673   7.873   1.687  16.050 -0.1693  0.0511  0.0647
  493TIP3    H125674   7.873   1.706  15.957  0.8020 -2.1839 -0.4651
  493TIP3    H225675   7.857   1.771  16.093  1.4959  1.5280 -2.0322
  494TIP3   OH225676   3.774   6.979  13.681 -0.3359  0.0728 -0.1989
  494TIP3    H125677   3.779   7.063  13.635 -0.3797  0.0552 -0.2358
  494TIP3    H225678   3.864   6.948  13.684 -0.1543  0.6327  0.7669
  495TIP3   OH225679   2.785   1.790  15.471  0.5846 -0.0140  0.6065
  495TIP3    H125680   2.745   1.824  15.391 -0.6358 -0.1947  1.1168
  495TIP3    H225681   2.792   1.696  15.455 -0.2496 -0.1388  0.9511
  496TIP3   OH225682   5.993   0.749  15.003  0.4614  0.1700  0.3972
  496TIP3    H125683   6.015   0.672  14.951  0.1458  0.9085 -0.8732
  496TIP3    H225684   6.053   0.745  15.078 -0.1394 -1.7518  0.8352
  497TIP3   OH225685   8.428   3.329  15.977 -0.3094  0.3753 -0.0391
  497TIP3    H125686   8.512   3.300  15.942 -0.3538  1.3247 -0.9692
  497TIP3    H225687   8.434   3.424  15.979 -2.1464  0.6252 -2.2488
  498TIP3   OH225688   3.110   1.576  14.536 -0.4743  0.2510  0.1528
  498TIP3    H125689   3.160   1.618  14.606  2.6069 -0.7452 -1.2843
  498TIP3    H225690   3.137   1.622  14.456 -0.2833 -1.6239 -0.9268
  499TIP3   OH225691   3.954   4.493  15.820  0.1889  0.1997 -0.2647
  499TIP3    H125692   3.872   4.461  15.858 -0.0371 -1.5313 -2.0756
  499TIP3    H225693   4.011   4.509  15.896 -0.6410 -1.9566  0.9003
  500TIP3   OH225694   2.314   6.052  15.363  0.3975 -0.4446  0.1698
  500TIP3    H125695   2.337   6.129  15.311  1.2128  0.7212  2.1460
  500TIP3    H225696   2.221   6.037  15.346  0.2392  0.9497 -0.2814
  501TIP3   OH225697   5.029   2.443  15.446  0.2743 -0.4778 -0.2295
  501TIP3    H125698   5.121   2.416  15.440  0.7890  1.1628 -0.2166
  501TIP3    H225699   5.033   2.538  15.460 -1.4366 -0.2412 -1.0914
  502TIP3   OH225700   5.060   8.166  16.185  0.2553  0.0586  0.4128
  502TIP3    H125701   5.000   8.126  16.121 -0.9867  1.5481  0.5846
  502TIP3    H225702   5.146   8.162  16.143 -0.1644 -1.0169 -0.3769
  503TIP3   OH225703   7.695   6.750  16.018  0.6010  0.1182  0.5449
  503TIP3    H125704   7.714   6.801  16.097  0.7249  1.4054 -0.2787
  503TIP3    H225705   7.609   6.783  15.989  0.1843 -0.9122  0.5749
  504TIP3   OH225706   3.698   3.908  15.929  0.3587 -0.2333  0.5230
  504TIP3    H125707   3.772   3.891  15.871 -0.1105  0.9153 -0.4361
  504TIP3    H225708   3.654   3.823  15.937  0.4680 -0.4199 -0.7387
  505TIP3   OH225709   2.855   6.888  14.179  0.2387 -1.0272  0.4768
  505TIP3    H125710   2.830   6.863  14.268  0.6344 -0.8894  0.6272
  505TIP3    H225711   2.819   6.818  14.124 -0.1973 -0.9977  0.7205
  506TIP3   OH225712   3.569   1.330  15.631  0.4397  0.1114 -0.1465
  506TIP3    H125713   3.519   1.311  15.710 -0.3093  2.6204  0.0799
  506TIP3    H225714   3.646   1.378  15.662  2.1678 -2.1509 -0.6639
  507TIP3   OH225715   6.456   5.082  15.973  0.1587 -1.1520 -0.4603
  507TIP3    H125716   6.439   5.083  15.879  0.7801 -0.1507 -0.5714
  507TIP3    H225717   6.506   5.162  15.990 -0.9003 -0.7453  0.9005
  508TIP3   OH225718   5.967   6.785  15.113  0.3434 -0.1008 -0.5825
  508TIP3    H125719   6.061   6.778  15.094  0.2606  0.5054 -1.2390
  508TIP3    H225720   5.944   6.875  15.093 -0.6705 -0.5931 -1.7614
  509TIP3   OH225721   1.923   2.090  15.432 -0.3765 -0.0568 -0.1511
  509TIP3    H125722   1.933   2.001  15.466  0.0722 -0.3524 -1.0388
  509TIP3    H225723   1.903   2.143  15.509  1.5150 -0.5549  0.7300
  510TIP3   OH225724   4.869   7.408  14.427 -0.2332 -0.2768  0.0183
  510TIP3    H125725   4.859   7.390  14.334 -0.1480  0.8568 -0.2199
  510TIP3    H225726   4.964   7.407  14.442 -0.2645 -1.3927  0.3098
  511TIP3   OH225727   1.151   3.079  13.646 -0.2453 -0.6741 -0.0909
  511TIP3    H125728   1.216   3.133  13.691 -0.2890 -0.1329 -0.6641
  511TIP3    H225729   1.082   3.065  13.711 -0.0511 -0.3675  0.1818
  512TIP3   OH225730   0.321   0.481  15.896  0.1773  0.3144 -0.6234
  512TIP3    H125731   0.327   0.509  15.987  0.6338 -1.5064 -0.0557
  512TIP3    H225732   0.237   0.435  15.891  2.2089 -4.0158  0.3030
  513TIP3   OH225733   0.267   5.084  14.444  0.4672 -0.1675  0.0236
  513TIP3    H125734   0.332   5.152  14.459  0.8359 -0.7003  0.9700
  513TIP3    H225735   0.185   5.121  14.477  0.9111 -0.6214  1.7288
  514TIP3   OH225736   6.467   5.310  14.957  0.6212  0.1733  0.1885
  514TIP3    H125737   6.448   5.237  15.016 -0.6440  0.2335 -0.1208
  514TIP3    H225738   6.417   5.291  14.878 -0.5649  1.8529  0.4742
  515TIP3   OH225739   1.519   8.352  14.558 -0.1009  0.3465 -0.0857
  515TIP3    H125740   1.604   8.373  14.597  0.0301 -0.3988  0.0376
  515TIP3    H225741   1.537   8.282  14.496 -0.8415 -0.8261  0.9771
  516TIP3   OH225742   2.028   0.968  14.644  0.7860 -0.2354 -0.4397
  516TIP3    H125743   2.072   1.051  14.661 -2.2234  0.9800  2.7629
  516TIP3    H225744   1.948   0.993  14.598  0.1638 -1.3966 -0.0293
  517TIP3   OH225745   4.088   1.256  13.893 -0.2372 -0.6555  0.2697
  517TIP3    H125746   4.085   1.249  13.989 -0.7250 -0.7066  0.2525
  517TIP3    H225747   4.017   1.316  13.871 -0.4227 -1.0019 -0.0921
  518TIP3   OH225748   6.585   5.106  14.533  0.2306 -0.0567 -0.0745
  518TIP3    H125749   6.506   5.147  14.568  0.1450 -0.4401  0.1823
  518TIP3    H225750   6.559   5.016  14.513  0.3797  0.0467 -0.7711
  519TIP3   OH225751   7.384   5.598  15.066 -0.1418 -0.2445  0.0249
  519TIP3    H125752   7.407   5.558  14.983 -0.1898  0.3022 -0.2539
  519TIP3    H225753   7.341   5.680  15.042 -0.2592 -0.1388  0.5855
  520TIP3   OH225754   7.697   5.648  15.678  0.0455 -0.2214 -0.5981
  520TIP3    H125755   7.766   5.625  15.617  1.6398 -0.4270  1.1898
  520TIP3    H225756   7.621   5.666  15.623  0.8161 -2.3250 -2.5125
  521TIP3   OH225757   1.977   1.980  14.953 -0.5353  0.1761  0.0487
  521TIP3    H125758   2.002   1.960  14.863 -2.6443 -1.4796 -0.2577
  521TIP3    H225759   2.038   1.930  15.007  1.9989  2.6569 -0.2821
  522TIP3   OH225760   7.794   4.322  15.127  0.0808 -0.1084 -0.2302
  522TIP3    H125761   7.760   4.282  15.207  0.7022 -1.3789 -0.5720
  522TIP3    H225762   7.737   4.291  15.058 -0.1487  0.5821 -0.3631
  523TIP3   OH225763   8.050   1.706  15.043 -0.0196  0.1867  0.0067
  523TIP3    H125764   8.107   1.698  15.119 -1.7035 -3.4266  1.1484
  523TIP3    H225765   7.965   1.731  15.079 -0.6983 -1.0166 -0.6749
  524TIP3   OH225766   6.642   6.222  15.909 -0.5104 -0.3598 -0.0446
  524TIP3    H125767   6.708   6.291  15.894 -1.6814  1.2304  1.6379
  524TIP3    H225768   6.693   6.142  15.916  1.4310  0.9087  1.9522
  525TIP3   OH225769   4.333   6.780  15.898  0.0063  0.4558  0.1559
  525TIP3    H125770   4.368   6.739  15.977  0.2816  0.6761  0.1507
  525TIP3    H225771   4.400   6.765  15.831  0.2440  1.1613  0.2273
  526TIP3   OH225772   1.514   2.932  15.191 -0.2623 -0.9180 -0.7783
  526TIP3    H125773   1.493   3.025  15.196  0.9829 -0.5951 -1.1943
  526TIP3    H225774   1.542   2.909  15.279  1.5240 -0.3454 -1.1635
  527TIP3   OH225775   8.198   6.878  15.503  0.2511 -0.3471 -0.1455
  527TIP3    H125776   8.180   6.894  15.411  0.2104  2.4740  0.2647
  527TIP3    H225777   8.113   6.887  15.546  0.0049 -3.0491  0.0886
  528TIP3   OH225778   6.688   8.310  14.696 -0.1143  0.7494 -0.2458
  528TIP3    H125779   6.747   8.268  14.633  0.2048  0.7719  0.0379
  528TIP3    H225780   6.621   8.244  14.713 -0.5329  0.9509 -1.0547
  529TIP3   OH225781   5.125   3.851  15.926 -0.2323  0.2378 -0.1082
  529TIP3    H125782   5.184   3.890  15.862 -1.9335  0.8991 -1.3369
  529TIP3    H225783   5.060   3.919  15.944 -2.2536 -1.3807 -0.9623
  530TIP3   OH225784   5.792   1.063  15.222  0.0088  0.3316  0.4022
  530TIP3    H125785   5.776   1.050  15.128 -1.6677 -0.4160  0.7413
  530TIP3    H225786   5.886   1.052  15.232  0.3481  1.3199 -1.3158
  531TIP3   OH225787   4.478   8.319  15.669 -0.3441  0.1532 -0.0201
  531TIP3    H125788   4.470   8.385  15.600  0.8552  3.1195  2.4498
  531TIP3    H225789   4.398   8.327  15.720 -0.9800 -1.6359 -0.6519
  532TIP3   OH225790   5.447   2.622  14.268  0.6755  0.0628  0.0999
  532TIP3    H125791   5.359   2.603  14.235  0.9088  1.8631 -1.7863
  532TIP3    H225792   5.472   2.543  14.316 -1.8971 -0.5479  0.5871
  533TIP3   OH225793   8.373   2.851  14.406 -0.1071 -0.2910  0.2326
  533TIP3    H125794   8.388   2.907  14.483 -0.3459 -0.0610  0.1138
  533TIP3    H225795   8.293   2.803  14.427  1.3793 -2.4179  1.3935
  534TIP3   OH225796   1.965   4.511  15.201 -0.0798  0.8726  0.2819
  534TIP3    H125797   1.949   4.508  15.296 -1.8486  0.1141  0.0018
  534TIP3    H225798   2.011   4.429  15.182  0.2431  1.0079  0.4818
  535TIP3   OH225799   1.330   4.386  15.370  0.4431 -0.4731 -0.2133
  535TIP3    H125800   1.396   4.355  15.431 -0.0350 -0.6623  0.2188
  535TIP3    H225801   1.376   4.397  15.287  1.3432  0.7867  0.4241
  536TIP3   OH225802   5.423   8.036  15.324 -0.6256 -0.3812  0.1838
  536TIP3    H125803   5.414   7.998  15.412  2.1658 -3.7018 -0.6981
  536TIP3    H225804   5.387   7.969  15.265 -0.8658  0.9916 -1.2881
  537TIP3   OH225805   4.979   2.025  15.103  0.0297 -0.0974  0.1779
  537TIP3    H125806   4.975   2.021  15.007 -1.9126  1.5140  0.1112
  537TIP3    H225807   5.022   2.109  15.121 -0.0439 -0.1695  0.6954
  538TIP3   OH225808   0.572   5.890  14.333  0.8911  0.5632 -0.5186
  538TIP3    H125809   0.614   5.924  14.412  1.1981 -0.2330 -0.3360
  538TIP3    H225810   0.638   5.833  14.293 -0.2344 -1.3429  0.1947
  539TIP3   OH225811   4.632   0.063  14.736  0.0009 -1.1571 -0.5794
  539TIP3    H125812   4.708   0.069  14.795 -0.2178  0.4672 -0.4216
  539TIP3    H225813   4.561   0.031  14.792  0.4289 -2.1359 -0.5903
  540TIP3   OH225814   7.581   5.982  15.612 -0.8528  0.0430 -0.1101
  540TIP3    H125815   7.560   5.889  15.610  0.3651 -0.2494 -0.3507
  540TIP3    H225816   7.533   6.019  15.538  0.1125 -0.7493 -1.1780
  541TIP3   OH225817   3.410   5.063  15.191 -0.2739  0.2826  0.2266
  541TIP3    H125818   3.467   5.111  15.251  1.3170 -1.8556  0.5326
  541TIP3    H225819   3.345   5.022  15.247 -1.9297  2.3140 -0.0779
  542TIP3   OH225820   6.740   3.266  16.138  0.3641 -0.1444  0.1060
  542TIP3    H125821   6.731   3.176  16.108  0.0651 -0.4626  1.1179
  542TIP3    H225822   6.698   3.267  16.224  2.6199  0.3582  1.2719
  543TIP3   OH225823   5.952   1.104  15.808 -0.4884 -0.2717  0.4520
  543TIP3    H125824   5.980   1.016  15.832 -1.0596 -0.4383  0.5220
  543TIP3    H225825   5.990   1.119  15.721  0.1241 -0.3461  0.7073
  544TIP3   OH225826   6.056   5.398  16.126  0.3215 -0.0549 -0.2902
  544TIP3    H125827   6.000   5.359  16.193  1.9987 -1.8843  0.1462
  544TIP3    H225828   6.003   5.399  16.047 -0.9249  0.0076  0.5211
  545TIP3   OH225829   4.863   5.441  14.183  0.3247  0.5430  0.1150
  545TIP3    H125830   4.828   5.365  14.138  0.0538  0.1498  0.9616
  545TIP3    H225831   4.938   5.468  14.131  0.0129  0.1182 -0.5690
  546TIP3   OH225832   7.612   1.087  14.848  0.5915 -0.2884  0.0227
  546TIP3    H125833   7.670   1.161  14.862 -0.0568  0.2719 -0.2141
  546TIP3    H225834   7.652   1.015  14.897  0.0697  0.7689  2.0973
  547TIP3   OH225835   4.481   5.886  15.109  0.4060  0.3400 -0.5284
  547TIP3    H125836   4.558   5.866  15.056  2.0627  2.6909  0.8062
  547TIP3    H225837   4.517   5.920  15.191 -2.0818  0.9554  0.3904
  548TIP3   OH225838   2.029   6.045  15.686 -0.3865  0.1965 -0.3868
  548TIP3    H125839   1.953   6.069  15.739  0.2078  0.9816  0.1476
  548TIP3    H225840   2.104   6.065  15.742  0.2336  0.2327 -1.2118
  549TIP3   OH225841   5.175   4.946  15.351  0.3447  0.0998 -0.1075
  549TIP3    H125842   5.249   4.951  15.413  1.5055  0.3445 -1.4527
  549TIP3    H225843   5.135   5.033  15.357  0.3220  0.0584  0.4409
  550TIP3   OH225844   3.241   2.550  15.322  0.1951 -0.4647 -0.0859
  550TIP3    H125845   3.271   2.641  15.326  0.5785 -0.5986  0.1178
  550TIP3    H225846   3.250   2.527  15.229  0.4413 -0.4109 -0.0749
  551TIP3   OH225847   4.628   3.910  14.040 -0.0947 -0.1809  0.2301
  551TIP3    H125848   4.593   3.837  14.091 -0.5547 -0.6374 -0.7115
  551TIP3    H225849   4.555   3.936  13.983  0.5186  0.0727 -0.4469
  552TIP3   OH225850   0.114   6.599  16.034  0.6445  0.8105  0.6116
  552TIP3    H125851   0.151   6.525  15.985  0.8446  1.9981 -1.1010
  552TIP3    H225852   0.190   6.646  16.068  0.5221  0.4238  1.4625
  553TIP3   OH225853   1.477   5.158  14.382  0.1371  0.0695 -0.1256
  553TIP3    H125854   1.475   5.087  14.446 -2.0471 -0.8585 -1.1009
  553TIP3    H225855   1.569   5.165  14.357  0.8204 -0.4790  2.0480
  554TIP3   OH225856   5.026   7.764  14.461  0.4761 -0.7069 -0.2480
  554TIP3    H125857   5.062   7.795  14.545  0.5847 -1.3186 -0.0660
  554TIP3    H225858   5.026   7.842  14.406 -1.7674  0.2818  1.0284
  555TIP3   OH225859   6.597   3.717  15.355 -0.4109  0.4580  0.5221
  555TIP3    H125860   6.593   3.785  15.288 -3.0075 -0.6795 -0.6236
  555TIP3    H225861   6.633   3.641  15.310 -2.6541 -0.4672  0.1935
  556TIP3   OH225862   7.112   3.068  15.534 -0.8432 -0.3120 -0.0212
  556TIP3    H125863   7.145   3.141  15.587 -0.4770 -0.4615 -0.0357
  556TIP3    H225864   7.073   3.110  15.457 -1.4713 -0.0903  0.4156
  557TIP3   OH225865   5.528   3.068  14.856  0.2680  0.4917 -0.2439
  557TIP3    H125866   5.445   3.033  14.889  0.5482  1.5920  1.7936
  557TIP3    H225867   5.502   3.122  14.781 -0.6421 -0.4722 -0.6588
  558TIP3   OH225868   5.660   7.741  14.808 -0.5857 -0.2448 -0.7347
  558TIP3    H125869   5.676   7.756  14.714  0.7065  0.9408 -0.3704
  558TIP3    H225870   5.629   7.651  14.813 -0.1475 -0.5139 -2.2543
  559TIP3   OH225871   0.728   5.016  14.377 -0.1912 -0.0531  0.2323
  559TIP3    H125872   0.649   5.070  14.388  0.2831  0.5855  0.5565
  559TIP3    H225873   0.761   5.039  14.291 -0.5577 -0.6000 -0.0616
  560TIP3   OH225874   2.159   4.517  14.964 -0.4011 -0.1818 -0.1943
  560TIP3    H125875   2.214   4.448  14.926 -1.2213 -0.5509 -0.7265
  560TIP3    H225876   2.222   4.584  14.992  0.4630 -1.4706  1.0609
  561TIP3   OH225877   1.872   0.609  14.815  0.3208  0.2511 -0.7249
  561TIP3    H125878   1.866   0.522  14.855  2.0163  0.5888  0.3590
  561TIP3    H225879   1.787   0.650  14.832  1.0678  0.5668  3.1128
  562TIP3   OH225880   4.247   0.476  14.110  0.3222 -0.3490  0.6180
  562TIP3    H125881   4.294   0.435  14.037  1.4873  1.5538  0.2250
  562TIP3    H225882   4.278   0.428  14.188  1.0180 -0.7509  0.1090
  563TIP3   OH225883   0.019   4.327  15.101  0.7515  0.0081 -0.0402
  563TIP3    H125884  -0.001   4.391  15.033  0.8177 -0.4056 -0.4566
  563TIP3    H225885   0.054   4.379  15.174 -2.0804  0.8477  0.8926
  564TIP3   OH225886   5.255   0.178  16.040  0.1242  0.6236 -0.0106
  564TIP3    H125887   5.185   0.181  16.105 -0.2983  1.6255 -0.4827
  564TIP3    H225888   5.336   0.181  16.092 -0.1792 -0.1225  0.5187
  565TIP3   OH225889   1.775   7.979  14.177 -0.1488  0.1641 -0.1722
  565TIP3    H125890   1.752   7.887  14.165 -1.7936  0.4579  0.4404
  565TIP3    H225891   1.758   8.019  14.091 -0.9120  0.1653 -0.0274
  566TIP3   OH225892   5.401   5.818  14.514  0.2561  0.3928  0.3918
  566TIP3    H125893   5.448   5.770  14.582 -0.3617  0.9499  1.2298
  566TIP3    H225894   5.320   5.846  14.556  0.0188  1.0445 -0.4721
  567TIP3   OH225895   2.106   2.611  15.059 -0.0506  0.0401  0.0180
  567TIP3    H125896   2.170   2.588  14.992 -1.0961 -3.1144 -0.0643
  567TIP3    H225897   2.146   2.583  15.141 -0.2317  0.5660  0.2897
  568TIP3   OH225898   6.627   7.746  14.543 -0.0982  0.4171  0.1221
  568TIP3    H125899   6.694   7.808  14.513  2.8395 -2.5945 -0.1606
  568TIP3    H225900   6.563   7.744  14.472  1.5315  0.6698 -1.4413
  569TIP3   OH225901   6.548   6.828  14.597 -0.3006  0.5085  0.4631
  569TIP3    H125902   6.465   6.784  14.575 -0.4799  1.2032 -0.2943
  569TIP3    H225903   6.614   6.759  14.587 -0.4931  0.5363 -1.3932
  570TIP3   OH225904   7.482   6.831  15.695 -0.3059 -0.0467  0.2633
  570TIP3    H125905   7.389   6.827  15.670 -0.5956 -1.5097  1.4562
  570TIP3    H225906   7.523   6.759  15.646 -0.1075 -0.3777  0.9101
  571TIP3   OH225907   3.213   4.785  14.434 -0.3652  0.1804 -0.0540
  571TIP3    H125908   3.275   4.716  14.456 -0.2604  0.2147 -0.2384
  571TIP3    H225909   3.166   4.803  14.515  3.6286  4.1139  1.8323
  572TIP3   OH225910   3.975   3.057  13.897 -0.3690 -0.0026 -0.3097
  572TIP3    H125911   3.934   3.143  13.885 -0.1587  0.4388  1.7851
  572TIP3    H225912   4.061   3.066  13.856 -0.1453  0.9872  0.3303
  573TIP3   OH225913   7.856   7.479  15.751 -0.2014  0.0290  0.2252
  573TIP3    H125914   7.784   7.464  15.691  1.1054  1.2851 -1.7556
  573TIP3    H225915   7.895   7.392  15.763 -0.0955 -0.1565 -1.2820
  574TIP3   OH225916   1.800   3.693  15.884 -0.1271  0.3898 -0.2306
  574TIP3    H125917   1.742   3.689  15.960 -0.2660  1.1895 -0.2855
  574TIP3    H225918   1.782   3.613  15.835 -1.1669  0.6121 -0.2241
  575TIP3   OH225919   5.292   7.903  15.130  0.0289  0.0267  0.0773
  575TIP3    H125920   5.331   7.973  15.078 -1.9516  0.4544 -0.9172
  575TIP3    H225921   5.321   7.822  15.087  0.7382  0.2781  0.0652
  576TIP3   OH225922   1.342   6.373  15.065 -0.1079 -0.2511 -0.3690
  576TIP3    H125923   1.290   6.451  15.047 -1.6503 -0.5863  2.0658
  576TIP3    H225924   1.319   6.311  14.996 -3.3772 -0.5125  0.7740
  577TIP3   OH225925   4.840   4.395  15.102  0.6076  0.4162 -0.1265
  577TIP3    H125926   4.934   4.390  15.083  0.4705  1.5926 -1.2659
  577TIP3    H225927   4.813   4.303  15.109  1.7804  0.0542 -0.0634
  578TIP3   OH225928   7.582   5.663  14.512 -0.2368 -0.1502  0.2607
  578TIP3    H125929   7.502   5.629  14.473  0.0346  0.2459 -0.6518
  578TIP3    H225930   7.569   5.652  14.606 -1.9384  1.1424  0.2261
  579TIP3   OH225931   1.119   5.918  15.666 -0.1515 -0.4121  0.2138
  579TIP3    H125932   1.151   5.886  15.582  0.3759 -1.0254  0.6425
  579TIP3    H225933   1.029   5.885  15.672  0.6783 -2.7469  1.0865
  580TIP3   OH225934   0.349   5.778  15.081  0.5023  0.4805  0.6565
  580TIP3    H125935   0.274   5.778  15.022 -2.3748  2.5351  3.9421
  580TIP3    H225936   0.401   5.853  15.054 -0.2792  0.8668  0.2102
  581TIP3   OH225937   5.305   1.068  16.262  0.1482  1.0257 -0.3904
  581TIP3    H125938   5.388   1.020  16.265 -0.5365 -0.1885 -0.4184
  581TIP3    H225939   5.242   1.012  16.307 -1.1913  0.8256 -2.3923
  582TIP3   OH225940   5.421   1.061  14.890 -0.4462  0.3231 -0.3751
  582TIP3    H125941   5.517   1.058  14.895 -0.4715  1.0449  1.3868
  582TIP3    H225942   5.402   1.130  14.826  0.1676 -0.6143 -1.6211
  583TIP3   OH225943   4.295   7.613  14.149 -0.9683 -0.4389 -0.4465
  583TIP3    H125944   4.233   7.642  14.216 -0.0127  1.3619 -0.2632
  583TIP3    H225945   4.242   7.567  14.085 -2.0963 -1.0868  0.9105
  584TIP3   OH225946   7.993   5.453  16.373 -0.1123  0.1476  0.2262
  584TIP3    H125947   8.032   5.498  16.298 -1.2592 -0.0906 -0.5452
  584TIP3    H225948   8.066   5.411  16.417  0.5481  0.1030 -0.8980
  585TIP3   OH225949   4.944   7.594  13.795  0.2097  0.3116  0.3474
  585TIP3    H125950   4.913   7.682  13.817  0.5875  0.3245  0.8242
  585TIP3    H225951   4.866   7.538  13.805  0.4993  0.1976  2.4050
  586TIP3   OH225952   2.881   4.461  14.566 -0.2097 -0.0371 -0.7313
  586TIP3    H125953   2.857   4.552  14.552  0.3662  0.1685 -0.3919
  586TIP3    H225954   2.868   4.419  14.481  0.6624  0.6148 -1.1980
  587TIP3   OH225955   6.798   5.413  14.721 -0.6459  0.2088  0.1216
  587TIP3    H125956   6.849   5.494  14.726  2.0886 -1.3377 -0.6172
  587TIP3    H225957   6.792   5.383  14.812 -1.5480  1.0964  0.3818
  588TIP3   OH225958   1.334   4.537  15.732  0.0761  0.0413  0.2901
  588TIP3    H125959   1.254   4.486  15.727 -0.7190  1.2131  0.5859
  588TIP3    H225960   1.343   4.577  15.645 -1.0740  1.9030  0.9561
  589TIP3   OH225961   8.042   7.187  15.698 -0.0217  0.2776  0.1164
  589TIP3    H125962   8.001   7.173  15.783  1.7667 -0.6832  0.8452
  589TIP3    H225963   8.119   7.131  15.698  0.7687  1.2891 -1.6133
  590TIP3   OH225964   5.827   1.165  14.222  0.6169  0.0305  0.4762
  590TIP3    H125965   5.756   1.229  14.234  1.2287  0.5888  1.2135
  590TIP3    H225966   5.907   1.217  14.226  1.0624 -0.3010 -2.3033
  591TIP3   OH225967   5.236   2.171  14.585 -0.1839  0.1733  0.1582
  591TIP3    H125968   5.216   2.223  14.507  0.1510  0.9161  0.5521
  591TIP3    H225969   5.230   2.234  14.657 -0.2273 -0.4447  0.7009
  592TIP3   OH225970   5.732   3.839  14.584  0.6630  0.3035  0.8411
  592TIP3    H125971   5.754   3.889  14.663  0.8012 -1.2638  1.8419
  592TIP3    H225972   5.637   3.846  14.577  0.7086  0.9322  0.8043
  593TIP3   OH225973   0.718   6.409  14.534 -0.0612 -0.2423 -0.3006
  593TIP3    H125974   0.680   6.475  14.591 -1.0827 -0.4563 -0.7084
  593TIP3    H225975   0.723   6.330  14.588  0.3007 -0.0823 -0.0927
  594TIP3   OH225976   0.092   6.519  14.395  0.8601  0.3855  0.0134
  594TIP3    H125977   0.154   6.586  14.367 -1.0441  1.6892 -1.4092
  594TIP3    H225978   0.114   6.443  14.342  1.7222  0.5715  0.0891
  595TIP3   OH225979   0.356   4.856  15.533 -0.1155 -0.2977  0.5498
  595TIP3    H125980   0.388   4.939  15.567 -0.4890  0.6351 -1.2138
  595TIP3    H225981   0.412   4.838  15.457  1.1116 -2.6130  1.8946
  596TIP3   OH225982   2.668   2.042  14.656  0.3142  0.0285  0.3957
  596TIP3    H125983   2.664   2.046  14.561  2.4542  0.5396  0.2776
  596TIP3    H225984   2.621   1.962  14.679 -0.3914  0.0025 -1.0659
  597TIP3   OH225985   2.408   4.633  15.751  0.0313  0.3944  0.1144
  597TIP3    H125986   2.421   4.576  15.827  1.4748  1.3498  0.6179
  597TIP3    H225987   2.418   4.722  15.785  0.3360  0.8518 -1.1230
  598TIP3   OH225988   7.960   1.450  15.731 -0.0512 -0.1207  0.3195
  598TIP3    H125989   7.927   1.538  15.749  1.3426  0.8931 -1.6353
  598TIP3    H225990   8.052   1.453  15.756 -0.0594 -1.1567  0.5422
  599TIP3   OH225991   2.042   5.746  14.320  0.9171 -0.2241 -0.1431
  599TIP3    H125992   2.070   5.708  14.237  0.8643  0.7350 -0.6150
  599TIP3    H225993   1.950   5.722  14.328  0.4814  0.9961 -1.1544
  600TIP3   OH225994   4.285   6.596  14.070 -0.6135 -0.7401 -0.2141
  600TIP3    H125995   4.239   6.680  14.061 -0.4659 -0.6772 -0.3847
  600TIP3    H225996   4.332   6.585  13.987 -0.7602 -1.0703 -0.2557
  601TIP3   OH225997   2.061   6.509  15.874  0.5202 -0.5261 -0.0437
  601TIP3    H125998   2.047   6.588  15.926  0.2342 -0.0035 -0.9120
  601TIP3    H225999   2.036   6.533  15.785  0.2274 -1.6575 -0.2829
  602TIP3   OH226000   0.938   1.730  16.006 -0.0007 -0.0610  0.3096
  602TIP3    H126001   0.928   1.635  15.999 -1.6515  0.1441 -0.5224
  602TIP3    H226002   1.024   1.748  15.967 -0.2453 -1.0814 -0.7637
  603TIP3   OH226003   7.214   3.319  14.197 -1.0236 -0.5665  0.0524
  603TIP3    H126004   7.224   3.227  14.223 -0.9533  0.0371  2.4451
  603TIP3    H226005   7.158   3.356  14.265  0.4323  1.5683  0.1721
  604TIP3   OH226006   6.875   2.628  15.615 -0.8267 -0.6138 -0.3340
  604TIP3    H126007   6.884   2.676  15.533  1.4525 -1.2366 -0.4990
  604TIP3    H226008   6.859   2.696  15.680  0.4074  0.2155 -0.8534
  605TIP3   OH226009   2.547   1.327  15.158  0.0248 -0.1713  0.4136
  605TIP3    H126010   2.505   1.335  15.244 -0.2555  1.2010  0.1662
  605TIP3    H226011   2.599   1.407  15.149 -1.5021  0.6842 -1.5047
  606TIP3   OH226012   7.032   1.692  14.426 -0.5459 -0.4926 -0.1752
  606TIP3    H126013   7.113   1.744  14.422 -0.4959 -0.1797  2.8639
  606TIP3    H226014   7.058   1.606  14.393  1.3283 -0.6611  1.5437
  607TIP3   OH226015   0.044   4.694  14.757  0.3529  0.1719 -0.9364
  607TIP3    H126016   0.039   4.692  14.661  0.4865  0.2634 -0.9449
  607TIP3    H226017   0.015   4.782  14.780 -2.2213 -0.6513 -0.7369
  608TIP3   OH226018   7.231   1.939  15.658  0.5630  0.5270 -0.3950
  608TIP3    H126019   7.302   1.874  15.661  0.3747  0.2336 -1.8030
  608TIP3    H226020   7.274   2.019  15.630  0.4631  0.5358 -0.5217
  609TIP3   OH226021   5.915   6.405  13.696  0.4225 -0.7219  0.0860
  609TIP3    H126022   5.856   6.477  13.718 -1.2070 -1.4470 -1.6188
  609TIP3    H226023   5.895   6.337  13.760 -0.9735 -1.1137 -0.7137
  610TIP3   OH226024   2.671   8.256  15.762 -0.0531 -0.0797 -0.4078
  610TIP3    H126025   2.667   8.325  15.827 -1.1613  0.1847 -0.7475
  610TIP3    H226026   2.716   8.184  15.806  0.4478  0.5803  0.1857
  611TIP3   OH226027   3.127   6.459  13.949  0.5828 -0.2686  0.3589
  611TIP3    H126028   3.092   6.497  13.868 -2.3901 -0.2728  1.5315
  611TIP3    H226029   3.155   6.370  13.923 -1.4100 -0.7006 -0.4656
  612TIP3   OH226030   6.222   2.758  14.416  0.1174  0.3783  0.4365
  612TIP3    H126031   6.139   2.801  14.436 -2.0666 -2.8432 -0.8271
  612TIP3    H226032   6.227   2.685  14.479  1.5205 -0.0356 -0.1197
  613TIP3   OH226033   5.762   5.201  15.058  0.1210 -0.1691 -0.1666
  613TIP3    H126034   5.715   5.211  14.975 -0.1406 -1.6523 -0.2228
  613TIP3    H226035   5.695   5.174  15.121  0.6277 -0.8846  0.0863
  614TIP3   OH226036   2.208   5.569  14.849  0.6328 -0.3763 -0.6289
  614TIP3    H126037   2.138   5.632  14.865 -0.6751 -2.0147  0.4136
  614TIP3    H226038   2.284   5.605  14.895 -0.2502  0.1748  0.4224
  615TIP3   OH226039   1.919   4.019  16.362 -0.3974  0.2263  0.2052
  615TIP3    H126040   1.950   3.930  16.378 -0.8824  0.1047  0.4892
  615TIP3    H226041   1.865   4.013  16.284 -0.0001  0.3719 -0.0829
  616TIP3   OH226042   8.187   2.504  16.071  0.2427 -0.6937  0.5758
  616TIP3    H126043   8.281   2.495  16.085  0.9753  1.7728 -1.9495
  616TIP3    H226044   8.157   2.560  16.143  1.4185  1.2450 -0.3715
  617TIP3   OH226045   1.260   1.782  14.978  0.0562  0.3763  0.3986
  617TIP3    H126046   1.226   1.728  14.908  1.1451  0.9618 -0.6130
  617TIP3    H226047   1.183   1.830  15.011 -0.3839  0.4500 -0.7118
  618TIP3   OH226048   6.305   3.732  15.469  0.8727  0.1310 -0.0867
  618TIP3    H126049   6.379   3.779  15.508  0.3368  0.2303  0.8391
  618TIP3    H226050   6.300   3.766  15.379  2.1474 -0.1266 -0.2732
  619TIP3   OH226051   0.040   7.243  15.029  0.6105  0.1995  0.4994
  619TIP3    H126052  -0.018   7.319  15.025  1.9089  1.2715  1.2123
  619TIP3    H226053   0.003   7.181  14.967 -3.2289 -0.5731  3.2356
  620TIP3   OH226054   1.049   1.234  16.129 -0.1274 -0.0832  0.4238
  620TIP3    H126055   1.130   1.248  16.178 -1.1804 -0.0881  2.2459
  620TIP3    H226056   1.076   1.181  16.053  2.1330  2.7025 -0.9270
  621TIP3   OH226057   5.323   7.266  14.940 -0.0599  0.6530  0.0009
  621TIP3    H126058   5.419   7.270  14.940  0.0595 -1.1996  0.3348
  621TIP3    H226059   5.301   7.203  14.871 -0.9632  0.2243  0.6542
  622TIP3   OH226060   3.997   1.568  14.589  0.2331 -0.3145 -0.2072
  622TIP3    H126061   4.059   1.515  14.537 -0.5044 -0.0224 -1.4352
  622TIP3    H226062   3.935   1.505  14.623 -0.6693 -0.2900 -1.7044
  623TIP3   OH226063   6.126   5.907  15.755  0.0463  0.3015 -0.4254
  623TIP3    H126064   6.196   5.845  15.777  1.4446  1.9818  0.0707
  623TIP3    H226065   6.136   5.922  15.662 -1.3617 -1.4129 -0.9112
  624TIP3   OH226066   6.870   6.977  14.909  0.2241 -0.0120 -0.7546
  624TIP3    H126067   6.896   6.952  14.820  1.2767  0.4674 -0.6014
  624TIP3    H226068   6.775   6.967  14.910  0.2928 -0.9979 -1.6242
  625TIP3   OH226069   4.566   7.718  14.621 -0.1847 -0.1934  0.2819
  625TIP3    H126070   4.530   7.804  14.600 -0.2173 -0.1625  0.4654
  625TIP3    H226071   4.496   7.673  14.668 -0.6131 -0.7638 -0.8555
  626TIP3   OH226072   3.740   3.133  14.574  0.2316  0.6769  0.9536
  626TIP3    H126073   3.665   3.116  14.630  0.6157  0.0039  1.2822
  626TIP3    H226074   3.713   3.206  14.518 -0.7781  0.2301  0.8423
  627TIP3   OH226075   5.833   2.093  15.826 -0.2142  0.0382 -0.4007
  627TIP3    H126076   5.741   2.113  15.842 -0.6642 -2.1698  0.0494
  627TIP3    H226077   5.836   1.998  15.814  2.1721 -0.1425  0.9272
  628TIP3   OH226078   4.206   6.666  15.527  0.3364 -0.4582  0.9195
  628TIP3    H126079   4.238   6.660  15.437  0.8371 -0.4826  1.0942
  628TIP3    H226080   4.219   6.578  15.563  1.5609 -0.0665  1.4768
  629TIP3   OH226081   5.473   5.928  15.968 -0.1830 -0.4929  0.4103
  629TIP3    H126082   5.550   5.901  15.917  0.2248  0.4992  0.4758
  629TIP3    H226083   5.506   5.996  16.026 -0.2866 -2.6276  3.1443
  630TIP3   OH226084   3.976   0.744  16.016  0.0026  0.2876  0.3348
  630TIP3    H126085   3.896   0.707  16.055 -1.5749  0.3360 -2.5839
  630TIP3    H226086   3.951   0.832  15.990  1.2226  0.5313 -0.0436
  631TIP3   OH226087   4.696   0.418  15.477  0.1718  0.0179  0.0904
  631TIP3    H126088   4.606   0.401  15.450  0.4399  0.4417 -1.1176
  631TIP3    H226089   4.723   0.339  15.523 -1.0096  0.1227  1.0197
  632TIP3   OH226090   0.863   3.709  16.096  0.6673 -0.2328 -0.2906
  632TIP3    H126091   0.837   3.729  16.186 -1.4069 -1.1363 -0.6238
  632TIP3    H226092   0.824   3.623  16.078  2.9292 -1.1136 -1.3446
  633TIP3   OH226093   7.992   5.099  15.633  0.3339  0.1639 -0.1789
  633TIP3    H126094   8.027   5.049  15.559  0.3143 -0.0727 -0.0307
  633TIP3    H226095   7.917   5.146  15.597 -0.3486 -0.8038 -0.0632
  634TIP3   OH226096   5.883   8.394  15.492  0.3191  0.7341  0.6476
  634TIP3    H126097   5.845   8.308  15.510  0.6161  0.5193  0.2819
  634TIP3    H226098   5.936   8.380  15.413 -0.7753  1.5851 -0.2620
  635TIP3   OH226099   6.794   8.317  14.144 -0.1154 -0.1222 -0.3387
  635TIP3    H126100   6.751   8.402  14.147  1.0368  0.4421  1.1986
  635TIP3    H226101   6.724   8.256  14.122 -1.1768  1.0666 -0.3959
  636TIP3   OH226102   1.223   7.748  15.204 -0.2325  0.0469 -0.0295
  636TIP3    H126103   1.192   7.820  15.150 -2.2898 -0.1923  0.7381
  636TIP3    H226104   1.170   7.752  15.284 -0.4366 -2.2810  0.0441
  637TIP3   OH226105   0.964   2.962  15.673  0.1099  0.2329  0.2284
  637TIP3    H126106   1.046   2.955  15.722 -0.2365 -2.4156  0.5871
  637TIP3    H226107   0.911   2.889  15.705 -1.9535  1.2060 -0.8078
  638TIP3   OH226108   1.301   5.330  14.267 -0.1497  0.3799  0.1676
  638TIP3    H126109   1.329   5.245  14.301 -0.7034 -0.8128 -2.1662
  638TIP3    H226110   1.269   5.377  14.344  1.5286 -0.9216  1.7626
  639TIP3   OH226111   6.469   5.623  14.480 -0.2515  0.1354  0.0214
  639TIP3    H126112   6.537   5.555  14.477 -1.0238 -0.6480 -0.0159
  639TIP3    H226113   6.419   5.604  14.559 -2.4963 -1.3635 -1.6448
  640TIP3   OH226114   7.125   4.102  15.057  0.4315 -0.0194  0.4148
  640TIP3    H126115   7.164   4.179  15.016  0.7232 -1.7985 -3.1259
  640TIP3    H226116   7.031   4.110  15.039  0.1835  0.4001  1.7911
  641TIP3   OH226117   5.585   6.076  14.577 -0.0552  0.7038  0.5217
  641TIP3    H126118   5.533   6.078  14.497  1.0315  1.0997 -0.1980
  641TIP3    H226119   5.635   5.995  14.572 -0.3256  0.4946  1.0417
  642TIP3   OH226120   2.893   7.431  15.025  0.2608  0.2489 -0.6256
  642TIP3    H126121   2.866   7.381  14.947  0.8823 -0.5745 -0.3181
  642TIP3    H226122   2.839   7.396  15.096  0.7177 -0.0027 -0.4026
  643TIP3   OH226123   4.784   7.067  16.010  0.0480 -0.1915  0.1156
  643TIP3    H126124   4.716   7.091  16.072  1.6093  2.8270  0.8669
  643TIP3    H226125   4.819   6.985  16.044  0.0030  0.7125  2.5936
  644TIP3   OH226126   3.168   1.635  13.521 -0.1582 -0.1314  0.2588
  644TIP3    H126127   3.082   1.661  13.487 -0.8320 -2.0858  0.2826
  644TIP3    H226128   3.227   1.645  13.446 -0.8887 -0.8992 -0.4553
  645TIP3   OH226129   1.743   1.377  14.058  0.0355 -0.1028 -0.3403
  645TIP3    H126130   1.649   1.392  14.064 -0.0810  0.2629 -2.3493
  645TIP3    H226131   1.768   1.416  13.975  2.0759  0.2529  0.3912
  646TIP3   OH226132   8.342   2.183  15.830 -0.0064 -0.6306 -0.1483
  646TIP3    H126133   8.399   2.172  15.907 -1.1166  1.2771  1.0312
  646TIP3    H226134   8.353   2.275  15.806 -1.5415 -0.5813 -0.7445
  647TIP3   OH226135   2.398   5.779  14.903 -0.4342 -0.4208  0.8451
  647TIP3    H126136   2.423   5.765  14.812  2.3986  0.5581  1.3859
  647TIP3    H226137   2.316   5.828  14.898  0.6327  1.3247 -1.2500
  648TIP3   OH226138   4.623   7.294  15.201 -0.2958  0.1576 -0.2952
  648TIP3    H126139   4.685   7.304  15.129  2.2950 -0.8610  1.6686
  648TIP3    H226140   4.563   7.226  15.172  0.9440 -0.5299 -1.3320
  649TIP3   OH226141   1.488   6.764  15.239 -0.0716 -0.2060  0.1142
  649TIP3    H126142   1.537   6.797  15.164  0.1112 -0.4780  0.1148
  649TIP3    H226143   1.486   6.670  15.228 -1.7630 -0.1113 -0.5997
  650TIP3   OH226144   0.544   7.220  15.037 -0.3355  0.6627 -0.4233
  650TIP3    H126145   0.624   7.201  14.988 -0.5233 -0.1334 -0.4493
  650TIP3    H226146   0.477   7.230  14.970 -0.0458  2.6267 -0.4785
  651TIP3   OH226147   0.726   2.474  14.090 -0.5102 -0.1188  0.3308
  651TIP3    H126148   0.730   2.558  14.043 -1.4006 -0.1689  0.1436
  651TIP3    H226149   0.636   2.444  14.077 -0.5391 -0.5365  1.3879
  652TIP3   OH226150   0.258   1.704  14.010 -0.3603 -0.2992  0.4743
  652TIP3    H126151   0.257   1.656  13.928 -0.1463 -1.2738  1.0254
  652TIP3    H226152   0.327   1.769  13.999 -1.2245  0.4800 -0.5953
  653TIP3   OH226153   3.826   1.137  14.394  0.4691 -0.1752 -1.1249
  653TIP3    H126154   3.751   1.093  14.434  0.1328 -0.7481 -2.3369
  653TIP3    H226155   3.798   1.229  14.386  1.1644  0.3270  1.3797
  654TIP3   OH226156   1.727   4.889  13.776 -0.0797  0.2602 -0.1371
  654TIP3    H126157   1.656   4.827  13.760 -1.1071  1.8255 -2.0400
  654TIP3    H226158   1.691   4.974  13.752  3.0206  0.9104 -3.3707
  655TIP3   OH226159   0.864   5.509  15.022  0.4553  0.0361  0.0308
  655TIP3    H126160   0.941   5.563  15.039 -0.1465  0.3674  1.9569
  655TIP3    H226161   0.848   5.464  15.105  0.6500 -2.7896 -1.3508
  656TIP3   OH226162   2.453   1.580  15.990 -0.1154  0.4999 -0.0136
  656TIP3    H126163   2.531   1.545  16.033 -0.9084 -1.4906 -0.1125
  656TIP3    H226164   2.466   1.675  15.991  2.4745  0.2263 -0.3518
  657TIP3   OH226165   4.401   4.589  15.221  0.0725  0.2092  0.2227
  657TIP3    H126166   4.477   4.570  15.165  0.0375  1.1723 -0.1732
  657TIP3    H226167   4.415   4.537  15.300  1.0433  0.2183  0.0638
  658TIP3   OH226168   0.687   5.369  14.802  0.0539  0.0066 -0.1374
  658TIP3    H126169   0.689   5.443  14.862 -0.7928  0.0051 -0.0997
  658TIP3    H226170   0.777   5.337  14.801 -0.0097 -0.3066  1.5297
  659TIP3   OH226171   5.681   0.453  14.260 -0.6145  0.2951  0.1243
  659TIP3    H126172   5.707   0.532  14.308 -1.0376  0.5113  0.0024
  659TIP3    H226173   5.666   0.483  14.171 -0.6663  0.0561  0.0524
  660TIP3   OH226174   1.868   4.579  16.155 -0.0235  0.0643  0.6333
  660TIP3    H126175   1.899   4.546  16.070  0.0855  0.0253  0.6881
  660TIP3    H226176   1.948   4.590  16.206 -0.2085 -1.8569  1.4317
  661TIP3   OH226177   4.649   3.331  14.521  0.3854 -0.0401 -0.7295
  661TIP3    H126178   4.572   3.349  14.576  1.1391  0.3885  0.2129
  661TIP3    H226179   4.634   3.242  14.488  0.2340 -0.5859  0.7340
  662TIP3   OH226180   3.616   0.181  14.492 -0.3180  0.8840  0.0645
  662TIP3    H126181   3.526   0.187  14.460 -0.1842  1.2466 -0.2505
  662TIP3    H226182   3.662   0.253  14.448  0.7070 -0.7555 -1.7270
  663TIP3   OH226183   6.643   6.969  13.573  0.0221 -0.8046 -0.6319
  663TIP3    H126184   6.577   7.039  13.571  1.4732  0.6359 -0.2314
  663TIP3    H226185   6.593   6.888  13.562 -2.1840 -0.0562  2.5306
  664TIP3   OH226186   4.140   3.851  15.842  0.4649 -0.1526  0.1696
  664TIP3    H126187   4.205   3.782  15.839  0.3999 -0.1802 -1.6961
  664TIP3    H226188   4.076   3.828  15.775 -1.8355 -0.4141  2.2711
  665TIP3   OH226189   3.107   1.412  14.746  0.2156  0.5220 -0.3749
  665TIP3    H126190   3.025   1.415  14.796 -0.1266  0.4655 -0.9269
  665TIP3    H226191   3.087   1.458  14.665  1.5976  3.2699  0.7080
  666TIP3   OH226192   0.937   1.758  16.379  0.3402 -0.0200  0.1654
  666TIP3    H126193   0.917   1.675  16.334 -0.1067  0.0386  0.2492
  666TIP3    H226194   1.032   1.757  16.390  0.7006  0.6974 -2.2537
  667TIP3   OH226195   8.119   4.750  14.784  0.0818 -0.0646  0.2470
  667TIP3    H126196   8.136   4.743  14.691 -0.1558 -0.4079  0.2273
  667TIP3    H226197   8.141   4.663  14.819  0.7531  0.2400  0.6047
  668TIP3   OH226198   0.049   5.241  15.401  0.2443  0.2534  0.3457
  668TIP3    H126199   0.138   5.213  15.379 -0.5407 -1.3720 -0.9416
  668TIP3    H226200   0.019   5.178  15.467 -0.5765 -0.3620 -0.5820
  669TIP3   OH226201   1.221   4.113  16.016  0.7433 -0.9858  0.5612
  669TIP3    H126202   1.277   4.159  15.953  0.4288 -1.0687  0.2194
  669TIP3    H226203   1.253   4.023  16.015  1.2004 -0.8331  1.0491
  670TIP3   OH226204   1.050   7.145  15.789 -0.1631  0.1371  0.2685
  670TIP3    H126205   1.021   7.130  15.699  1.9870 -0.1011 -0.4413
  670TIP3    H226206   1.127   7.201  15.780  0.2214 -0.0685  1.9467
  671TIP3   OH226207   7.457   7.227  14.943  0.3139  0.3681 -0.1864
  671TIP3    H126208   7.427   7.317  14.930  0.5717  0.2836 -1.4814
  671TIP3    H226209   7.518   7.233  15.017 -0.1824  1.1324  0.1749
  672TIP3   OH226210   1.947   6.605  15.617 -0.0539 -0.5694 -0.2999
  672TIP3    H126211   1.945   6.516  15.582  2.5401 -1.7942  2.2531
  672TIP3    H226212   1.876   6.607  15.681 -0.5245 -0.5784 -0.8192
  673TIP3   OH226213   6.202   3.639  15.955  0.1866 -0.2523  0.3220
  673TIP3    H126214   6.140   3.703  15.920 -0.4824  0.6712  2.9200
  673TIP3    H226215   6.278   3.645  15.897 -0.0955  2.4944  0.0722
  674TIP3   OH226216   1.625   4.150  15.903  0.0807 -0.8432  0.2885
  674TIP3    H126217   1.571   4.222  15.870 -1.0606 -1.2627  1.1928
  674TIP3    H226218   1.691   4.193  15.958  0.5435 -0.3497 -0.6241
  675TIP3   OH226219   2.620   7.513  13.835 -0.4132 -0.1506 -0.4745
  675TIP3    H126220   2.632   7.428  13.793 -1.2596 -0.4222 -0.1854
  675TIP3    H226221   2.527   7.534  13.820  0.1673  1.5615 -2.1284
  676TIP3   OH226222   2.510   6.379  15.886  0.3132  0.0148 -0.3253
  676TIP3    H126223   2.450   6.441  15.844  1.0624  2.2709  1.6877
  676TIP3    H226224   2.583   6.372  15.824 -0.4398 -0.0267 -1.2399
  677TIP3   OH226225   3.556   2.438  16.067 -0.2761  0.5294 -0.2699
  677TIP3    H126226   3.590   2.523  16.096  0.7311 -0.0268  0.2277
  677TIP3    H226227   3.629   2.377  16.081 -1.4775 -0.7225  0.8726
  678TIP3   OH226228   2.735   5.331  15.811  0.0635  0.1866 -0.4994
  678TIP3    H126229   2.714   5.266  15.744  1.4393  0.2779 -1.0533
  678TIP3    H226230   2.733   5.415  15.766  1.4650  0.2065 -0.5891
  679TIP3   OH226231   0.827   2.713  15.693  0.2140 -0.3428  0.3389
  679TIP3    H126232   0.822   2.625  15.731  1.5922  0.0472  1.5105
  679TIP3    H226233   0.876   2.702  15.612 -1.3885 -0.9417 -0.5880
  680TIP3   OH226234   8.040   4.821  15.172 -0.6368 -0.0611 -0.1512
  680TIP3    H126235   8.047   4.909  15.208 -1.6869  0.3242 -0.8259
  680TIP3    H226236   8.125   4.805  15.132  0.4501 -0.3657  2.1024
  681TIP3   OH226237   3.286   8.028  14.327  0.3668  0.3323 -0.1639
  681TIP3    H126238   3.369   8.046  14.370  0.8167 -0.0881 -0.8230
  681TIP3    H226239   3.301   7.944  14.283 -0.9603 -0.6109  1.1045
  682TIP3   OH226240   1.225   8.380  13.665 -0.9814 -0.0583 -0.3301
  682TIP3    H126241   1.286   8.450  13.642 -2.3178  1.2172 -0.1127
  682TIP3    H226242   1.142   8.424  13.679 -1.3786 -1.3911  2.0358
  683TIP3   OH226243   4.697   0.907  15.732  0.0449 -0.0500 -0.2695
  683TIP3    H126244   4.620   0.851  15.745 -0.5234  0.6080 -0.6584
  683TIP3    H226245   4.752   0.891  15.808 -0.7908 -0.0648  0.3538
  684TIP3   OH226246   7.569   0.791  14.670 -0.3537 -0.3563  0.3808
  684TIP3    H126247   7.475   0.802  14.680  0.0847  1.3752  4.2088
  684TIP3    H226248   7.602   0.779  14.759  3.2931  1.6551 -0.4771
  685TIP3   OH226249   3.209   8.204  16.049 -0.4310  0.1422  0.3048
  685TIP3    H126250   3.194   8.244  16.134 -0.1878 -1.6872  1.2759
  685TIP3    H226251   3.299   8.230  16.025  0.5242 -1.4396  1.9164
  686TIP3   OH226252   6.378   7.432  13.836  0.1614 -0.2850  0.3239
  686TIP3    H126253   6.292   7.431  13.793  0.4029  0.7008 -0.2157
  686TIP3    H226254   6.363   7.477  13.919  0.7316  2.8415 -1.1547
  687TIP3   OH226255   2.954   3.017  14.556  0.0508 -0.0885 -0.2299
  687TIP3    H126256   3.029   2.971  14.594 -0.1053  0.3287  0.5953
  687TIP3    H226257   2.886   3.012  14.623 -0.4893 -0.0151 -0.7659
  688TIP3   OH226258   3.471   8.334  13.706  0.1581  0.1720 -0.1046
  688TIP3    H126259   3.418   8.305  13.632  0.8970 -1.5778  0.0081
  688TIP3    H226260   3.476   8.429  13.696 -2.3620  0.3382 -0.5257
  689TIP3   OH226261   2.653   5.111  15.581  0.0670  0.0008 -0.2093
  689TIP3    H126262   2.716   5.132  15.512  0.4970  0.7358  0.3884
  689TIP3    H226263   2.596   5.188  15.585  0.3364  0.1729  0.5586
  690TIP3   OH226264   2.304   2.518  13.992  0.5914  0.3991 -0.0584
  690TIP3    H126265   2.333   2.597  14.037 -1.2158  1.1791 -0.1624
  690TIP3    H226266   2.281   2.457  14.062 -0.0354  0.7616  0.0560
  691TIP3   OH226267   4.771   4.325  15.425 -0.1394  0.3896 -0.3129
  691TIP3    H126268   4.751   4.252  15.367 -2.0384  1.0478 -0.5723
  691TIP3    H226269   4.843   4.371  15.382 -1.1891  0.5947 -1.9482
  692TIP3   OH226270   3.481   5.669  14.693  0.4994 -0.0346 -0.2927
  692TIP3    H126271   3.505   5.628  14.776 -1.4071  0.5983  0.6120
  692TIP3    H226272   3.501   5.602  14.627  0.4166 -1.2125  0.8446
  693TIP3   OH226273   6.510   4.500  15.544  0.3029 -0.0313 -0.0033
  693TIP3    H126274   6.444   4.523  15.479  0.1355  1.0833  0.5290
  693TIP3    H226275   6.483   4.414  15.576 -0.1355 -0.1784 -0.7375
  694TIP3   OH226276   2.947   4.135  14.339 -0.1594  0.0150 -0.2088
  694TIP3    H126277   2.858   4.141  14.303 -0.1543 -0.9186 -0.4005
  694TIP3    H226278   3.004   4.151  14.264 -0.1635 -0.2976 -0.2812
  695TIP3   OH226279   5.843   6.886  15.838 -0.1499 -0.4310  0.5331
  695TIP3    H126280   5.916   6.872  15.899  1.6900 -0.2365 -1.5103
  695TIP3    H226281   5.884   6.886  15.752 -2.3709  1.2895 -0.6092
  696TIP3   OH226282   1.812   4.289  16.054 -0.3001 -0.5709 -0.6268
  696TIP3    H126283   1.868   4.220  16.090 -1.2800 -1.6717 -1.1468
  696TIP3    H226284   1.870   4.340  15.998  0.2714 -1.4830 -0.8829
  697TIP3   OH226285   3.034   1.660  16.013 -0.0361 -0.7179  0.1176
  697TIP3    H126286   3.094   1.639  16.084  0.9772 -1.4946 -0.9489
  697TIP3    H226287   3.074   1.735  15.969 -0.5466 -0.3797  0.2188
  698TIP3   OH226288   7.718   2.487  16.129 -0.3153 -0.2899  0.3553
  698TIP3    H126289   7.714   2.397  16.096  0.5954 -0.7566  1.4623
  698TIP3    H226290   7.640   2.529  16.093 -0.4042 -1.3292 -0.7269
  699TIP3   OH226291   7.275   2.908  15.020  0.9522 -0.3856 -0.8538
  699TIP3    H126292   7.344   2.917  15.086  1.7688  0.9199 -1.8276
  699TIP3    H226293   7.316   2.858  14.949 -0.0072 -2.0315 -0.3121
  700TIP3   OH226294   1.484   7.650  15.891 -0.2902 -0.0325  0.2231
  700TIP3    H126295   1.414   7.682  15.948 -0.5284  0.2898 -0.2381
  700TIP3    H226296   1.534   7.729  15.869 -0.0258 -0.1995  0.2171
  701TIP3   OH226297   5.946   4.646  15.045  0.0938  0.0603  0.9971
  701TIP3    H126298   5.999   4.568  15.028  0.4952  0.5100  0.0627
  701TIP3    H226299   5.888   4.621  15.117  1.1404 -0.6600  1.6247
  702TIP3   OH226300   1.876   1.159  15.718  0.0009  0.6584 -0.0600
  702TIP3    H126301   1.849   1.079  15.762 -1.5934  0.5587 -1.1335
  702TIP3    H226302   1.943   1.197  15.775 -1.1342 -0.0458  1.8119
  703TIP3   OH226303   3.863   5.515  14.002 -0.2127  0.3110  0.6230
  703TIP3    H126304   3.824   5.474  14.080 -1.2693  0.6595  0.2910
  703TIP3    H226305   3.911   5.443  13.960 -1.0644 -0.3150  0.6809
  704TIP3   OH226306   7.132   6.089  14.768 -0.2509  0.6342 -0.1198
  704TIP3    H126307   7.198   6.156  14.787 -0.0546  0.5909 -0.6444
  704TIP3    H226308   7.069   6.097  14.840  0.6028  0.3058  0.6964
  705TIP3   OH226309   0.993   2.349  14.137  0.4295 -0.3189  0.7011
  705TIP3    H126310   0.999   2.253  14.134  0.0474 -0.3605 -2.3951
  705TIP3    H226311   0.899   2.367  14.138  0.5009  0.0276  1.2750
  706TIP3   OH226312   1.901   6.306  14.533 -0.1415 -0.2513  0.4133
  706TIP3    H126313   1.911   6.238  14.600 -0.7240 -1.1822 -0.4136
  706TIP3    H226314   1.846   6.266  14.466  0.1063  0.7933 -0.4494
  707TIP3   OH226315   4.062   4.911  14.904  0.1024  0.1581  0.3878
  707TIP3    H126316   4.136   4.866  14.944 -1.4744 -0.8615  2.3701
  707TIP3    H226317   4.047   4.987  14.961 -1.3372 -0.5457  0.9956
  708TIP3   OH226318   7.059   7.169  14.881 -0.1576 -0.6723  0.8364
  708TIP3    H126319   7.127   7.158  14.947 -0.4427 -0.9456  1.0892
  708TIP3    H226320   6.992   7.106  14.905 -0.2040 -0.8732  0.2006
  709TIP3   OH226321   1.925   1.591  15.530  0.1586  0.0462  0.0777
  709TIP3    H126322   1.844   1.543  15.547  0.0480  0.8098  1.9357
  709TIP3    H226323   1.921   1.666  15.589  1.9277  0.4614 -0.2704
  710TIP3   OH226324   6.710   7.547  15.505  0.1212 -0.0252 -0.2360
  710TIP3    H126325   6.771   7.473  15.508 -1.3602 -1.2886  0.8334
  710TIP3    H226326   6.747   7.610  15.568  0.6476 -0.4859 -0.0687
  711TIP3   OH226327   8.230   0.274  16.257 -0.2863  0.1461 -0.0511
  711TIP3    H126328   8.321   0.292  16.234 -0.1741  0.9846  0.9663
  711TIP3    H226329   8.233   0.193  16.308  0.1907  1.2741  1.7966
  712TIP3   OH226330   5.691   7.831  15.832  0.1098  0.2703 -0.3065
  712TIP3    H126331   5.763   7.875  15.878 -0.5268  0.8475  0.1749
  712TIP3    H226332   5.723   7.743  15.815  1.3795  0.8601 -1.1662
  713TIP3   OH226333   5.816   1.907  14.554 -0.2763  0.4539  0.1152
  713TIP3    H126334   5.809   1.880  14.462  2.2379 -0.6718  0.2031
  713TIP3    H226335   5.826   1.826  14.603  0.6232  1.1609  1.1450
  714TIP3   OH226336   5.926   5.463  14.997 -0.1281  0.3913 -0.0959
  714TIP3    H126337   5.949   5.431  15.084  1.8579 -1.0689 -1.0821
  714TIP3    H226338   5.842   5.422  14.977 -0.0195 -0.2144  0.6588
  715TIP3   OH226339   2.052   1.531  15.901 -0.4869  0.6962  0.2599
  715TIP3    H126340   2.131   1.533  15.846 -0.8078 -3.0159 -0.5708
  715TIP3    H226341   1.981   1.507  15.841 -0.9715 -2.8040  1.9896
  716TIP3   OH226342   8.038   8.263  15.521 -0.4035 -0.3940 -0.6239
  716TIP3    H126343   8.075   8.196  15.463  0.0637 -0.6164 -0.0870
  716TIP3    H226344   7.944   8.247  15.520 -0.4405 -0.1386 -1.6268
  717TIP3   OH226345   3.508   1.537  15.272  0.0719 -0.1555  0.2177
  717TIP3    H126346   3.576   1.594  15.308  0.8646 -0.3910 -0.8442
  717TIP3    H226347   3.470   1.494  15.348  2.5692 -1.6181  0.7546
  718TIP3   OH226348   0.292   3.007  15.870 -0.4944  0.1727 -0.3426
  718TIP3    H126349   0.306   3.099  15.889  0.6252 -0.4627  2.4446
  718TIP3    H226350   0.196   2.998  15.866 -0.6365  1.3076  0.0929
  719TIP3   OH226351   4.131   4.227  14.842  0.6329  0.1978  0.9597
  719TIP3    H126352   4.179   4.268  14.914  0.7626  0.5597  0.6665
  719TIP3    H226353   4.039   4.249  14.859  0.7426  0.9890  0.5635
  720TIP3   OH226354   4.959   8.047  14.600  0.2260  0.4502  0.3233
  720TIP3    H126355   4.884   8.025  14.655 -0.6352  1.6076 -0.3286
  720TIP3    H226356   4.926   8.037  14.510  1.3390 -0.5525  0.0045
  721TIP3   OH226357   3.414   2.796  15.233  0.2521 -0.0848 -0.1167
  721TIP3    H126358   3.359   2.873  15.217 -0.0699 -0.7827 -2.8189
  721TIP3    H226359   3.464   2.818  15.311 -0.3136  2.5841 -0.4278
  722TIP3   OH226360   6.269   0.917  14.658  0.0595 -0.0381  0.3894
  722TIP3    H126361   6.180   0.950  14.655  0.6213  1.4219 -0.8581
  722TIP3    H226362   6.311   0.967  14.728  0.8189  1.8028 -1.2893
  723TIP3   OH226363   1.365   2.893  14.365  0.1932 -0.6865  0.0837
  723TIP3    H126364   1.446   2.917  14.411 -1.4964  1.0433  2.4165
  723TIP3    H226365   1.313   2.847  14.431 -2.8059  2.8645  0.5030
  724TIP3   OH226366   5.856   5.383  15.962  0.2483  0.4499 -0.2759
  724TIP3    H126367   5.822   5.306  16.008  1.8211 -0.1684 -0.0932
  724TIP3    H226368   5.827   5.371  15.872  0.4879 -0.3876 -0.2582
  725TIP3   OH226369   6.913   2.088  15.054 -0.6523 -0.2496 -0.1897
  725TIP3    H126370   6.916   2.156  14.987 -0.4561 -0.8810 -0.8272
  725TIP3    H226371   6.965   2.123  15.126  2.4292 -1.1364 -1.8350
  726TIP3   OH226372   2.792   7.028  13.737 -0.5522 -0.1361  0.2727
  726TIP3    H126373   2.878   7.003  13.769  0.1881  1.2863 -0.5576
  726TIP3    H226374   2.737   6.951  13.755  0.6159 -0.6686  1.7570
  727TIP3   OH226375   4.024   6.210  15.515 -0.0719 -0.1597  0.2113
  727TIP3    H126376   3.954   6.190  15.453  0.2372 -1.2560  0.1887
  727TIP3    H226377   4.000   6.295  15.552 -1.5823 -0.6631  0.4403
  728TIP3   OH226378   2.140   6.235  15.936  0.0518 -0.4973  0.0763
  728TIP3    H126379   2.112   6.315  15.890  1.6671  0.4214  0.6266
  728TIP3    H226380   2.225   6.257  15.974 -0.5492 -1.7041  2.2901
  729TIP3   OH226381   5.787   1.575  15.683  0.3294  0.4326 -0.2669
  729TIP3    H126382   5.849   1.507  15.658 -1.1845 -1.6554  1.2830
  729TIP3    H226383   5.736   1.591  15.604 -1.3709 -2.6859  0.0316
  730TIP3   OH226384   4.555   4.597  15.635  0.3901 -0.7268 -0.3628
  730TIP3    H126385   4.561   4.680  15.589  0.8556 -0.7150 -0.2786
  730TIP3    H226386   4.644   4.561  15.633  0.0797 -1.5188 -0.9542
  731TIP3   OH226387   7.991   7.500  14.378 -0.0316 -0.1997  0.7022
  731TIP3    H126388   7.923   7.562  14.405  0.5405  0.7522  0.0271
  731TIP3    H226389   7.976   7.487  14.284  0.6663 -0.0238  0.5553
  732TIP3   OH226390   4.957   6.245  15.078 -0.2155 -0.1256 -0.2348
  732TIP3    H126391   4.910   6.279  15.002  0.7242  1.0535 -0.3149
  732TIP3    H226392   4.922   6.294  15.152 -0.7826 -0.9288  0.0434
  733TIP3   OH226393   8.330   5.846  14.760 -1.1364 -0.6620  0.3046
  733TIP3    H126394   8.327   5.930  14.715  0.6162  0.0057  1.3278
  733TIP3    H226395   8.402   5.798  14.717 -0.2410 -0.4812  1.5418
  734TIP3   OH226396   0.405   7.714  15.318 -0.1965  0.0755 -0.1650
  734TIP3    H126397   0.385   7.715  15.225  0.5242 -0.1823 -0.3231
  734TIP3    H226398   0.423   7.622  15.338 -0.6714  0.0760  0.3039
  735TIP3   OH226399   7.968   8.286  15.149 -0.7096 -0.0465 -0.6866
  735TIP3    H126400   8.000   8.263  15.062  1.6471  0.9433 -0.1457
  735TIP3    H226401   8.014   8.226  15.208 -0.4575  0.8651  0.0650
  736TIP3   OH226402   2.958   2.973  13.907  0.1150 -0.2901  0.0987
  736TIP3    H126403   3.052   2.957  13.904  0.0596 -0.9486  1.1786
  736TIP3    H226404   2.946   3.055  13.859  1.2236 -0.2514 -0.1354
  737TIP3   OH226405   1.581   6.127  15.907 -0.3764 -0.2731  0.3610
  737TIP3    H126406   1.571   6.204  15.851  0.3991  0.4787  1.2052
  737TIP3    H226407   1.491   6.099  15.926 -0.7091  1.0441  0.8442
  738TIP3   OH226408   0.610   7.993  14.876 -0.3806  0.4600 -0.4495
  738TIP3    H126409   0.653   8.078  14.878 -0.8545  0.6891  0.0884
  738TIP3    H226410   0.675   7.935  14.836  0.3322  0.8530  0.1173
  739TIP3   OH226411   1.914   1.960  16.147 -0.2084 -0.2065  0.1451
  739TIP3    H126412   1.878   1.913  16.072 -0.2365 -0.8904  0.5851
  739TIP3    H226413   1.972   1.897  16.190  1.0601  0.6882 -0.2096
  740TIP3   OH226414   1.002   8.137  13.690 -1.0096  0.6785  0.0786
  740TIP3    H126415   0.925   8.121  13.743 -0.9490  0.7346  0.1842
  740TIP3    H226416   0.997   8.230  13.668  0.2944  1.3108  2.1315
  741TIP3   OH226417   5.247   5.258  15.812 -0.1841 -0.1298 -0.0373
  741TIP3    H126418   5.174   5.313  15.783 -1.3746 -1.2024  0.8069
  741TIP3    H226419   5.260   5.196  15.740  1.5831  1.5720 -1.2717
  742TIP3   OH226420   4.768   4.128  14.721 -0.0994  0.0846  0.2931
  742TIP3    H126421   4.704   4.199  14.723  0.0567  0.2407  2.3267
  742TIP3    H226422   4.735   4.065  14.785  1.5044 -0.0479  1.0391
  743TIP3   OH226423   6.376   2.971  16.141  0.1558 -0.0599 -0.4085
  743TIP3    H126424   6.302   2.989  16.083 -0.1073  1.3370  0.3289
  743TIP3    H226425   6.337   2.949  16.225  0.5668  1.1100  0.1036
  744TIP3   OH226426   6.924   0.477  15.813  0.3501 -0.5232  0.2947
  744TIP3    H126427   6.961   0.416  15.876  1.3249 -0.0976  0.1555
  744TIP3    H226428   6.904   0.555  15.864  1.0756 -0.2035  0.1110
  745TIP3   OH226429   2.882   5.977  15.088 -0.0022  0.0195 -0.4980
  745TIP3    H126430   2.811   5.926  15.051 -0.0771  0.7597 -1.4059
  745TIP3    H226431   2.926   6.016  15.012  0.9158  0.1674  0.0921
  746TIP3   OH226432   3.443   1.257  16.262 -0.0426 -0.1228 -0.0034
  746TIP3    H126433   3.467   1.173  16.224  0.6294  0.8099 -1.7448
  746TIP3    H226434   3.356   1.243  16.300 -0.6829 -1.1630 -1.7519
  747TIP3   OH226435   0.758   0.606  15.899 -0.3282  0.4653 -0.3729
  747TIP3    H126436   0.688   0.605  15.966 -0.7142 -0.5593 -0.7808
  747TIP3    H226437   0.836   0.636  15.947 -0.5842 -0.3088  0.5591
  748TIP3   OH226438   8.308   2.051  14.585  0.1970 -0.4514 -0.2590
  748TIP3    H126439   8.222   2.013  14.569 -1.3184  1.6981  2.0107
  748TIP3    H226440   8.350   1.989  14.646 -0.2067 -0.9402 -0.4709
  749TIP3   OH226441   8.284   6.654  16.012  0.4796 -0.1933 -0.0980
  749TIP3    H126442   8.253   6.597  15.942 -0.0117  2.3881 -2.1306
  749TIP3    H226443   8.368   6.616  16.038  1.4056 -0.4775 -3.1456
  750TIP3   OH226444   5.636   3.277  14.525 -0.0053  0.0034  0.7400
  750TIP3    H126445   5.598   3.240  14.446  0.0298  1.3480  0.0552
  750TIP3    H226446   5.566   3.272  14.590  0.4517 -2.5468  1.1452
  751TIP3   OH226447   3.470   4.206  15.892 -0.0924  0.5030  0.0458
  751TIP3    H126448   3.534   4.168  15.952 -0.6426  0.5827  0.6948
  751TIP3    H226449   3.521   4.265  15.836  0.3011  1.0713  0.9771
  752TIP3   OH226450   6.098   5.151  15.610  0.1375 -0.1641  0.2627
  752TIP3    H126451   6.089   5.245  15.597 -1.0171 -0.3539 -0.5041
  752TIP3    H226452   6.086   5.113  15.523 -0.7081 -1.0899  0.7608
  753TIP3   OH226453   4.908   0.175  15.233  0.4561  0.1295  0.0619
  753TIP3    H126454   4.985   0.231  15.233 -0.0203  0.8188  1.3376
  753TIP3    H226455   4.940   0.090  15.203  1.1119  1.1314 -2.3257
  754TIP3   OH226456   6.863   0.573  15.230  0.1874  0.1470  0.5382
  754TIP3    H126457   6.833   0.567  15.321 -0.4828 -0.0828  0.3075
  754TIP3    H226458   6.806   0.513  15.182 -0.3691  1.2824 -0.2640
  755TIP3   OH226459   6.771   5.184  15.625 -0.0924 -0.4008 -0.3863
  755TIP3    H126460   6.747   5.276  15.639 -2.6286 -0.7049 -2.1180
  755TIP3    H226461   6.770   5.146  15.713 -1.9784  0.6218  0.0958
  756TIP3   OH226462   2.938   7.146  14.110 -0.0861  0.0134 -0.6258
  756TIP3    H126463   2.853   7.161  14.068  0.0191  1.3552 -0.4194
  756TIP3    H226464   2.932   7.059  14.148 -1.7758  0.5123  0.3284
  757TIP3   OH226465   5.011   5.753  14.417 -0.0440 -0.0373  0.2586
  757TIP3    H126466   4.927   5.724  14.382 -0.7628  2.7304 -0.5936
  757TIP3    H226467   5.069   5.754  14.341 -0.0493  0.6538  0.2511
  758TIP3   OH226468   3.681   3.026  16.054  0.0185  0.1532  0.2395
  758TIP3    H126469   3.646   3.111  16.081 -1.2376 -0.2996  0.1021
  758TIP3    H226470   3.605   2.967  16.055  0.8977 -1.0154  0.5116
  759TIP3   OH226471   6.423   1.834  14.296  0.2762 -0.5781  0.2792
  759TIP3    H126472   6.401   1.809  14.206 -1.1046 -0.2902  0.5060
  759TIP3    H226473   6.351   1.798  14.348 -0.9759  2.4320  0.8030
  760TIP3   OH226474   8.126   2.696  15.137 -0.5802 -0.5880  0.0994
  760TIP3    H126475   8.141   2.786  15.165  1.3840 -1.0970  0.8394
  760TIP3    H226476   8.143   2.698  15.043 -0.5341 -0.1958  0.1121
  761TIP3   OH226477   0.375   4.843  14.554  0.0603 -0.1377  0.2261
  761TIP3    H126478   0.374   4.927  14.508  2.0008 -0.4125 -0.3867
  761TIP3    H226479   0.348   4.779  14.489  0.1317 -0.1779  0.2357
  762TIP3   OH226480   6.426   4.541  16.239  0.5107  0.1589 -0.7008
  762TIP3    H126481   6.480   4.462  16.241 -0.2111 -0.3415  0.3959
  762TIP3    H226482   6.474   4.604  16.292  0.6047  0.1158 -0.7352
  763TIP3   OH226483   0.790   4.152  13.857  0.3389  0.3401  0.1918
  763TIP3    H126484   0.759   4.117  13.941 -0.1215  0.8265  0.2213
  763TIP3    H226485   0.711   4.174  13.809  0.6206  1.5905  0.2716
  764TIP3   OH226486   0.678   1.099  15.990  0.3752 -0.3424 -0.3940
  764TIP3    H126487   0.619   1.057  16.053  0.0907 -2.1830 -1.8014
  764TIP3    H226488   0.762   1.055  16.002  0.6340  0.1089 -0.5122
  765TIP3   OH226489   2.783   1.975  15.711  0.5760 -0.1469  0.5211
  765TIP3    H126490   2.791   1.900  15.652  0.6313 -0.7954  1.3392
  765TIP3    H226491   2.862   1.972  15.765 -0.0028 -0.2378  1.3927
  766TIP3   OH226492   7.474   4.051  14.357  0.1507  0.2026 -0.4874
  766TIP3    H126493   7.554   4.085  14.318  0.9122  1.4422  1.9806
  766TIP3    H226494   7.444   4.121  14.416 -0.8487 -1.5586  1.2073
  767TIP3   OH226495   3.415   6.549  14.559  0.3873  0.5952  0.2002
  767TIP3    H126496   3.357   6.585  14.626 -1.4742 -0.1020 -0.9827
  767TIP3    H226497   3.499   6.538  14.604 -0.4174  1.4621  2.0122
  768TIP3   OH226498   5.283   2.355  15.691  0.0848 -0.6138 -0.7885
  768TIP3    H126499   5.326   2.274  15.665  0.3401 -1.0311  0.8524
  768TIP3    H226500   5.348   2.402  15.742 -0.6122 -0.1563 -0.2972
  769TIP3   OH226501   8.225   2.959  15.212  0.4243 -0.6032  0.0993
  769TIP3    H126502   8.245   3.010  15.134 -0.0557 -1.6704 -0.7456
  769TIP3    H226503   8.271   3.004  15.283  0.3828  0.7154 -0.6928
  770TIP3   OH226504   8.014   0.972  14.481  0.1585 -0.5364  0.1449
  770TIP3    H126505   7.935   0.960  14.532  0.0028  1.4975  0.4610
  770TIP3    H226506   7.984   1.005  14.396  0.6683  1.4883  0.6937
  771TIP3   OH226507   7.502   1.743  14.760 -0.2108  0.1305 -0.0778
  771TIP3    H126508   7.487   1.669  14.819 -0.3586  0.0412 -0.2263
  771TIP3    H226509   7.584   1.782  14.791 -0.9367  0.8746  1.0024
  772TIP3   OH226510   3.759   0.027  14.971  0.2102 -0.1666  0.2449
  772TIP3    H126511   3.758   0.030  14.875  0.9513  2.2044  0.2465
  772TIP3    H226512   3.852   0.030  14.993  0.0132  0.9281  1.0216
  773TIP3   OH226513   0.796   3.952  14.524 -0.1049 -0.3942 -0.3065
  773TIP3    H126514   0.868   3.990  14.474  1.5656 -2.9897 -0.0546
  773TIP3    H226515   0.723   3.947  14.462 -0.7447  3.6650 -0.1676
  774TIP3   OH226516   5.885   2.807  15.319  0.1669 -0.1935 -0.2813
  774TIP3    H126517   5.966   2.773  15.281  0.3834 -0.2169  0.1930
  774TIP3    H226518   5.870   2.890  15.275  0.5354 -0.1137 -0.2565
  775TIP3   OH226519   0.354   7.020  15.540 -0.3614  0.4492  0.3100
  775TIP3    H126520   0.302   6.959  15.592 -0.3771  0.8250  0.7431
  775TIP3    H226521   0.435   6.972  15.521  0.3462  0.8435  2.0565
  776TIP3   OH226522   2.664   0.874  15.953 -0.3264  0.2510 -0.0464
  776TIP3    H126523   2.597   0.897  15.889 -1.8039  1.6885  1.8860
  776TIP3    H226524   2.658   0.779  15.962  0.7111 -0.1529 -2.7773
  777TIP3   OH226525   4.959   5.838  15.669  0.6400  0.4067  0.0631
  777TIP3    H126526   5.043   5.803  15.638 -0.2260 -0.8439 -0.9999
  777TIP3    H226527   4.914   5.763  15.707 -1.6461 -0.0249 -3.0634
  778TIP3   OH226528   2.994   2.098  15.061  0.1778  0.3373  0.0469
  778TIP3    H126529   2.962   2.152  15.133  0.2961  0.6440 -0.1248
  778TIP3    H226530   2.938   2.021  15.061  0.6400 -0.0128  0.9277
  779TIP3   OH226531   6.717   0.982  16.313  0.2389  0.1199  0.0487
  779TIP3    H126532   6.704   1.061  16.260 -0.1655  0.2736  0.3707
  779TIP3    H226533   6.687   1.007  16.400  0.5286 -0.2549  0.2571
  780TIP3   OH226534   6.615   7.079  14.510  0.3164 -0.1846 -0.2815
  780TIP3    H126535   6.627   6.990  14.542 -1.5453 -0.7903 -1.1252
  780TIP3    H226536   6.570   7.069  14.426  0.0310  1.5496 -0.3797
  781TIP3   OH226537   3.989   8.112  15.138  0.3872  0.0954 -0.5634
  781TIP3    H126538   4.071   8.087  15.096  0.6603 -0.0651  0.0447
  781TIP3    H226539   4.012   8.123  15.230 -0.4526 -0.8458 -0.2211
  782TIP3   OH226540   1.146   5.067  14.401  0.1652  0.0536 -0.1402
  782TIP3    H126541   1.163   5.098  14.490 -1.6222  0.4079  0.1194
  782TIP3    H226542   1.080   4.998  14.412  0.1370 -0.0946 -1.1689
  783TIP3   OH226543   5.611   4.785  15.853 -0.5151 -0.1349 -0.4067
  783TIP3    H126544   5.646   4.858  15.801 -0.3921  0.4885  0.5352
  783TIP3    H226545   5.662   4.710  15.824  1.1250  0.6152  0.3721
  784TIP3   OH226546   2.113   1.514  14.449 -0.0836 -0.4332  0.1921
  784TIP3    H126547   2.147   1.570  14.380 -1.7966  2.2751  1.3605
  784TIP3    H226548   2.018   1.520  14.441 -0.3246 -1.1730  1.9239
  785TIP3   OH226549   2.695   7.991  15.236  0.1897  0.0529 -0.2962
  785TIP3    H126550   2.772   7.976  15.291  0.2736  2.7923  0.5259
  785TIP3    H226551   2.631   8.030  15.296 -0.7604  0.4814 -1.5460
  786TIP3   OH226552   7.410   4.326  14.206  0.1499  0.4708 -0.1776
  786TIP3    H126553   7.343   4.392  14.220  0.2740  1.1865 -2.4710
  786TIP3    H226554   7.487   4.357  14.253 -0.5335  0.6291  0.8572
  787TIP3   OH226555   5.327   2.578  14.986  0.5981  0.3439 -0.2093
  787TIP3    H126556   5.362   2.629  15.059  0.4532 -1.2843  1.0580
  787TIP3    H226557   5.232   2.582  14.997  0.5789  0.0399 -0.2457
  788TIP3   OH226558   7.539   6.389  14.844  0.3280  0.5178  0.0619
  788TIP3    H126559   7.576   6.446  14.776 -2.3483  2.2848 -0.0464
  788TIP3    H226560   7.593   6.310  14.840  0.6034  0.6843 -3.8389
  789TIP3   OH226561   2.379   5.062  15.426 -0.4495 -0.1662  0.3034
  789TIP3    H126562   2.428   4.980  15.433  0.0442  0.1827  1.1133
  789TIP3    H226563   2.441   5.124  15.388 -0.2828  0.2368  1.1963
  790TIP3   OH226564   2.010   5.376  14.379  0.5286  0.2383  0.0897
  790TIP3    H126565   2.092   5.410  14.345  0.2125 -0.8298 -1.9181
  790TIP3    H226566   2.024   5.281  14.382 -0.3317  0.1208  0.5747
  791TIP3   OH226567   0.658   4.200  15.516 -0.3709 -0.2587  0.3715
  791TIP3    H126568   0.675   4.206  15.610  0.3459 -1.9474  0.3800
  791TIP3    H226569   0.744   4.199  15.476 -0.6746  0.4259 -0.3352
  792TIP3   OH226570   2.090   0.395  15.015 -0.0713 -0.6505  0.4685
  792TIP3    H126571   2.066   0.403  15.107 -0.1274 -0.8600  0.4721
  792TIP3    H226572   2.034   0.325  14.982 -0.2734 -0.3716  0.2016
  793TIP3   OH226573   8.375   1.296  15.960 -0.2123  0.4235 -0.0603
  793TIP3    H126574   8.452   1.251  15.925  0.9928  2.1559  0.2258
  793TIP3    H226575   8.390   1.301  16.054  0.7386  3.1129 -0.2575
  794TIP3   OH226576   0.813   8.389  15.745  0.3560  0.0406  0.2581
  794TIP3    H126577   0.820   8.294  15.746  0.6891  0.0599  0.0735
  794TIP3    H226578   0.743   8.409  15.807  1.7589 -0.2084  2.0237
  795TIP3   OH226579   7.624   2.952  14.640  0.7338  0.1690  0.5661
  795TIP3    H126580   7.695   3.014  14.660 -1.1427  2.1404  1.5935
  795TIP3    H226581   7.639   2.927  14.549  0.9739  3.1233 -0.3262
  796TIP3   OH226582   1.756   7.699  14.815 -0.0473  0.1445 -0.3886
  796TIP3    H126583   1.834   7.752  14.798  0.2200  0.1151  0.6793
  796TIP3    H226584   1.789   7.611  14.828 -0.1867  0.2295  0.6143
  797TIP3   OH226585   2.868   4.720  13.637 -0.5066  0.6262 -0.4923
  797TIP3    H126586   2.876   4.779  13.562 -1.1363 -1.1259 -1.9854
  797TIP3    H226587   2.775   4.698  13.641 -0.2331 -0.5496 -0.1897
  798TIP3   OH226588   4.593   5.510  15.970 -0.4564  0.4575  0.0355
  798TIP3    H126589   4.588   5.528  16.064 -0.9009 -0.7017  0.2477
  798TIP3    H226590   4.532   5.573  15.931 -1.3061  0.0438  0.6616
  799TIP3   OH226591   5.539   2.482  15.158 -0.3170 -0.4058  0.0513
  799TIP3    H126592   5.515   2.494  15.250 -1.0989  0.3332 -0.2345
  799TIP3    H226593   5.463   2.441  15.118 -0.9458  1.4102 -0.7418
  800TIP3   OH226594   6.531   2.210  14.289  0.3466  0.1285 -0.3301
  800TIP3    H126595   6.471   2.151  14.243  1.4811 -0.6202 -0.8836
  800TIP3    H226596   6.483   2.293  14.296 -0.2348 -0.0406 -1.9570
  801TIP3   OH226597   6.942   6.435  13.930  0.1852  0.0136  0.0465
  801TIP3    H126598   6.977   6.484  13.855  0.7149  1.5843  1.2486
  801TIP3    H226599   6.848   6.428  13.913 -0.0880  2.3046  0.1925
  802TIP3   OH226600   4.043   1.047  15.620 -0.0278  0.7101 -0.1154
  802TIP3    H126601   4.129   1.009  15.599 -0.0194  1.2889 -1.1980
  802TIP3    H226602   3.990   1.029  15.542 -0.6166  1.1346  0.1876
  803TIP3   OH226603   8.178   2.424  15.150  0.3781 -0.1830 -0.1252
  803TIP3    H126604   8.174   2.519  15.149 -0.0766 -0.1934  0.2324
  803TIP3    H226605   8.115   2.398  15.218 -0.7064 -0.8026 -1.3298
  804TIP3   OH226606   6.781   0.130  15.367  1.0851 -0.6126  0.3826
  804TIP3    H126607   6.808   0.092  15.450  1.4909 -1.2214 -0.0193
  804TIP3    H226608   6.695   0.090  15.349  1.2686 -0.9437  0.2239
  805TIP3   OH226609   4.104   4.541  14.459  0.6799 -0.4888  0.2846
  805TIP3    H126610   4.076   4.589  14.381 -2.2722 -1.3494  0.6974
  805TIP3    H226611   4.192   4.510  14.437  1.9723  3.3605 -0.7170
  806TIP3   OH226612   2.609   1.517  14.755 -0.0670  0.2406  0.1811
  806TIP3    H126613   2.559   1.448  14.713  1.2953 -0.9363  0.4008
  806TIP3    H226614   2.641   1.571  14.682 -1.8009  1.1600  0.0580
  807TIP3   OH226615   7.154   6.565  14.072  0.8819 -0.3255  0.1292
  807TIP3    H126616   7.103   6.623  14.129 -0.1893  1.2444 -2.2757
  807TIP3    H226617   7.090   6.526  14.013  2.1407 -0.4797 -1.1848
  808TIP3   OH226618   7.877   4.530  15.902  0.2251 -0.2021 -0.0160
  808TIP3    H126619   7.876   4.614  15.948  0.2499  0.1111 -0.5832
  808TIP3    H226620   7.787   4.497  15.911 -0.3743  0.8750 -1.5708
  809TIP3   OH226621   5.212   0.846  14.721  0.3652  0.1785 -0.4124
  809TIP3    H126622   5.228   0.917  14.659 -1.1676  0.9961  0.0703
  809TIP3    H226623   5.295   0.798  14.725  1.4348  1.9169 -0.7628
  810TIP3   OH226624   1.057   6.175  15.556 -0.1903 -0.4711  0.0777
  810TIP3    H126625   1.128   6.238  15.544 -0.5837  0.2762  1.4283
  810TIP3    H226626   1.101   6.095  15.585  0.2856 -0.7676 -1.3906
  811TIP3   OH226627   0.913   4.793  15.203 -0.3525 -0.2306 -0.4005
  811TIP3    H126628   0.965   4.796  15.284 -1.2173  1.0403  0.1488
  811TIP3    H226629   0.832   4.837  15.226 -1.3076 -1.3514 -1.5142
  812TIP3   OH226630   1.462   3.802  15.023  0.6640 -0.3161  0.4341
  812TIP3    H126631   1.530   3.764  14.967 -0.2522 -1.1926 -0.1100
  812TIP3    H226632   1.410   3.727  15.053 -0.2406  0.3612  0.6004
  813TIP3   OH226633   0.850   7.985  14.224  0.3004  0.1018 -0.0979
  813TIP3    H126634   0.873   8.077  14.215 -1.3636  0.5681  0.1088
  813TIP3    H226635   0.805   7.979  14.308 -0.0818 -0.7976 -0.3444
  814TIP3   OH226636   1.936   2.235  16.224  0.1143 -0.2300 -0.2100
  814TIP3    H126637   1.963   2.166  16.285 -2.0091 -0.8158  0.1640
  814TIP3    H226638   1.890   2.188  16.154 -0.5324  0.7029 -0.4366
  815TIP3   OH226639   6.611   6.032  14.597 -0.3536  0.6612 -0.2274
  815TIP3    H126640   6.701   6.003  14.585 -1.0625 -0.6489 -2.8363
  815TIP3    H226641   6.603   6.110  14.542 -0.9075  0.5672 -0.2888
  816TIP3   OH226642   6.466   4.197  15.527 -0.2205 -0.2043  0.2679
  816TIP3    H126643   6.445   4.219  15.437 -0.1798  1.3389  0.6039
  816TIP3    H226644   6.558   4.174  15.526 -0.4747 -1.2129 -0.2473
  817TIP3   OH226645   7.223   3.758  15.465 -0.6040  0.2209  0.1712
  817TIP3    H126646   7.303   3.728  15.507 -1.1377 -1.5639  0.0076
  817TIP3    H226647   7.163   3.684  15.473 -1.4453  0.6212 -1.8253
  818TIP3   OH226648   6.749   6.266  14.161  0.0612 -0.2092  0.1021
  818TIP3    H126649   6.834   6.221  14.156 -0.1319 -0.6704  0.8810
  818TIP3    H226650   6.726   6.282  14.070  1.4870  0.8789 -0.1006
  819TIP3   OH226651   3.587   7.406  14.676 -0.5735  0.0874  0.1904
  819TIP3    H126652   3.609   7.320  14.638 -0.8143  0.3727 -0.6247
  819TIP3    H226653   3.662   7.428  14.731 -0.4482 -0.5832  0.2992
  820TIP3   OH226654   1.657   3.563  13.745  0.2943 -0.1905 -0.6955
  820TIP3    H126655   1.591   3.611  13.695 -0.3872 -0.8311 -0.4349
  820TIP3    H226656   1.611   3.485  13.776  0.9549 -0.2435  0.1778
  821TIP3   OH226657   4.965   2.450  15.955 -0.2060  0.3240 -0.0856
  821TIP3    H126658   4.985   2.406  15.872  0.1004  0.7150 -0.2253
  821TIP3    H226659   4.876   2.422  15.976 -0.3504  0.3478 -0.6301
  822TIP3   OH226660   4.028   3.518  14.526  0.0843  0.1775  0.1729
  822TIP3    H126661   4.058   3.601  14.563 -1.5996  1.1818 -0.5849
  822TIP3    H226662   3.981   3.543  14.446  0.7165 -1.6391 -0.8181
  823TIP3   OH226663   1.771   7.438  14.198  0.6906 -0.7578 -0.0612
  823TIP3    H126664   1.786   7.382  14.274  0.7750 -1.2461 -0.4381
  823TIP3    H226665   1.796   7.385  14.123 -0.0303 -0.5111 -0.4866
  824TIP3   OH226666   0.141   2.715  15.994 -0.2215 -0.1269 -0.2425
  824TIP3    H126667   0.194   2.689  16.069  0.6900  1.5785 -0.2424
  824TIP3    H226668   0.192   2.687  15.917 -0.9286 -1.4418 -0.2641
  825TIP3   OH226669   0.622   6.510  14.771 -0.4079 -0.6051  0.1611
  825TIP3    H126670   0.642   6.539  14.860 -2.1536 -1.3488  0.8407
  825TIP3    H226671   0.546   6.561  14.745 -1.5467 -2.2147  0.1584
  826TIP3   OH226672   8.135   6.730  14.979  0.0110  0.2826  0.6296
  826TIP3    H126673   8.191   6.746  14.904  0.8064  0.0014  1.1515
  826TIP3    H226674   8.191   6.748  15.055 -1.2288  2.2017  1.1780
  827TIP3   OH226675   6.317   5.350  14.549  0.1137 -0.2124  0.6199
  827TIP3    H126676   6.351   5.383  14.467  1.9656  0.2171  1.5139
  827TIP3    H226677   6.229   5.387  14.555 -0.7362 -1.6207 -1.9136
  828TIP3   OH226678   4.612   3.944  14.852 -0.2705 -0.1859  0.3412
  828TIP3    H126679   4.564   3.876  14.805 -1.7340  0.7885  0.3374
  828TIP3    H226680   4.552   3.971  14.922  0.8820  0.0841  1.2496
  829TIP3   OH226681   8.212   3.796  13.998  1.0081 -0.0604  0.4307
  829TIP3    H126682   8.230   3.750  13.916  1.0299  1.8725 -0.7039
  829TIP3    H226683   8.296   3.835  14.022  0.5766  1.0280  0.2663
  830TIP3   OH226684   5.234   3.254  15.410  0.3526 -0.2885  0.2856
  830TIP3    H126685   5.217   3.216  15.496 -0.9534 -0.9921 -0.2430
  830TIP3    H226686   5.261   3.344  15.428  0.1048 -0.4261  1.4271
  831TIP3   OH226687   0.262   0.316  14.384  0.0827  0.1779 -0.0864
  831TIP3    H126688   0.295   0.394  14.338  1.6205 -0.4829 -0.1688
  831TIP3    H226689   0.323   0.304  14.456 -0.7425 -0.3706  0.5321
  832TIP3   OH226690   6.720   3.606  14.533 -0.2113 -0.1695 -0.9057
  832TIP3    H126691   6.803   3.628  14.490 -0.2740  1.5852 -0.1977
  832TIP3    H226692   6.701   3.517  14.504  1.1125 -0.0243 -2.3459
  833TIP3   OH226693   2.413   7.449  14.130  0.0418 -0.1113  0.6722
  833TIP3    H126694   2.328   7.442  14.086 -0.2641  1.5008  0.9740
  833TIP3    H226695   2.433   7.359  14.156 -0.3810 -0.9361 -1.5935
  834TIP3   OH226696   6.769   4.935  13.775 -0.0927  0.1943 -0.0323
  834TIP3    H126697   6.749   4.946  13.682  0.1049  1.0856  0.0158
  834TIP3    H226698   6.848   4.987  13.789  0.3600 -0.6109  0.4648
  835TIP3   OH226699   7.737   4.462  16.315 -0.6506 -0.2746 -0.7593
  835TIP3    H126700   7.715   4.375  16.282  0.5256 -0.6736 -0.5560
  835TIP3    H226701   7.705   4.462  16.405  0.5976 -1.0337 -0.2978
  836TIP3   OH226702   2.624   7.587  15.835  0.5467  0.3828 -0.6074
  836TIP3    H126703   2.706   7.549  15.803  0.0501 -0.6318 -0.7127
  836TIP3    H226704   2.557   7.553  15.776 -0.0202  0.8287 -0.2319
  837TIP3   OH226705   8.102   2.615  15.431  0.7078 -0.2334 -0.1400
  837TIP3    H126706   8.064   2.694  15.470  1.1457 -0.5596  1.0120
  837TIP3    H226707   8.146   2.645  15.352 -1.2020  0.2830 -1.0609
  838TIP3   OH226708   4.829   3.377  15.372 -0.2941 -0.2733 -0.2800
  838TIP3    H126709   4.856   3.310  15.308 -0.2194 -0.6492  0.1396
  838TIP3    H226710   4.839   3.460  15.325  2.7286 -0.2472  0.1641
  839TIP3   OH226711   4.424   3.431  15.758  0.0271 -0.9484  0.3101
  839TIP3    H126712   4.517   3.433  15.779  1.2062 -1.0875 -3.9535
  839TIP3    H226713   4.405   3.339  15.739  0.1621 -0.4995 -2.4941
  840TIP3   OH226714   2.823   4.713  14.512  0.2132 -0.2399  0.6710
  840TIP3    H126715   2.760   4.731  14.442  0.9396  1.5146  0.4006
  840TIP3    H226716   2.893   4.778  14.499  1.2473 -1.0319  1.9604
  841TIP3   OH226717   8.205   5.322  15.208 -0.1858  0.2942  0.4602
  841TIP3    H126718   8.263   5.274  15.267  1.2911  0.6888 -0.6102
  841TIP3    H226719   8.175   5.257  15.145  0.1343  0.3299  0.2647
  842TIP3   OH226720   8.333   4.787  15.083  0.2881  0.4342 -0.6531
  842TIP3    H126721   8.384   4.706  15.078 -0.2599 -0.1223  1.5330
  842TIP3    H226722   8.393   4.851  15.122  0.0559  0.4684 -0.3514
  843TIP3   OH226723   4.124   1.302  14.948 -0.2795  0.1249  0.2752
  843TIP3    H126724   4.055   1.280  14.886 -0.1436  0.1891  0.0992
  843TIP3    H226725   4.078   1.332  15.026 -0.4560  1.1760 -0.2138
  844TIP3   OH226726   2.700   2.744  14.725  0.3202 -0.4048 -0.0657
  844TIP3    H126727   2.654   2.667  14.691 -0.7885 -0.7485  2.0296
  844TIP3    H226728   2.653   2.766  14.805  1.0592  2.0518 -0.2227
  845TIP3   OH226729   4.565   1.090  14.695 -0.0541 -0.5240  0.0518
  845TIP3    H126730   4.534   1.135  14.773 -1.3514 -1.5180  0.1416
  845TIP3    H226731   4.575   0.999  14.721  0.6648 -0.6637 -0.6369
  846TIP3   OH226732   4.741   0.566  15.836  0.5323  0.3951 -0.0705
  846TIP3    H126733   4.791   0.616  15.772 -0.5830 -2.3756 -3.4307
  846TIP3    H226734   4.800   0.497  15.866  0.2001  0.0136 -0.2836
  847TIP3   OH226735   5.331   5.110  15.589 -0.1843 -0.5425  0.1369
  847TIP3    H126736   5.404   5.068  15.543 -0.4025 -1.7936  0.8769
  847TIP3    H226737   5.301   5.178  15.529 -0.1841 -1.8217 -1.3830
  848TIP3   OH226738   8.156   4.314  15.620 -0.7700 -0.0280 -0.3426
  848TIP3    H126739   8.160   4.305  15.525 -1.7295 -4.0906 -0.1612
  848TIP3    H226740   8.074   4.360  15.637 -0.7924  0.3543 -1.4113
  849TIP3   OH226741   4.259   0.079  14.432  0.0150  0.0246  0.2367
  849TIP3    H126742   4.261   0.098  14.526 -1.0922 -0.5410  0.3876
  849TIP3    H226743   4.241   0.164  14.391  1.9952  0.5668  0.4060
  850TIP3   OH226744   7.346   4.016  14.872  0.5812 -0.8065 -0.2780
  850TIP3    H126745   7.302   4.036  14.955  1.7261 -0.1606  0.2036
  850TIP3    H226746   7.298   4.066  14.807  0.4967 -0.2378  0.2097
  851TIP3   OH226747   7.892   5.632  14.804 -0.1308  0.5171 -0.4830
  851TIP3    H126748   7.962   5.697  14.795 -0.4158  1.1321  1.2469
  851TIP3    H226749   7.876   5.601  14.715  2.2262  0.4581 -0.9515
  852TIP3   OH226750   6.047   7.531  14.761 -0.1824 -0.1257  0.6141
  852TIP3    H126751   6.069   7.606  14.706  0.3385  0.3572  1.4759
  852TIP3    H226752   5.954   7.515  14.744  0.6015 -2.0235 -2.8651
  853TIP3   OH226753   3.604   0.015  15.952 -0.3430 -0.0092  0.1109
  853TIP3    H126754   3.679   0.072  15.937 -1.5776  1.5829 -0.2353
  853TIP3    H226755   3.643  -0.071  15.972  1.5543  0.2080 -2.1790
  854TIP3   OH226756   5.276   7.665  14.939 -0.3863  0.0332 -0.5562
  854TIP3    H126757   5.317   7.685  14.855  1.0993 -0.1332  0.1131
  854TIP3    H226758   5.249   7.573  14.931  0.0909 -0.0933 -0.7061
  855TIP3   OH226759   3.278   5.288  15.506 -0.0823  0.0121 -0.1479
  855TIP3    H126760   3.267   5.303  15.600  0.3200 -0.0622 -0.0888
  855TIP3    H226761   3.371   5.303  15.490  0.0757 -1.0874 -0.3253
  856TIP3   OH226762   3.626   5.809  13.938  0.6706  0.3318 -0.3115
  856TIP3    H126763   3.575   5.880  13.898 -0.9095  0.0386  1.0716
  856TIP3    H226764   3.612   5.819  14.032 -0.2550 -2.2428 -0.0960
  857TIP3   OH226765   3.013   6.967  13.885 -0.2288 -0.2518  0.0671
  857TIP3    H126766   3.105   6.967  13.910 -0.3813 -0.7604  0.6534
  857TIP3    H226767   2.965   6.974  13.968 -0.8160 -5.0008  0.3788
  858TIP3   OH226768   7.894   6.469  15.716 -0.3965  0.1267 -0.2348
  858TIP3    H126769   7.890   6.477  15.621  3.3514 -1.6863 -0.7315
  858TIP3    H226770   7.835   6.397  15.737 -1.5193  0.7634 -1.0683
  859TIP3   OH226771   1.291   6.131  14.909 -0.6187  0.1546 -0.1984
  859TIP3    H126772   1.197   6.115  14.917 -0.6544  0.5506  0.2075
  859TIP3    H226773   1.302   6.163  14.820 -0.5350 -2.1356 -1.0715
  860TIP3   OH226774   5.129   6.029  14.393  0.3574 -0.1313  0.0381
  860TIP3    H126775   5.057   5.970  14.417  0.3944 -0.4332 -0.5560
  860TIP3    H226776   5.099   6.072  14.313  0.8871 -0.3522 -0.2858
  861TIP3   OH226777   5.212   5.002  16.024  0.2290 -0.2562  0.0344
  861TIP3    H126778   5.273   4.942  15.980 -0.0524 -1.9981  1.8627
  861TIP3    H226779   5.135   5.005  15.968  0.5918 -0.9544 -0.5135
  862TIP3   OH226780   4.884   3.444  14.234  0.4170 -0.0126  0.1683
  862TIP3    H126781   4.886   3.389  14.313  1.5635  0.7712  0.7107
  862TIP3    H226782   4.911   3.385  14.163  2.4704  0.0112  0.8794
  863TIP3   OH226783   4.360   1.520  14.182  0.4123  0.3168  0.2786
  863TIP3    H126784   4.342   1.426  14.190 -0.5485  0.0466 -3.3340
  863TIP3    H226785   4.456   1.526  14.180  0.4909 -0.8684 -1.2237
  864TIP3   OH226786   3.328   3.622  15.486  0.0318  0.0206 -0.6090
  864TIP3    H126787   3.355   3.655  15.572 -2.0934  1.6389 -0.4902
  864TIP3    H226788   3.338   3.527  15.493  2.2087  0.2637  0.5588
  865TIP3   OH226789   5.373   2.369  13.989 -0.1099 -0.7102  0.1304
  865TIP3    H126790   5.350   2.462  13.994  0.6551 -0.5104  0.0600
  865TIP3    H226791   5.301   2.324  14.034 -1.0332 -0.1803 -0.7582
  866TIP3   OH226792   7.984   3.170  15.692 -0.1062 -0.8846 -0.2619
  866TIP3    H126793   8.051   3.225  15.733  0.8028 -2.6360  0.7505
  866TIP3    H226794   8.000   3.179  15.598 -0.3309  0.9434 -0.1657
  867TIP3   OH226795   0.967   5.874  14.400  0.0571 -0.2342  0.3573
  867TIP3    H126796   0.972   5.964  14.367 -1.3648  0.4983  1.9456
  867TIP3    H226797   0.894   5.835  14.351 -0.3684  0.0134  0.7846
  868TIP3   OH226798   1.217   6.727  15.314 -0.1241 -0.2328 -0.1739
  868TIP3    H126799   1.178   6.814  15.316  0.5692  0.2725 -3.5635
  868TIP3    H226800   1.308   6.741  15.286  0.2656 -1.9798  0.0564
  869TIP3   OH226801   0.289   2.646  15.245  0.5250  0.4345 -0.1000
  869TIP3    H126802   0.201   2.672  15.270 -0.1570  0.0573 -1.9688
  869TIP3    H226803   0.346   2.704  15.295 -0.7615  0.7447  1.0708
  870TIP3   OH226804   5.654   2.911  14.410 -0.1917  0.0401  0.5363
  870TIP3    H126805   5.737   2.914  14.361 -0.0162  1.6622  0.8757
  870TIP3    H226806   5.588   2.893  14.343  0.2991 -0.1012  0.0715
  871TIP3   OH226807   3.614   6.771  15.731  0.1668  0.1724  0.5048
  871TIP3    H126808   3.580   6.712  15.798 -1.0417  0.2889  0.0255
  871TIP3    H226809   3.537   6.819  15.701  0.9364  1.1575  0.0608
  872TIP3   OH226810   2.998   7.925  14.861 -0.5719 -0.4643 -0.2093
  872TIP3    H126811   2.971   7.870  14.934 -1.7072 -0.6125 -0.7196
  872TIP3    H226812   2.924   7.985  14.848 -0.6034 -0.7638 -1.5461
  873TIP3   OH226813   5.413   0.071  14.725  0.1064 -0.4735 -0.3670
  873TIP3    H126814   5.412   0.002  14.659  0.1690  0.1315 -1.0250
  873TIP3    H226815   5.388   0.028  14.806  2.1271 -1.7112 -0.3114
  874TIP3   OH226816   2.366   2.895  15.161  0.0294 -0.0135 -0.2108
  874TIP3    H126817   2.438   2.953  15.136  0.6497 -0.9186 -0.5946
  874TIP3    H226818   2.405   2.833  15.222 -1.2042  1.4558  2.2452
  875TIP3   OH226819   5.768   4.116  14.088  0.0488 -0.0440 -0.2914
  875TIP3    H126820   5.735   4.047  14.030  0.3118  1.6292 -2.5987
  875TIP3    H226821   5.844   4.151  14.042  0.6769  0.9461  1.4244
  876TIP3   OH226822   1.951   6.937  14.958 -0.0930 -0.3314  0.3200
  876TIP3    H126823   1.942   6.893  15.042 -0.0557  0.3996  0.7109
  876TIP3    H226824   1.994   6.873  14.902  0.0642 -0.7540  0.9152
  877TIP3   OH226825   2.150   7.343  14.067 -0.5535  0.5793  0.0344
  877TIP3    H126826   2.090   7.270  14.050 -0.4499  0.5797 -0.3401
  877TIP3    H226827   2.104   7.420  14.034  0.0989  0.4390 -1.2834
  878TIP3   OH226828   6.692   2.365  13.654 -0.2259 -0.0540 -0.1560
  878TIP3    H126829   6.635   2.331  13.723  0.0288  1.1002  0.6458
  878TIP3    H226830   6.660   2.323  13.574 -1.1857 -0.6257  0.5078
  879TIP3   OH226831   0.151   1.820  15.542 -0.2376 -0.2136  0.0651
  879TIP3    H126832   0.158   1.892  15.606  2.3775  1.2891 -1.7241
  879TIP3    H226833   0.074   1.843  15.489 -2.1495 -1.2280  2.2300
  880TIP3   OH226834   2.244   7.367  15.364  0.0668  0.2611  0.0981
  880TIP3    H126835   2.272   7.444  15.414  0.4040  0.9646 -1.1562
  880TIP3    H226836   2.232   7.398  15.275 -0.2721 -1.0434 -0.3384
  881TIP3   OH226837   7.378   1.389  14.750  0.1981 -0.3375  0.3338
  881TIP3    H126838   7.388   1.436  14.667  0.2072  0.0447  0.5472
  881TIP3    H226839   7.447   1.425  14.806 -0.7675  0.5235  1.0032
  882TIP3   OH226840   4.700   4.078  15.680 -0.0320 -0.1683 -0.1187
  882TIP3    H126841   4.695   4.162  15.725 -0.4455 -1.1148  1.7231
  882TIP3    H226842   4.627   4.027  15.716  0.6208 -1.5470 -0.6541
  883TIP3   OH226843   2.660   4.480  14.733 -0.0215  0.4584  1.1865
  883TIP3    H126844   2.660   4.404  14.791 -0.1039 -0.6071 -0.1504
  883TIP3    H226845   2.738   4.468  14.678  0.0904  1.4686  1.1057
  884TIP3   OH226846   1.886   4.524  13.747 -0.6648 -0.1701  0.2489
  884TIP3    H126847   1.882   4.475  13.829  1.1001 -0.0681  0.4315
  884TIP3    H226848   1.803   4.504  13.703 -1.3070 -0.8389  1.6978
  885TIP3   OH226849   2.940   4.671  13.913 -0.1713  0.2768  0.4448
  885TIP3    H126850   2.909   4.652  13.824 -4.4514  2.2953  1.2435
  885TIP3    H226851   2.991   4.751  13.904  0.8630 -0.4398 -0.3267
  886TIP3   OH226852   3.407   6.822  15.148 -0.9147 -0.7134  0.4391
  886TIP3    H126853   3.457   6.782  15.077  0.2991 -0.2206  0.9955
  886TIP3    H226854   3.422   6.764  15.223  1.1983  0.9130  1.3634
  887TIP3   OH226855   3.560   2.074  15.129  0.8393  0.1683  0.3281
  887TIP3    H126856   3.515   1.994  15.157 -1.2969  0.0147 -2.9822
  887TIP3    H226857   3.598   2.110  15.210 -0.5347 -2.6544  2.4058
  888TIP3   OH226858   0.354   8.105  14.883 -0.1689  0.0847 -0.5597
  888TIP3    H126859   0.314   8.143  14.805  0.2287  0.4766 -0.5775
  888TIP3    H226860   0.432   8.060  14.851  0.2396  0.6194 -0.3418
  889TIP3   OH226861   4.955   5.084  14.988 -0.4909 -0.1990 -0.2885
  889TIP3    H126862   4.913   5.028  15.053 -0.4822  0.2879  0.1424
  889TIP3    H226863   4.884   5.138  14.953 -0.2013  0.8713  0.6923
  890TIP3   OH226864   5.104   4.104  15.534  0.2114  0.2344  0.1858
  890TIP3    H126865   5.104   4.058  15.450 -1.0200  0.7440 -0.1077
  890TIP3    H226866   5.139   4.191  15.514 -2.2267  1.1823 -0.3198
  891TIP3   OH226867   6.950   5.924  16.052 -0.0773 -0.0438 -0.5589
  891TIP3    H126868   6.927   5.904  16.142  1.5668  3.3411  0.7904
  891TIP3    H226869   7.037   5.886  16.040 -0.5814 -1.0923 -1.0018
  892TIP3   OH226870   5.442   1.787  15.353  0.4380  0.7405 -0.2322
  892TIP3    H126871   5.445   1.880  15.331 -0.4788  1.3691  2.0409
  892TIP3    H226872   5.444   1.742  15.268 -1.5063  2.8744 -1.5260
  893TIP3   OH226873   7.613   3.804  14.051  0.1544  0.2520 -0.7026
  893TIP3    H126874   7.635   3.724  14.004 -2.8504 -0.1835 -1.5648
  893TIP3    H226875   7.654   3.874  14.000  0.6793 -0.5345 -1.3829
  894TIP3   OH226876   1.003   2.789  14.161 -0.0517  0.4084 -0.3884
  894TIP3    H126877   1.030   2.707  14.203 -0.7897  0.8917  1.0662
  894TIP3    H226878   0.923   2.766  14.113 -0.6122  0.4009  0.5289
  895TIP3   OH226879   7.030   1.088  15.413  0.1405  0.3969  0.3384
  895TIP3    H126880   7.068   1.003  15.432 -0.9799 -0.1454  0.2570
  895TIP3    H226881   7.082   1.122  15.341 -0.0782 -0.7103 -0.3637
  896TIP3   OH226882   2.228   5.091  14.587 -0.0189  0.1069  0.2487
  896TIP3    H126883   2.143   5.100  14.544 -0.0285 -1.3409 -0.1060
  896TIP3    H226884   2.252   5.179  14.613 -1.8228  0.4935  0.7128
  897TIP3   OH226885   1.468   7.192  15.132 -0.2480 -0.1002 -0.0066
  897TIP3    H126886   1.398   7.131  15.110  0.6678 -1.2579  0.2023
  897TIP3    H226887   1.427   7.254  15.193 -1.5905  0.4368 -1.3893
  898TIP3   OH226888   1.131   8.056  14.121 -0.0596  0.7644 -0.4868
  898TIP3    H126889   1.121   7.962  14.111  1.9274  0.3619  0.6971
  898TIP3    H226890   1.222   8.073  14.096 -0.1383  2.2342  0.1167
  899TIP3   OH226891   6.718   1.406  15.681 -0.5241  0.0360 -0.1398
  899TIP3    H126892   6.808   1.438  15.671 -0.7790  0.7276 -0.3165
  899TIP3    H226893   6.674   1.434  15.601 -1.8677  3.1066  1.5167
  900TIP3   OH226894   3.098   7.383  13.493  0.2204  0.1134 -0.0508
  900TIP3    H126895   3.003   7.379  13.483  0.3180 -0.7205 -0.8025
  900TIP3    H226896   3.115   7.470  13.528 -0.9474 -0.3133  1.6913
  901TIP3   OH226897   4.008   4.992  15.775  0.7925  0.4353  0.3052
  901TIP3    H126898   3.993   5.008  15.869  0.0516 -0.8641  0.4514
  901TIP3    H226899   3.983   5.073  15.732 -4.7098 -0.5792  0.7782
  902TIP3   OH226900   5.939   7.482  14.360  0.1426  0.1558  0.0668
  902TIP3    H126901   5.900   7.563  14.326  0.1686  0.5880  1.0382
  902TIP3    H226902   5.878   7.452  14.427  0.7738  0.0845  0.6220
  903TIP3   OH226903   4.687   3.201  14.117 -0.0099 -0.6761 -0.4490
  903TIP3    H126904   4.743   3.151  14.176 -0.6389 -2.3335 -1.1973
  903TIP3    H226905   4.746   3.232  14.048  0.0341 -2.5308 -1.3086
  904TIP3   OH226906   6.106   7.208  13.760  0.4434 -0.5395  0.3823
  904TIP3    H126907   6.161   7.152  13.814  0.6601 -0.9428 -0.2455
  904TIP3    H226908   6.107   7.167  13.673 -1.3900 -0.9498  0.5118
  905TIP3   OH226909   7.296   1.560  14.522 -0.0679 -0.2241 -0.1706
  905TIP3    H126910   7.327   1.648  14.504 -1.5533  0.4367  0.3656
  905TIP3    H226911   7.269   1.526  14.436 -0.0118  0.0538 -0.2979
  906TIP3   OH226912   6.223   0.091  15.463 -0.2455  0.3898  0.1822
  906TIP3    H126913   6.283   0.138  15.405 -0.5187 -0.4573 -0.8175
  906TIP3    H226914   6.279   0.031  15.512 -0.3056 -0.7054 -1.0594
  907TIP3   OH226915   3.803   6.050  15.431  0.1059  0.5210  0.0925
  907TIP3    H126916   3.744   6.012  15.496  1.1286 -4.2038 -1.3941
  907TIP3    H226917   3.750   6.056  15.351  0.7198 -0.6635 -0.4212
  908TIP3   OH226918   7.809   5.349  16.178  0.0070  0.0097 -0.1686
  908TIP3    H126919   7.796   5.376  16.269  0.2757  0.8777 -0.3806
  908TIP3    H226920   7.903   5.337  16.169 -0.0355 -0.2428 -0.2907
  909TIP3   OH226921   0.997   4.111  16.265  0.0224  0.0818  0.0813
  909TIP3    H126922   1.036   4.168  16.332 -1.4970  1.5308 -0.1980
  909TIP3    H226923   1.050   4.125  16.187  1.3066 -0.9943  0.7209
  910TIP3   OH226924   1.344   8.130  14.930 -0.5712  0.3147  0.3823
  910TIP3    H126925   1.283   8.070  14.887 -1.8568  1.3303  0.7485
  910TIP3    H226926   1.345   8.208  14.875  0.3657  0.3303  0.4078
  911TIP3   OH226927   7.869   6.190  14.971  0.6333  0.4177 -0.3352
  911TIP3    H126928   7.954   6.149  14.983  0.9129  0.6537 -1.3751
  911TIP3    H226929   7.880   6.248  14.895 -0.0603  1.5445  0.3790
  912TIP3   OH226930   6.158   2.538  14.561 -0.3746  0.0789 -0.6746
  912TIP3    H126931   6.126   2.540  14.651 -0.7081  0.6980 -0.7953
  912TIP3    H226932   6.078   2.530  14.508 -0.2494  0.5420 -0.9390
  913TIP3   OH226933   1.435   6.675  14.640 -0.3442 -0.4862 -0.1153
  913TIP3    H126934   1.511   6.717  14.679 -1.5236  0.4140  1.2905
  913TIP3    H226935   1.463   6.584  14.625  0.9997 -0.1614  0.3344
  914TIP3   OH226936   1.508   0.657  15.156 -0.3182 -0.5542 -0.6776
  914TIP3    H126937   1.542   0.661  15.245 -1.3041  2.4976 -0.3096
  914TIP3    H226938   1.458   0.576  15.153  1.4897 -1.8004  0.8224
  915TIP3   OH226939   5.064   2.804  15.048 -0.1139 -0.0944 -0.4366
  915TIP3    H126940   5.131   2.848  14.996 -0.3398  0.1744 -0.5023
  915TIP3    H226941   5.108   2.778  15.128  0.6787 -1.9597 -1.4157
  916TIP3   OH226942   4.563   4.767  14.456 -0.1044  0.1551 -0.3776
  916TIP3    H126943   4.553   4.794  14.547 -1.1792 -2.1661  0.2671
  916TIP3    H226944   4.631   4.700  14.458  2.4484  2.5275 -1.9042
  917TIP3   OH226945   0.494   7.629  15.743 -0.6467 -0.5392 -0.2876
  917TIP3    H126946   0.464   7.568  15.676 -0.6233  0.3348 -1.1194
  917TIP3    H226947   0.441   7.708  15.730 -0.7059 -0.3865  0.7900
  918TIP3   OH226948   0.382   2.301  14.765  0.1695 -0.3336  0.4579
  918TIP3    H126949   0.312   2.236  14.776 -0.8801  0.3137 -1.7713
  918TIP3    H226950   0.336   2.383  14.749  1.4684  0.3845  0.2732
  919TIP3   OH226951   2.957   3.873  15.040 -0.3699 -0.7313  0.3436
  919TIP3    H126952   2.917   3.824  14.968 -0.4930 -1.2448  0.7532
  919TIP3    H226953   2.897   3.945  15.056  0.6008  0.5350 -1.3355
  920TIP3   OH226954   0.246   2.505  14.638  0.1661  0.2548 -0.5041
  920TIP3    H126955   0.168   2.451  14.628  0.4346  0.1672 -2.5048
  920TIP3    H226956   0.216   2.594  14.619  0.2377  0.4727  0.3474
  921TIP3   OH226957   2.922   8.296  15.351  0.1929 -0.6811  0.1380
  921TIP3    H126958   2.966   8.213  15.334  0.7516 -0.1309 -1.2123
  921TIP3    H226959   2.839   8.271  15.392  1.4797 -1.7587  2.2620
  922TIP3   OH226960   3.076   1.760  14.095  0.0927 -0.3835  0.5032
  922TIP3    H126961   3.002   1.812  14.128 -0.4598 -0.9361  0.1649
  922TIP3    H226962   3.088   1.788  14.005  1.6369  1.1598  1.1500
  923TIP3   OH226963   1.258   3.713  14.176 -0.1902 -0.8405  0.1258
  923TIP3    H126964   1.315   3.788  14.159 -0.2086 -0.9304 -0.3622
  923TIP3    H226965   1.189   3.746  14.233 -0.2769 -0.4478 -0.2005
  924TIP3   OH226966   2.484   7.226  14.777  0.0971 -0.5056  0.1810
  924TIP3    H126967   2.451   7.315  14.769 -0.6490 -0.8999 -1.6648
  924TIP3    H226968   2.560   7.233  14.835  0.8802  1.5740 -1.0004
  925TIP3   OH226969   1.279   3.116  13.393  0.1783 -0.3589  0.1251
  925TIP3    H126970   1.255   3.083  13.479 -1.0810 -0.5748 -0.2965
  925TIP3    H226971   1.264   3.211  13.398  1.1539 -0.2090  0.4685
  926TIP3   OH226972   1.211   5.498  14.773 -0.2360 -0.7375 -0.0021
  926TIP3    H126973   1.150   5.450  14.830  0.3153 -1.3580  0.0748
  926TIP3    H226974   1.275   5.535  14.833 -1.0276  0.6911  0.0079
  927TIP3   OH226975   0.629   4.807  14.942  0.2310  0.7542 -0.2522
  927TIP3    H126976   0.671   4.876  14.995 -1.1994  0.1893  1.7301
  927TIP3    H226977   0.558   4.852  14.896 -1.5794  0.5101  2.0802
  928TIP3   OH226978   2.894   0.432  14.559  0.1486  0.1278 -0.4364
  928TIP3    H126979   2.944   0.375  14.501  0.4839 -0.8587  0.7646
  928TIP3    H226980   2.828   0.374  14.598 -0.1149  0.7813  0.1116
  929TIP3   OH226981   7.312   6.847  14.250  0.5278  0.2232  0.0773
  929TIP3    H126982   7.228   6.803  14.257  0.5146  0.1821 -0.3253
  929TIP3    H226983   7.337   6.838  14.157  1.3445 -0.4539  0.3462
  930TIP3   OH226984   2.317   0.893  15.192 -0.1301  0.5383  0.2846
  930TIP3    H126985   2.316   0.972  15.246  2.2563  0.4758  0.5376
  930TIP3    H226986   2.387   0.840  15.229 -0.4201 -0.8546 -1.0719
  931TIP3   OH226987   2.181   4.099  16.416 -0.7572 -0.2818 -0.4576
  931TIP3    H126988   2.241   4.037  16.458 -2.7028 -1.8943  0.1116
  931TIP3    H226989   2.098   4.052  16.411 -1.9078  1.7319 -1.5313
  932TIP3   OH226990   5.558   6.704  14.865  0.2195  0.1905  0.0254
  932TIP3    H126991   5.637   6.651  14.866 -1.1806 -2.0514 -1.1346
  932TIP3    H226992   5.490   6.647  14.901 -1.1771  1.5388 -0.3526
  933TIP3   OH226993   7.974   2.421  14.369  0.6128 -0.0503 -0.3298
  933TIP3    H126994   7.904   2.421  14.434  0.5998  0.3171 -0.3423
  933TIP3    H226995   8.054   2.430  14.420  0.5230  1.5805 -0.4391
  934TIP3   OH226996   2.367   4.285  15.688  0.2176 -0.2481  0.1306
  934TIP3    H126997   2.387   4.192  15.679  0.4174 -0.2695  0.7032
  934TIP3    H226998   2.404   4.309  15.773 -0.5731  0.1511  0.3770
  935TIP3   OH226999   7.251   5.114  14.208 -0.1336  0.0577  1.1874
  935TIP3    H127000   7.182   5.166  14.166 -0.8587 -1.8775 -0.1274
  935TIP3    H227001   7.205   5.068  14.279 -0.1823 -1.1212  0.4020
  936TIP3   OH227002   4.371   2.866  14.306  0.6047  0.4337  0.3790
  936TIP3    H127003   4.295   2.926  14.307  1.3239  1.3676  1.2097
  936TIP3    H227004   4.347   2.796  14.367 -0.8393 -0.9608 -1.6589
  937TIP3   OH227005   2.902   3.513  15.331 -0.0355  0.2958  0.2580
  937TIP3    H127006   2.920   3.443  15.394  0.6785 -0.1648 -0.4387
  937TIP3    H227007   2.877   3.466  15.251  0.8574  0.8120 -0.3409
  938TIP3   OH227008   0.490   5.241  14.518  0.2918 -0.0670 -0.0340
  938TIP3    H127009   0.532   5.321  14.485  0.3790  0.0333  0.3177
  938TIP3    H227010   0.453   5.266  14.602 -0.4025 -0.1834 -0.3001
  939TIP3   OH227011   2.519   8.154  14.491 -0.2752 -0.4762  0.0935
  939TIP3    H127012   2.470   8.208  14.553  1.6499  0.0433  1.2424
  939TIP3    H227013   2.477   8.171  14.406 -1.0662  1.1454  0.7604
  940TIP3   OH227014   7.000   7.547  13.992 -0.3361  0.2444 -0.4711
  940TIP3    H127015   7.083   7.578  14.028 -0.3329  1.5933 -1.5802
  940TIP3    H227016   7.023   7.471  13.939  0.0955  0.2165 -0.2426
  941TIP3   OH227017   2.574   0.414  15.617 -0.3208 -0.1271 -0.6963
  941TIP3    H127018   2.610   0.440  15.701 -1.5272 -0.0385 -0.1772
  941TIP3    H227019   2.605   0.480  15.556  1.3517 -0.7183 -0.5327
  942TIP3   OH227020   7.007   1.012  15.821  0.4008 -0.0171 -0.1467
  942TIP3    H127021   7.014   1.106  15.832  0.0773 -0.0756  0.6170
  942TIP3    H227022   6.916   0.998  15.792 -0.3309 -0.2683  2.0704
  943TIP3   OH227023   2.770   7.282  15.230  0.7217  0.1101 -0.0286
  943TIP3    H127024   2.739   7.347  15.294 -0.7925 -1.5129  0.9744
  943TIP3    H227025   2.694   7.225  15.215  1.8716 -1.1866 -1.1989
  944TIP3   OH227026   0.067   2.570  15.002 -0.0871  0.0159  0.1059
  944TIP3    H127027   0.049   2.637  15.068 -0.0759  0.6660 -0.5359
  944TIP3    H227028   0.161   2.578  14.985 -0.5467  1.8611 -2.0677
  945TIP3   OH227029   6.726   2.395  15.039 -0.2809  0.7661  0.3338
  945TIP3    H127030   6.776   2.348  15.106 -0.4408 -0.0362 -0.0988
  945TIP3    H227031   6.774   2.380  14.958 -1.5475 -0.5839 -0.2135
  946TIP3   OH227032   2.670   6.055  15.247 -0.1218  0.0939  0.1191
  946TIP3    H127033   2.756   6.042  15.206  0.2707  0.6630  0.7511
  946TIP3    H227034   2.661   6.150  15.253 -0.2028  0.0264  1.2785
  947TIP3   OH227035   5.751   4.329  15.587 -0.4759 -0.3344  0.4323
  947TIP3    H127036   5.782   4.239  15.573 -2.0458 -0.6888 -1.2509
  947TIP3    H227037   5.771   4.374  15.505  0.5283  0.9621  1.3563
  948TIP3   OH227038   1.630   0.719  14.914 -0.1724  0.3632  0.6921
  948TIP3    H127039   1.586   0.702  14.997  0.4958  1.0550  1.2039
  948TIP3    H227040   1.646   0.813  14.914  2.7676 -0.0249  1.3314
  949TIP3   OH227041   1.586   7.945  15.247 -0.1535 -0.5016  0.3554
  949TIP3    H127042   1.586   7.862  15.200  0.0502  0.1250 -0.7818
  949TIP3    H227043   1.671   7.948  15.291  0.5492 -0.1697 -0.9644
  950TIP3   OH227044   1.960   3.570  14.874 -0.0981  0.1276  0.0473
  950TIP3    H127045   2.019   3.611  14.809  0.7174  1.9121  1.8028
  950TIP3    H227046   1.903   3.642  14.902 -0.1610 -0.4943  1.5868
  951TIP3   OH227047   5.636   2.768  15.437  0.0010  0.1384 -0.3011
  951TIP3    H127048   5.713   2.746  15.384 -1.0673 -0.1003 -1.8194
  951TIP3    H227049   5.669   2.831  15.501  1.7835 -1.1576  0.1235
  952TIP3   OH227050   6.690   2.250  14.649 -0.0098  0.5763  0.0918
  952TIP3    H127051   6.662   2.198  14.725  0.0496  0.4345  0.0184
  952TIP3    H227052   6.728   2.185  14.589  1.2448  0.8748  0.5415
  953TIP3   OH227053   3.698   6.893  15.013 -0.5303  0.6781  0.3214
  953TIP3    H127054   3.670   6.801  15.016 -0.1600  0.4300 -1.8457
  953TIP3    H227055   3.667   6.930  15.095 -0.5608 -1.4200  1.3383
  954TIP3   OH227056   2.690   0.936  14.304  0.2871 -0.0102 -0.1223
  954TIP3    H127057   2.662   1.016  14.350 -0.2412  1.4102 -2.7174
  954TIP3    H227058   2.609   0.887  14.292  0.4639 -0.5020  0.6050
  955TIP3   OH227059   8.380   0.852  15.000  0.0499  0.4792  0.0408
  955TIP3    H127060   8.342   0.849  14.912  1.1801 -1.3106 -0.4395
  955TIP3    H227061   8.333   0.785  15.049  1.1369 -0.3118  0.0333
  956TIP3   OH227062   1.093   6.982  15.268 -0.6327  0.2807  1.1768
  956TIP3    H127063   1.015   7.000  15.215 -1.6018 -1.0174  2.1039
  956TIP3    H227064   1.072   7.017  15.355 -0.6714 -1.1110  1.7443
  957TIP3   OH227065   7.785   6.358  15.167 -0.0746  0.0191 -0.4984
  957TIP3    H127066   7.802   6.282  15.110  0.7066  0.4174 -0.8239
  957TIP3    H227067   7.872   6.397  15.180 -0.6423  1.7799 -1.6380
  958TIP3   OH227068   5.636   4.766  15.203 -0.2128 -0.3360 -0.6068
  958TIP3    H127069   5.551   4.808  15.191 -0.2095  0.0920  0.6424
  958TIP3    H227070   5.697   4.839  15.215 -0.4020 -0.5633  2.8511
  959TIP3   OH227071   0.611   0.736  14.784  0.1103 -0.3525 -0.8052
  959TIP3    H127072   0.520   0.708  14.777  0.0785 -0.0557 -1.6547
  959TIP3    H227073   0.653   0.703  14.705  0.4662  0.5266 -0.9974
  960TIP3   OH227074   5.796   5.552  15.268  0.3803  0.6425 -0.0159
  960TIP3    H127075   5.745   5.566  15.188 -2.0421  0.0982  1.3244
  960TIP3    H227076   5.837   5.467  15.256  2.1184  1.6184 -1.6309
  961TIP3   OH227077   1.273   7.462  15.500 -0.1060 -0.2213 -0.1642
  961TIP3    H127078   1.342   7.524  15.474  0.5220 -0.4286  0.9247
  961TIP3    H227079   1.206   7.517  15.541  0.8560 -0.3058  1.6173
  962TIP3   OH227080   7.084   6.379  15.005 -0.9082  0.3572  0.3390
  962TIP3    H127081   7.118   6.365  15.093  1.0435  1.4009 -0.1904
  962TIP3    H227082   7.030   6.302  14.987 -0.7144 -0.2371  2.1406
  963TIP3   OH227083   7.257   1.369  15.645 -0.2490  0.0369 -0.4221
  963TIP3    H127084   7.319   1.433  15.610  0.0319 -0.5044 -0.9297
  963TIP3    H227085   7.286   1.285  15.609  0.0325 -0.5483  1.0934
  964TIP3   OH227086   4.934   3.756  14.681  0.9516 -0.0627  0.1989
  964TIP3    H127087   4.959   3.829  14.623  2.6569 -0.9794 -0.2924
  964TIP3    H227088   4.904   3.688  14.621  0.3668 -0.1453  0.5826
  965TIP3   OH227089   2.108   0.109  14.930  0.4368  0.1257 -0.5041
  965TIP3    H127090   2.069   0.174  14.871 -0.4603  1.8709  1.8760
  965TIP3    H227091   2.201   0.131  14.933 -0.0063  2.1105  1.0839
  966TIP3   OH227092   4.330   4.348  14.564 -0.0164 -0.2691 -0.1150
  966TIP3    H127093   4.239   4.360  14.592 -1.0913 -2.7002 -2.1282
  966TIP3    H227094   4.335   4.392  14.480  0.8972  0.4506  0.3066
  967TIP3   OH227095   2.779   3.628  15.699 -0.0946 -0.1962 -0.0741
  967TIP3    H127096   2.802   3.720  15.703 -1.2103  0.2348 -2.2583
  967TIP3    H227097   2.691   3.626  15.661  0.4381 -2.1723 -1.4052
  968TIP3   OH227098   2.331   3.535  14.789 -0.0471  0.2864 -0.0339
  968TIP3    H127099   2.248   3.580  14.777  0.0385  0.6194  0.6126
  968TIP3    H227100   2.398   3.601  14.770  0.0870 -0.1354 -1.1454
  969TIP3   OH227101   7.236   4.020  16.225  0.4161 -0.8357 -0.7043
  969TIP3    H127102   7.318   4.065  16.245  0.9549 -2.4027  0.8317
  969TIP3    H227103   7.172   4.060  16.283 -0.4693  1.7507 -3.2439
  970TIP3   OH227104   4.702   7.462  13.820 -0.0623  0.1285  0.1417
  970TIP3    H127105   4.741   7.385  13.863  0.8224  0.3246 -0.2829
  970TIP3    H227106   4.608   7.450  13.830 -0.0192 -1.7844 -1.1846
  971TIP3   OH227107   1.014   3.751  14.882  0.1152  0.0253  0.1080
  971TIP3    H127108   1.072   3.675  14.890 -0.4326 -0.3876  0.1884
  971TIP3    H227109   1.074   3.826  14.884  0.5633 -0.3255  1.5032
  972TIP3   OH227110   3.249   1.921  13.730 -0.1680  0.5160 -0.2164
  972TIP3    H127111   3.281   1.831  13.739  0.5870  0.5669 -1.9549
  972TIP3    H227112   3.158   1.917  13.758  0.2090 -0.4972  0.9808
  973TIP3   OH227113   4.411   4.288  16.058  0.2430 -0.3537  0.3064
  973TIP3    H127114   4.476   4.349  16.093  1.3543 -0.9157 -0.6654
  973TIP3    H227115   4.389   4.323  15.971 -0.7921 -0.1497  0.6418
  974TIP3   OH227116   3.555   5.336  15.101  0.3863 -0.4493 -0.3042
  974TIP3    H127117   3.628   5.313  15.044 -0.1713 -0.1822 -1.1521
  974TIP3    H227118   3.564   5.279  15.177  1.4385 -0.4525 -0.4248
  975TIP3   OH227119   4.851   7.081  15.660 -0.4423  0.5623 -0.2743
  975TIP3    H127120   4.829   6.990  15.677 -1.5228  0.6577 -1.0407
  975TIP3    H227121   4.863   7.086  15.565 -0.5859  1.2557 -0.2672
  976TIP3   OH227122   0.983   7.848  14.590  0.5758 -0.2768  0.6878
  976TIP3    H127123   0.949   7.827  14.503 -1.7936 -1.0878  1.7236
  976TIP3    H227124   1.037   7.773  14.614  1.1099 -0.1204 -0.0242
  977TIP3   OH227125   3.224   7.012  14.915  0.1645  0.0382  0.0295
  977TIP3    H127126   3.311   7.049  14.900  0.0089  0.4425  0.1138
  977TIP3    H227127   3.169   7.054  14.849 -0.0762  0.1976  0.3265
  978TIP3   OH227128   4.779   6.851  14.096  0.5226 -0.5973 -0.2218
  978TIP3    H127129   4.774   6.943  14.121  0.9300 -0.7157  0.3188
  978TIP3    H227130   4.865   6.841  14.055  0.4015 -0.6946 -0.4528
  979TIP3   OH227131   7.730   7.154  14.793  0.6745  0.5615 -0.2249
  979TIP3    H127132   7.657   7.133  14.850  2.5225 -1.3769  1.6031
  979TIP3    H227133   7.760   7.070  14.759  2.3444  1.2263 -0.5240
  980TIP3   OH227134   4.964   3.943  14.487 -0.1636  0.2423 -0.9831
  980TIP3    H127135   4.992   4.031  14.511 -1.1479  0.3601 -0.1844
  980TIP3    H227136   4.907   3.956  14.411  1.3598  0.0621 -2.2110
  981TIP3   OH227137   0.136   4.085  14.576 -0.2058  0.0843  0.1001
  981TIP3    H127138   0.127   4.071  14.482  0.7989  2.5485 -0.4285
  981TIP3    H227139   0.205   4.151  14.585 -1.1177  0.8337  2.4981
  982TIP3   OH227140   5.108   1.677  14.842 -0.5168  0.5204 -0.5962
  982TIP3    H127141   5.055   1.744  14.799  1.9276  1.6402 -2.0392
  982TIP3    H227142   5.171   1.725  14.896 -0.7910 -0.7624  0.9544
  983TIP3   OH227143   5.308   2.794  15.191  0.2694  0.4001  0.1711
  983TIP3    H127144   5.353   2.811  15.274 -1.0149  3.7413  0.3267
  983TIP3    H227145   5.344   2.859  15.130 -0.8621 -0.0833 -1.0752
  984TIP3   OH227146   0.999   1.142  15.527 -0.1674  0.2639  0.3113
  984TIP3    H127147   1.057   1.138  15.603 -0.3667 -0.8634  0.4208
  984TIP3    H227148   1.048   1.100  15.457  0.2541  1.8229 -0.3780
  985TIP3   OH227149   1.163   2.532  14.547  0.3115  0.1248 -0.1751
  985TIP3    H127150   1.253   2.531  14.581  0.2679 -0.4174 -0.0544
  985TIP3    H227151   1.122   2.457  14.590 -0.4957  0.9642  0.5649
  986TIP3   OH227152   1.759   5.564  13.942  0.3989  0.0385 -0.3097
  986TIP3    H127153   1.800   5.487  13.981 -1.8250  0.2980  2.9471
  986TIP3    H227154   1.678   5.531  13.902  0.0156  0.4787  0.0778
  987TIP3   OH227155   6.972   0.581  15.549 -0.0389  0.6758  0.1863
  987TIP3    H127156   6.974   0.497  15.502 -2.3750  0.8109 -0.2559
  987TIP3    H227157   7.000   0.559  15.638  0.3418 -0.3828 -0.1795
  988TIP3   OH227158   4.289   6.373  15.511 -0.0291 -0.1938  0.2570
  988TIP3    H127159   4.266   6.375  15.604 -0.9673 -1.0165  0.0524
  988TIP3    H227160   4.346   6.296  15.502 -0.2068 -0.3069  0.0945
  989TIP3   OH227161   6.429   2.073  14.900  0.3791 -0.6895  0.0357
  989TIP3    H127162   6.434   2.107  14.990 -0.0517 -1.6933  0.4587
  989TIP3    H227163   6.510   2.024  14.889  0.1544 -1.0855  0.1094
  990TIP3   OH227164   3.692   7.215  14.525 -0.0442  0.1043 -0.4506
  990TIP3    H127165   3.778   7.233  14.486  0.0474 -0.3136 -0.4427
  990TIP3    H227166   3.690   7.120  14.535  0.4430  0.2684  1.6849
  991TIP3   OH227167   3.543   2.865  14.541 -0.8626 -0.3275 -0.0268
  991TIP3    H127168   3.540   2.950  14.498  4.1391  0.3957  0.4261
  991TIP3    H227169   3.575   2.884  14.629 -0.6577 -2.6136  0.4633
  992TIP3   OH227170   5.901   2.954  14.809 -0.2898 -0.0881 -0.1934
  992TIP3    H127171   5.855   2.889  14.755  1.4227 -1.4415 -0.0914
  992TIP3    H227172   5.850   2.957  14.890 -1.9487  0.7535 -1.2066
  993TIP3   OH227173   3.293   2.916  15.750 -0.2461 -0.2228  0.2630
  993TIP3    H127174   3.253   2.896  15.665  1.3006 -2.0939 -0.0822
  993TIP3    H227175   3.367   2.972  15.728 -0.9266  0.8560  0.6179
  994TIP3   OH227176   3.384   5.379  14.680 -0.6859  0.7543 -0.5005
  994TIP3    H127177   3.390   5.413  14.769 -1.1493  0.7048 -0.4463
  994TIP3    H227178   3.472   5.389  14.644 -0.4100  0.4272  0.0826
  995TIP3   OH227179   0.101   0.162  15.661  0.2820  0.1834  0.0536
  995TIP3    H127180   0.011   0.131  15.654  0.0817  0.6252  0.5744
  995TIP3    H227181   0.129   0.173  15.570 -0.1706 -0.0081 -0.1144
  996TIP3   OH227182   4.823   7.523  15.760 -0.3657  0.3911  0.6734
  996TIP3    H127183   4.730   7.511  15.738 -0.1062  1.0987 -0.9144
  996TIP3    H227184   4.849   7.439  15.797 -1.1138 -0.5797 -0.8814
  997TIP3   OH227185   5.492   7.962  15.963  0.0021  0.2176 -0.6103
  997TIP3    H127186   5.555   8.034  15.960 -0.5634  0.7303 -0.4129
  997TIP3    H227187   5.546   7.883  15.973  0.6006  0.6660 -0.1899
  998TIP3   OH227188   0.554   5.972  15.701 -0.1493 -0.1419 -0.2384
  998TIP3    H127189   0.498   6.043  15.731  0.2354  0.6054 -1.2528
  998TIP3    H227190   0.526   5.955  15.611  1.2944  0.3338 -0.8117
  999TIP3   OH227191   8.170   5.144  15.869  0.0561 -0.1079  0.4621
  999TIP3    H127192   8.102   5.110  15.927  0.6167 -0.7036  0.7799
  999TIP3    H227193   8.125   5.159  15.786 -0.7912  0.9100  1.0880
 1000TIP3   OH227194   3.252   0.739  15.809  0.2389 -0.0800  0.0713
 1000TIP3    H127195   3.335   0.693  15.815 -0.1557 -0.8461 -0.2286
 1000TIP3    H227196   3.200   0.687  15.748 -0.1655  0.8462 -0.4079
 1001TIP3   OH227197   5.233   4.131  14.306  0.8110  0.7310  0.1260
 1001TIP3    H127198   5.165   4.197  14.319 -0.2659 -0.2351 -0.3692
 1001TIP3    H227199   5.198   4.052  14.347  1.3113  0.0351 -0.7377
 1002TIP3   OH227200   2.757   5.313  15.182  0.0231  0.4675  0.0172
 1002TIP3    H127201   2.743   5.398  15.142 -0.2456 -0.3032 -1.6250
 1002TIP3    H227202   2.803   5.262  15.115 -1.3365 -1.2026  0.2865
 1003TIP3   OH227203   6.727   6.753  13.942  0.2994  0.0407  0.1096
 1003TIP3    H127204   6.767   6.736  14.027  0.8181 -0.3139 -0.2024
 1003TIP3    H227205   6.638   6.718  13.950 -0.0796  1.1506  0.9184
 1004TIP3   OH227206   3.622   4.994  13.895 -0.4650  0.0914 -0.2927
 1004TIP3    H127207   3.559   4.923  13.909 -0.6114  0.3152  0.2246
 1004TIP3    H227208   3.569   5.064  13.856 -0.7749  0.6528  1.0863
 1005TIP3   OH227209   4.981   5.129  14.186  0.1373  0.3900  0.7095
 1005TIP3    H127210   4.920   5.152  14.117  1.2964 -0.5801 -0.6929
 1005TIP3    H227211   5.067   5.127  14.143  0.6699 -2.0368  1.7104
 1006TIP3   OH227212   5.534   4.224  14.882  0.4855 -0.8366  0.1416
 1006TIP3    H127213   5.523   4.162  14.810  1.4044 -0.7452 -0.0944
 1006TIP3    H227214   5.570   4.303  14.840 -1.9014  0.3821  0.2126
 1007TIP3   OH227215   3.680   3.099  15.787  0.0377 -0.2431 -0.2302
 1007TIP3    H127216   3.745   3.167  15.799 -1.0917  0.9278 -0.5576
 1007TIP3    H227217   3.669   3.060  15.874  0.9782 -0.2925 -0.1256
 1008TIP3   OH227218   7.172   6.391  15.594 -0.7085  0.3022 -0.0814
 1008TIP3    H127219   7.241   6.336  15.558 -1.0644  1.2758 -2.3695
 1008TIP3    H227220   7.092   6.341  15.581 -0.8102  0.5491 -0.4066
 1009TIP3   OH227221   0.346   7.254  15.665  0.1649 -0.0560 -0.7412
 1009TIP3    H127222   0.269   7.243  15.720  0.4873  1.1030 -0.0054
 1009TIP3    H227223   0.342   7.183  15.602 -0.8242 -0.7502  0.0824
 1010TIP3   OH227224   5.351   3.122  15.161 -0.0854 -0.0245 -0.1393
 1010TIP3    H127225   5.318   3.205  15.128 -0.5190 -0.5013 -0.9256
 1010TIP3    H227226   5.377   3.141  15.252 -1.4427  0.6405  0.1346
 1011TIP3   OH227227   7.513   1.227  15.162  0.1301  0.0499  0.2132
 1011TIP3    H127228   7.499   1.141  15.203  0.3241 -1.1034 -1.9685
 1011TIP3    H227229   7.478   1.216  15.073  0.8704  2.0139 -0.3560
 1012TIP3   OH227230   2.175   1.256  14.544  0.1754 -0.0632  0.2088
 1012TIP3    H127231   2.191   1.238  14.451 -0.0990  0.2504  0.0988
 1012TIP3    H227232   2.092   1.302  14.545  0.2350  0.0346  0.6023
 1013TIP3   OH227233   4.704   0.226  15.713  0.7636  0.4338  0.6630
 1013TIP3    H127234   4.685   0.235  15.807  1.0853 -0.4309  0.8175
 1013TIP3    H227235   4.732   0.135  15.703  2.0779  0.8873 -0.0319
 1014TIP3   OH227236   3.239   2.678  13.706  0.7015 -0.2319  0.2949
 1014TIP3    H127237   3.296   2.726  13.766  1.6239 -1.1493  0.1769
 1014TIP3    H227238   3.164   2.653  13.760  0.9332  0.0173  0.7426
 1015TIP3   OH227239   0.294   3.289  15.876 -0.8492 -0.4644  0.2366
 1015TIP3    H127240   0.388   3.294  15.890 -0.8017 -0.3883 -0.1202
 1015TIP3    H227241   0.265   3.380  15.879 -0.6795 -0.3462 -1.2971
 1016TIP3   OH227242   6.217   6.127  15.269  0.3976 -0.0081 -0.1378
 1016TIP3    H127243   6.295   6.108  15.217  1.3966  1.2150  0.8516
 1016TIP3    H227244   6.144   6.095  15.215  1.5977 -1.7059 -0.8228
 1017TIP3   OH227245   5.717   1.232  15.922 -0.5085  0.2964  0.1283
 1017TIP3    H127246   5.785   1.172  15.890 -0.1548 -0.5394  2.3191
 1017TIP3    H227247   5.636   1.182  15.914 -0.2964 -0.2738  1.3572
 1018TIP3   OH227248   0.832   5.842  15.690  0.1168  0.0668  0.0161
 1018TIP3    H127249   0.798   5.781  15.756 -0.4284  1.0447  0.6723
 1018TIP3    H227250   0.762   5.907  15.680  0.7770  0.7094 -0.4962
 1019TIP3   OH227251   7.681   0.643  15.827  0.2465  0.1140 -0.4518
 1019TIP3    H127252   7.742   0.710  15.797 -0.3594  1.2032  0.6487
 1019TIP3    H227253   7.725   0.560  15.809  0.6192  0.7232 -2.7351
 1020TIP3   OH227254   5.871   7.349  15.417 -0.2383  0.4493  0.3601
 1020TIP3    H127255   5.930   7.343  15.492  0.8783  4.3701  0.0206
 1020TIP3    H227256   5.852   7.259  15.395  1.6642 -0.9338  3.5692
 1021TIP3   OH227257   7.544   4.121  15.842  0.2760 -0.2798  0.2148
 1021TIP3    H127258   7.566   4.049  15.901  0.2640  0.9496  1.7922
 1021TIP3    H227259   7.454   4.104  15.816 -0.2163 -0.1095  1.7231
 1022TIP3   OH227260   7.715   0.402  16.292 -0.2022 -0.7032  0.1451
 1022TIP3    H127261   7.793   0.347  16.302  0.1744 -0.2702 -0.3500
 1022TIP3    H227262   7.742   0.487  16.325 -0.3371 -0.4434 -0.4011
 1023TIP3   OH227263   0.319   7.473  14.530  0.1632  0.2309 -0.0392
 1023TIP3    H127264   0.307   7.505  14.441 -0.3147  1.5490  0.4646
 1023TIP3    H227265   0.233   7.437  14.554  0.8347 -1.9751 -0.7757
 1024TIP3   OH227266   4.032   3.529  15.733 -0.1065 -0.1232 -0.0368
 1024TIP3    H127267   4.075   3.578  15.803  0.8666 -0.9993 -0.0161
 1024TIP3    H227268   4.015   3.595  15.665 -0.8449  0.6856  0.9006
 1025TIP3   OH227269   5.410   6.449  16.021 -0.0405 -0.5763  0.0451
 1025TIP3    H127270   5.371   6.403  15.946  1.7534 -1.6452 -0.2948
 1025TIP3    H227271   5.475   6.388  16.055  0.1176  0.4403  1.6732
 1026TIP3   OH227272   5.450   3.147  14.361  0.1900 -0.0178  0.6471
 1026TIP3    H127273   5.485   3.196  14.287 -1.2239  0.7213  0.4411
 1026TIP3    H227274   5.431   3.060  14.326  0.5162  0.0051  0.4158
 1027TIP3   OH227275   6.712   5.181  14.945  0.6600 -0.3611 -0.1023
 1027TIP3    H127276   6.631   5.231  14.950  0.2727 -1.0059  0.1972
 1027TIP3    H227277   6.737   5.167  15.037  1.3258  0.1562 -0.1867
 1028TIP3   OH227278   7.022   4.325  15.699  0.3322  0.0769 -0.0907
 1028TIP3    H127279   7.010   4.417  15.723  0.3388 -0.5849  2.8770
 1028TIP3    H227280   6.975   4.315  15.617  1.1839  2.9194 -1.0490
 1029TIP3   OH227281   1.375   8.029  14.527  0.2756  0.3848  0.2252
 1029TIP3    H127282   1.327   8.056  14.605  0.1540  1.0257 -0.0705
 1029TIP3    H227283   1.465   8.018  14.557  0.0945 -0.0823  0.6117
 1030TIP3   OH227284   3.462   1.424  16.055 -0.1272 -0.7275 -0.5710
 1030TIP3    H127285   3.387   1.482  16.068  0.1573 -0.3849 -0.4454
 1030TIP3    H227286   3.481   1.390  16.142  1.6289  1.3823 -0.0367
 1031TIP3   OH227287   3.861   6.064  13.825  0.1370 -0.0906  0.3374
 1031TIP3    H127288   3.907   6.110  13.755  2.4385  0.7623  2.2766
 1031TIP3    H227289   3.788   6.121  13.847 -1.2969 -0.8768 -1.9805
 1032TIP3   OH227290   0.105   7.270  14.470  0.0157  0.2722 -0.0065
 1032TIP3    H127291   0.060   7.350  14.443  1.2082  0.3793 -1.8557
 1032TIP3    H227292   0.112   7.218  14.390 -1.3687 -2.0668  1.2742
 1033TIP3   OH227293   0.681   3.454  15.186 -0.3065  0.0583  0.0727
 1033TIP3    H127294   0.620   3.390  15.150  1.5514 -1.2567 -0.8762
 1033TIP3    H227295   0.731   3.485  15.111  0.9401  0.2675  0.9622
 1034TIP3   OH227296   7.314   8.007  14.555 -0.0792 -0.2201  0.0254
 1034TIP3    H127297   7.291   8.084  14.608 -0.3282 -0.5165  0.3588
 1034TIP3    H227298   7.301   7.933  14.615 -1.5277 -0.6629 -0.8004
 1035TIP3   OH227299   1.926   0.730  15.735  0.1744 -0.0248  0.2851
 1035TIP3    H127300   1.989   0.680  15.684  0.8496 -0.1379  1.2028
 1035TIP3    H227301   1.978   0.784  15.794 -0.5531  1.6082 -0.4961
 1036TIP3   OH227302   4.071   0.704  14.484 -0.1415  0.5697  0.0186
 1036TIP3    H127303   4.069   0.617  14.525 -0.3471  0.3092 -0.5265
 1036TIP3    H227304   4.148   0.702  14.428 -1.9370 -0.5431 -2.6400
 1037TIP3   OH227305   7.129   3.497  15.429 -0.0899 -0.4810  0.8827
 1037TIP3    H127306   7.135   3.429  15.496  2.2439 -0.6255  0.6146
 1037TIP3    H227307   7.184   3.465  15.357  2.4736  2.3057  1.3927
 1038TIP3   OH227308   3.837   6.677  15.570 -0.2166  1.1071  0.0527
 1038TIP3    H127309   3.913   6.735  15.576  0.6579 -0.1409  2.7116
 1038TIP3    H227310   3.767   6.726  15.612  0.3346  0.6012  1.6402
 1039TIP3   OH227311   7.283   5.192  16.000  0.4348  0.4123  0.1149
 1039TIP3    H127312   7.267   5.253  15.928 -0.5240  0.5333  0.4143
 1039TIP3    H227313   7.375   5.205  16.023  0.6123  0.7312 -0.7538
 1040TIP3   OH227314   7.022   0.041  15.498 -0.2464 -0.1611  0.5353
 1040TIP3    H127315   6.988  -0.033  15.449  0.8401  0.6421 -1.5611
 1040TIP3    H227316   7.108   0.013  15.529 -1.1241 -0.8463  2.5600
 1041TIP3   OH227317   7.079   0.312  15.978  0.3783  0.5248  0.0637
 1041TIP3    H127318   7.152   0.367  16.005  1.7923 -1.2878  0.1009
 1041TIP3    H227319   7.104   0.278  15.892 -0.0241 -0.7755  0.4380
 1042TIP3   OH227320   0.686   7.457  15.187  0.0860 -0.4851  0.4297
 1042TIP3    H127321   0.597   7.422  15.196 -0.1255 -0.0498  0.1112
 1042TIP3    H227322   0.676   7.532  15.128  0.4744  0.2990  1.3307
 1043TIP3   OH227323   2.568   6.519  14.021  0.6184 -0.0490 -0.1582
 1043TIP3    H127324   2.561   6.607  13.985 -0.0253  0.8105  1.9330
 1043TIP3    H227325   2.660   6.510  14.045  0.5697  0.2899  0.1645
 1044TIP3   OH227326   2.280   3.732  15.070  0.2048 -0.3846  0.6603
 1044TIP3    H127327   2.363   3.704  15.033  0.2119 -0.6676  0.8886
 1044TIP3    H227328   2.228   3.651  15.076 -0.1558 -0.1817  0.3406
 1045TIP3   OH227329   3.178   4.014  14.603  0.3129  0.3466 -0.0904
 1045TIP3    H127330   3.193   4.017  14.698  0.6466  1.6369 -0.1664
 1045TIP3    H227331   3.162   4.105  14.578 -1.3147 -0.1444 -1.0522
 1046TIP3   OH227332   2.000   6.832  15.460  0.1653 -0.5383 -0.0272
 1046TIP3    H127333   1.967   6.748  15.491 -2.5507  0.4337 -0.0050
 1046TIP3    H227334   2.075   6.810  15.405 -0.9763 -3.0588 -0.7101
 1047TIP3   OH227335   7.784   8.203  15.918 -0.1512  0.2237  0.5996
 1047TIP3    H127336   7.793   8.166  16.006  1.5311  1.3029  0.9238
 1047TIP3    H227337   7.859   8.169  15.870 -1.5291 -1.0771 -0.7371
 1048TIP3   OH227338   5.499   1.082  15.265 -0.0714  0.0535  0.1194
 1048TIP3    H127339   5.499   1.116  15.355 -1.3653  1.2266 -0.2844
 1048TIP3    H227340   5.592   1.075  15.242  0.3009 -1.0439  1.8084
 1049TIP3   OH227341   0.918   0.354  14.650 -0.2419  0.1198  0.4419
 1049TIP3    H127342   0.833   0.388  14.621 -0.0124  0.9161  0.6683
 1049TIP3    H227343   0.897   0.300  14.726 -0.6509 -0.5167 -0.1137
 1050TIP3   OH227344   1.547   4.908  14.850 -0.0681 -0.8446  0.5196
 1050TIP3    H127345   1.614   4.917  14.782  1.4907 -3.3459  1.5812
 1050TIP3    H227346   1.464   4.915  14.802  0.7671  3.1436 -0.7321
 1051TIP3   OH227347   5.658   7.890  15.580  0.2938 -0.6802 -0.0233
 1051TIP3    H127348   5.569   7.924  15.583 -0.6294 -2.9902  1.6442
 1051TIP3    H227349   5.683   7.879  15.672  3.2966  2.0820 -0.3025
 1052TIP3   OH227350   1.910   4.494  14.844 -0.7209 -0.9989 -0.0270
 1052TIP3    H127351   1.916   4.437  14.768  0.2117  0.4394 -1.0885
 1052TIP3    H227352   1.996   4.489  14.886 -0.7589 -0.6734  0.0955
 1053TIP3   OH227353   1.540   2.490  14.304 -0.0810  0.6221  0.0287
 1053TIP3    H127354   1.503   2.459  14.222  0.6493 -0.6921  0.1873
 1053TIP3    H227355   1.502   2.433  14.371  0.2247  0.9398  0.4818
 1054TIP3   OH227356   0.436   0.366  15.266  0.0020 -0.1341 -0.2798
 1054TIP3    H127357   0.377   0.404  15.201 -0.2405  0.1521  0.1071
 1054TIP3    H227358   0.523   0.371  15.225  0.1120  1.6433  0.1055
 1055TIP3   OH227359   5.267   4.497  15.253  0.1826  0.5107 -0.2242
 1055TIP3    H127360   5.337   4.475  15.314  0.2530 -0.2829 -0.5855
 1055TIP3    H227361   5.252   4.417  15.203 -2.1871  0.0736  1.0149
 1056TIP3   OH227362   4.259   2.638  14.420 -0.0111 -0.1933 -0.5634
 1056TIP3    H127363   4.292   2.550  14.439 -0.3307 -0.6089 -1.8794
 1056TIP3    H227364   4.204   2.628  14.343  0.4731  1.2697 -1.1462
 1057TIP3   OH227365   0.023   3.829  15.424 -0.2460 -0.7267  0.5560
 1057TIP3    H127366   0.098   3.888  15.431  0.4096 -1.3490 -0.7371
 1057TIP3    H227367   0.033   3.768  15.497 -0.3945  0.1518  1.3298
 1058TIP3   OH227368   3.339   6.012  15.597 -0.6203 -0.3534 -0.1432
 1058TIP3    H127369   3.375   6.100  15.605 -0.9835 -0.2098 -0.0676
 1058TIP3    H227370   3.245   6.025  15.590 -0.7091 -0.7537  0.2461
 1059TIP3   OH227371   1.818   7.525  15.949 -0.1626 -0.1351 -0.8173
 1059TIP3    H127372   1.787   7.615  15.945 -2.0560 -0.7630 -2.0898
 1059TIP3    H227373   1.760   7.482  16.011  0.6012 -0.5434 -0.3684
 1060TIP3   OH227374   1.551   1.167  15.778 -0.2100  0.0932 -0.1554
 1060TIP3    H127375   1.490   1.181  15.705 -0.5317 -1.5025 -0.2502
 1060TIP3    H227376   1.614   1.103  15.744 -0.0101 -0.2123  0.7571
 1061TIP3   OH227377   0.835   2.375  15.892  0.6059  0.1732  0.1339
 1061TIP3    H127378   0.927   2.403  15.888  1.3786 -1.9812  1.2806
 1061TIP3    H227379   0.839   2.280  15.885 -1.5122  0.0164  0.6034
 1062TIP3   OH227380   4.876   4.698  15.140 -0.1407 -0.2256 -0.0517
 1062TIP3    H127381   4.955   4.700  15.194  0.4846  0.4465 -0.9616
 1062TIP3    H227382   4.869   4.607  15.112 -0.0665 -0.4289  0.5762
 1063TIP3   OH227383   5.297   1.445  14.668  0.3433 -0.3660 -0.1597
 1063TIP3    H127384   5.332   1.356  14.675  2.7864  0.4886 -0.4465
 1063TIP3    H227385   5.280   1.472  14.758  0.3938 -0.8538 -0.0042
 1064TIP3   OH227386   6.874   5.980  14.593  0.1912  0.0981  0.2723
 1064TIP3    H127387   6.887   6.030  14.673 -1.0807 -0.5799  0.9381
 1064TIP3    H227388   6.920   5.897  14.609 -1.4341 -0.7092  1.0217
 1065TIP3   OH227389   0.896   8.132  16.198  0.5616  0.1554  0.1052
 1065TIP3    H127390   0.955   8.062  16.226  1.2706 -0.1841 -2.0289
 1065TIP3    H227391   0.824   8.130  16.261  1.4431 -1.3047  1.1225
 1066TIP3   OH227392   2.778   5.618  15.375  0.6402  0.3620  0.3105
 1066TIP3    H127393   2.699   5.622  15.430  0.0010  2.4283 -0.6441
 1066TIP3    H227394   2.744   5.615  15.286  1.6778 -1.8267 -0.0870
 1067TIP3   OH227395   0.807   7.843  14.778  0.1330  0.4669  0.1785
 1067TIP3    H127396   0.846   7.768  14.822 -0.1829  0.6987  0.8682
 1067TIP3    H227397   0.866   7.862  14.705  2.8186  2.4028  2.6109
 1068TIP3   OH227398   2.956   2.928  15.642 -0.6330 -0.1850 -0.1965
 1068TIP3    H127399   2.983   2.912  15.733 -0.4938  3.0018  0.4312
 1068TIP3    H227400   3.016   2.996  15.611 -1.9461  0.2162 -1.9827
 1069TIP3   OH227401   8.405   2.301  15.385  0.1640  0.1600  0.2054
 1069TIP3    H127402   8.409   2.272  15.294 -0.4305 -4.2461  1.3682
 1069TIP3    H227403   8.496   2.302  15.414  0.2787  0.5978 -0.1625
 1070TIP3   OH227404   3.081   7.018  15.767  0.2251  0.1118 -0.2614
 1070TIP3    H127405   3.048   7.102  15.797 -1.2830 -0.5521  0.0407
 1070TIP3    H227406   3.083   7.026  15.672  1.0415  0.8071 -0.1984
 1071TIP3   OH227407   2.321   6.197  15.131  0.1312  0.0353 -0.3770
 1071TIP3    H127408   2.347   6.148  15.053  1.2250  1.8372 -1.2075
 1071TIP3    H227409   2.226   6.186  15.136 -0.0239  0.3379 -2.2773
 1072TIP3   OH227410   8.229   3.290  15.764 -0.5430 -0.6127  0.1375
 1072TIP3    H127411   8.273   3.229  15.705  1.6107  0.3515  0.6338
 1072TIP3    H227412   8.288   3.298  15.839 -1.7808  0.4731  1.0484
 1073TIP3   OH227413   5.464   0.786  14.869  0.7604 -0.0211 -0.0951
 1073TIP3    H127414   5.447   0.879  14.879  1.1617 -0.0221  0.6928
 1073TIP3    H227415   5.551   0.773  14.908  0.3939 -0.8360  0.4737
 1074TIP3   OH227416   1.068   1.911  15.124  0.2060 -0.6600 -0.0061
 1074TIP3    H127417   0.974   1.927  15.126  0.0983 -1.3476  2.0339
 1074TIP3    H227418   1.107   1.998  15.134 -0.1765 -0.3796 -0.8070
 1075TIP3   OH227419   6.563   1.812  14.728  0.3794  0.5005 -0.1361
 1075TIP3    H127420   6.565   1.810  14.633 -0.2024 -2.3883 -0.1889
 1075TIP3    H227421   6.636   1.868  14.753  2.5523 -1.1869 -2.2752
 1076TIP3   OH227422   7.864   6.726  15.810 -0.0655  0.0544 -0.1146
 1076TIP3    H127423   7.851   6.632  15.796 -0.1423  0.2057 -1.1476
 1076TIP3    H227424   7.801   6.749  15.878 -0.5204 -0.5076 -0.3365
 1077TIP3   OH227425   4.915   5.658  15.285 -0.1283  0.4937  0.5693
 1077TIP3    H127426   4.980   5.616  15.340  0.8179  0.5885 -0.4549
 1077TIP3    H227427   4.880   5.588  15.231 -0.8855  0.4461  1.0974
 1078TIP3   OH227428   6.015   8.368  14.223  0.2309  0.7366  0.1688
 1078TIP3    H127429   5.945   8.403  14.167  0.6590  2.2626  0.5350
 1078TIP3    H227430   6.079   8.332  14.162 -0.2101  0.6114 -0.2277
 1079TIP3   OH227431   4.424   3.340  14.709  0.4730 -0.0321  0.0843
 1079TIP3    H127432   4.341   3.388  14.699  1.0229  0.9956  0.2432
 1079TIP3    H227433   4.428   3.319  14.802  0.8374  0.7959  0.2675
 1080TIP3   OH227434   0.770   0.410  15.493  0.6525 -0.6988 -0.1908
 1080TIP3    H127435   0.819   0.337  15.533 -0.9089 -1.3999  0.5232
 1080TIP3    H227436   0.723   0.450  15.566 -0.3760 -0.4808 -0.9580
 1081TIP3   OH227437   8.049   6.215  15.841  0.1638 -0.1237 -0.4650
 1081TIP3    H127438   7.972   6.200  15.895  0.2109  0.6878 -0.1633
 1081TIP3    H227439   8.041   6.151  15.770 -1.6586  0.9832 -1.3552
 1082TIP3   OH227440   2.199   7.257  14.331  0.2926  0.2306  0.2472
 1082TIP3    H127441   2.226   7.307  14.253 -1.6163  1.9721  0.5850
 1082TIP3    H227442   2.156   7.179  14.295 -0.1052  0.7539 -0.4538
 1083TIP3   OH227443   5.709   2.054  15.472 -0.2109 -0.5030 -0.2661
 1083TIP3    H127444   5.702   2.019  15.383 -1.1949 -0.6783 -0.1335
 1083TIP3    H227445   5.800   2.038  15.497  1.0879  2.3833 -2.4005
 1084TIP3   OH227446   7.794   3.767  15.881  0.4730 -0.5384 -0.2179
 1084TIP3    H127447   7.852   3.696  15.854  3.0272  1.0811  0.6823
 1084TIP3    H227448   7.812   3.838  15.820 -1.8818 -0.4854 -0.9650
 1085TIP3   OH227449   8.063   0.461  15.800  0.2511 -0.2711 -0.3758
 1085TIP3    H127450   8.095   0.451  15.889  0.3482  0.9081 -0.2568
 1085TIP3    H227451   8.098   0.386  15.753 -1.3559 -1.9632  0.9859
 1086TIP3   OH227452   4.885   6.789  15.546  0.0783 -0.3022 -0.4761
 1086TIP3    H127453   4.931   6.794  15.462  0.1524 -0.9457 -0.4806
 1086TIP3    H227454   4.954   6.773  15.610 -0.0569 -0.5384 -0.3877
 1087TIP3   OH227455   0.304   6.070  14.787  0.0479  0.0101  0.5911
 1087TIP3    H127456   0.236   6.131  14.760  0.0024  0.0212  0.7307
 1087TIP3    H227457   0.346   6.043  14.705  0.7373  0.9935  0.6014
 1088TIP3   OH227458   5.826   1.762  16.107 -0.8013  0.0976  0.0116
 1088TIP3    H127459   5.885   1.767  16.032 -0.5497  0.6760  0.2464
 1088TIP3    H227460   5.862   1.823  16.171 -1.0718 -0.3128  0.5664
 1089TIP3   OH227461   7.896   7.869  14.625 -0.2673  0.5209 -0.1676
 1089TIP3    H127462   7.834   7.811  14.581 -0.7693 -0.4195  1.6895
 1089TIP3    H227463   7.850   7.899  14.703  1.2255  0.6875  0.6838
 1090TIP3   OH227464   3.263   8.044  14.958  0.5907 -0.6809  0.6137
 1090TIP3    H127465   3.335   8.046  15.021  1.3511 -0.7850 -0.2427
 1090TIP3    H227466   3.292   8.101  14.887 -1.4847  1.8573  1.6291
 1091TIP3   OH227467   2.478   0.014  15.752 -0.0757 -0.2107  0.3808
 1091TIP3    H127468   2.543  -0.053  15.733  0.3027 -0.1663  1.5081
 1091TIP3    H227469   2.405  -0.006  15.692 -0.1518 -1.8780  0.9991
 1092TIP3   OH227470   1.180   4.931  16.173 -0.1171 -0.5780 -0.0450
 1092TIP3    H127471   1.163   5.007  16.116 -0.8275 -1.2362 -0.7251
 1092TIP3    H227472   1.267   4.901  16.147  0.3246  0.2041  0.4748
 1093TIP3   OH227473   5.610   0.573  16.204 -0.2829  0.4832  0.1830
 1093TIP3    H127474   5.623   0.623  16.124 -1.1029  0.9360  0.3152
 1093TIP3    H227475   5.624   0.482  16.179  0.1986  0.6903 -0.3023
 1094TIP3   OH227476   3.523   7.086  15.611  0.4312  0.2654 -0.2964
 1094TIP3    H127477   3.569   7.029  15.550  1.1938  0.2730  0.2511
 1094TIP3    H227478   3.461   7.029  15.656  0.0475  0.2084 -0.8856
 1095TIP3   OH227479   1.630   3.557  14.613  0.1016  0.4119  0.4404
 1095TIP3    H127480   1.602   3.519  14.696 -0.0013 -2.0417 -0.6246
 1095TIP3    H227481   1.725   3.551  14.615  0.2299  2.0468  1.0701
 1096TIP3   OH227482   7.204   1.577  15.002  0.1833 -0.2124 -0.7454
 1096TIP3    H127483   7.116   1.586  14.966  0.6614  1.1775 -1.6743
 1096TIP3    H227484   7.260   1.567  14.925  1.0075  0.5761 -0.2640
 1097TIP3   OH227485   0.465   3.438  15.442  0.1437  0.0808 -0.5648
 1097TIP3    H127486   0.551   3.402  15.466  0.0710 -0.4359 -1.0802
 1097TIP3    H227487   0.479   3.533  15.443  1.3556 -0.0029 -2.8250
 1098TIP3   OH227488   1.310   1.286  16.234  0.3644  0.2966  0.1771
 1098TIP3    H127489   1.301   1.197  16.268 -1.8229  0.3092 -0.2368
 1098TIP3    H227490   1.362   1.332  16.300 -0.5547 -0.6695  1.6301
 1099TIP3   OH227491   1.092   7.235  14.494 -0.4075  0.4940 -0.0201
 1099TIP3    H127492   1.177   7.276  14.508  0.2619 -1.0110  0.5936
 1099TIP3    H227493   1.047   7.292  14.433  0.2599  2.3894  1.1826
 1100TIP3   OH227494   8.106   0.718  15.738 -0.1293 -0.4072 -0.6084
 1100TIP3    H127495   8.100   0.706  15.643  1.0499 -0.7289 -0.6527
 1100TIP3    H227496   8.082   0.632  15.774 -0.2467 -0.3797 -0.6185
 1101TIP3   OH227497   4.392   3.506  15.318 -0.5562  0.2322 -0.1416
 1101TIP3    H127498   4.469   3.450  15.313 -0.3510  0.4063  0.7967
 1101TIP3    H227499   4.321   3.454  15.280  0.2171  0.4618 -1.9757
 1102TIP3   OH227500   2.426   7.077  14.556  0.1814  0.3562 -0.0022
 1102TIP3    H127501   2.509   7.035  14.581  0.1885  0.5690  0.3485
 1102TIP3    H227502   2.412   7.143  14.624 -0.7968 -0.3616  0.5268
 1103TIP3   OH227503   3.518   7.662  15.115  0.1780  0.7698 -0.4177
 1103TIP3    H127504   3.443   7.706  15.155 -0.0003  0.9124 -0.9013
 1103TIP3    H227505   3.591   7.722  15.128  0.4858  0.1341  1.0785
 1104TIP3   OH227506   1.248   1.499  15.600 -0.6758 -0.6710  0.6163
 1104TIP3    H127507   1.183   1.569  15.613  0.4006  0.5302 -0.2481
 1104TIP3    H227508   1.206   1.440  15.537 -0.1186  1.3092 -1.7846
 1105TIP3   OH227509   1.378   8.389  14.801  0.2777  0.7026  0.3454
 1105TIP3    H127510   1.405   8.376  14.710  0.3079  0.1503  0.4311
 1105TIP3    H227511   1.289   8.426  14.794 -0.1980 -0.4528  0.1004
 1106TIP3   OH227512   0.001   3.123  15.129 -0.2440  0.3289  0.0114
 1106TIP3    H127513  -0.069   3.164  15.078  0.4428  1.1855 -0.2756
 1106TIP3    H227514   0.080   3.171  15.103  0.4821 -0.7422  0.1846
 1107TIP3   OH227515   6.205   7.585  15.696  0.2965 -0.5720  0.0381
 1107TIP3    H127516   6.286   7.566  15.743  0.8681 -0.1135 -0.7286
 1107TIP3    H227517   6.234   7.606  15.607 -0.7336 -1.1772 -0.4517
 1108TIP3   OH227518   4.806   2.828  15.729 -0.8688 -0.1243 -0.3362
 1108TIP3    H127519   4.901   2.827  15.721 -0.7857 -1.2179  0.5437
 1108TIP3    H227520   4.789   2.795  15.817 -1.9831  3.0310  0.7593
 1109TIP3   OH227521   1.928   3.275  15.343  0.7354  0.1972  0.6013
 1109TIP3    H127522   1.953   3.366  15.326 -1.6891  0.6476 -1.1371
 1109TIP3    H227523   1.964   3.226  15.269 -2.3666  0.7199 -1.4564
 1110TIP3   OH227524   0.821   0.275  14.897  0.3118  0.3195 -0.5751
 1110TIP3    H127525   0.742   0.289  14.949 -1.0881 -1.3004 -2.1249
 1110TIP3    H227526   0.865   0.201  14.939  1.2956  1.4740  0.5270
 1111TIP3   OH227527   7.615   2.856  15.578 -0.0822  0.7377 -0.4852
 1111TIP3    H127528   7.553   2.833  15.508  2.5665 -0.3178 -2.6724
 1111TIP3    H227529   7.656   2.937  15.547  1.1995  0.1968 -0.2692
 1112TIP3   OH227530   1.095   5.151  15.294  0.0735  0.1522 -0.0502
 1112TIP3    H127531   1.045   5.158  15.375 -0.0509 -4.1120  0.4472
 1112TIP3    H227532   1.029   5.138  15.226  0.2889  1.1136 -0.4558
 1113TIP3   OH227533   3.360   6.865  15.685  0.7639  0.5691 -0.2284
 1113TIP3    H127534   3.342   6.835  15.596 -0.5923  2.7110 -0.7250
 1113TIP3    H227535   3.281   6.842  15.735  0.2280  2.1123 -0.3290
 1114TIP3   OH227536   3.420   4.816  13.942 -0.3514  0.4838  0.2847
 1114TIP3    H127537   3.373   4.863  14.011  0.8152  1.2049  0.6056
 1114TIP3    H227538   3.395   4.724  13.956 -2.3281  0.9170 -0.1030
 1115TIP3   OH227539   7.398   3.605  15.081 -0.8182  0.0004  0.1784
 1115TIP3    H127540   7.384   3.561  14.997 -0.0521  0.0573  0.0121
 1115TIP3    H227541   7.384   3.537  15.147 -3.6403  0.4504  0.1556
 1116TIP3   OH227542   1.559   1.448  13.579  0.5591  0.0687 -0.3055
 1116TIP3    H127543   1.557   1.354  13.561 -0.0123  0.5485 -3.0922
 1116TIP3    H227544   1.469   1.471  13.600  0.1249  0.3967 -2.3254
 1117TIP3   OH227545   8.059   4.362  15.055  0.0817 -0.0658  0.1483
 1117TIP3    H127546   7.978   4.346  15.102  0.0772 -1.7207 -0.3382
 1117TIP3    H227547   8.103   4.431  15.104 -1.0690  0.0160  1.0978
 1118TIP3   OH227548   0.539   6.676  14.197 -0.0198  0.2472 -0.2260
 1118TIP3    H127549   0.603   6.636  14.255  0.1017  0.8844  0.0891
 1118TIP3    H227550   0.498   6.603  14.152  1.3982 -0.1425 -0.9336
 1119TIP3   OH227551   4.323   7.337  16.102  0.2046 -0.0114 -0.2243
 1119TIP3    H127552   4.302   7.333  16.009 -0.7933  1.1386 -0.0663
 1119TIP3    H227553   4.250   7.385  16.141  1.3414  0.8310  0.9317
 1120TIP3   OH227554   1.479   7.644  15.469 -0.1346  0.0036  0.0375
 1120TIP3    H127555   1.445   7.731  15.448 -0.8723 -0.0933  0.7654
 1120TIP3    H227556   1.570   7.660  15.496  0.5068  0.2464 -2.0699
 1121TIP3   OH227557   0.248   2.881  14.837 -0.4115 -0.8010 -0.3180
 1121TIP3    H127558   0.263   2.913  14.926 -0.5900  0.5196 -0.7388
 1121TIP3    H227559   0.262   2.958  14.782  0.5768 -1.7968 -1.5223
 1122TIP3   OH227560   0.024   3.158  15.618 -0.1277  0.2539 -0.4042
 1122TIP3    H127561   0.066   3.225  15.565 -0.9964  0.8590 -0.3427
 1122TIP3    H227562   0.096   3.116  15.665  0.9665 -1.6790 -3.4992
 1123TIP3   OH227563   5.540   7.431  14.414  0.6354  0.1154  0.3543
 1123TIP3    H127564   5.580   7.481  14.343  0.5301  0.1632  0.3278
 1123TIP3    H227565   5.606   7.429  14.483  0.5521  0.4864  0.4438
 1124TIP3   OH227566   1.375   1.706  16.085  0.1682 -0.5621 -0.0216
 1124TIP3    H127567   1.447   1.663  16.132  1.3693  1.7466  0.3754
 1124TIP3    H227568   1.412   1.729  16.000 -1.1142 -2.1018 -1.0528
 1125TIP3   OH227569   1.423   4.075  15.135  0.7024  0.1282 -0.0380
 1125TIP3    H127570   1.394   4.046  15.222  0.1767  1.3006  0.1945
 1125TIP3    H227571   1.444   3.994  15.089 -2.6346 -0.8532 -0.1063
 1126TIP3   OH227572   0.612   6.857  15.440 -1.1245  0.4682  0.6156
 1126TIP3    H127573   0.669   6.802  15.494 -2.7363 -0.8811  1.0605
 1126TIP3    H227574   0.586   6.800  15.368 -0.5892  1.6142 -0.5071
 1127TIP3   OH227575   3.751   4.599  15.306  0.6788  0.6235  0.1328
 1127TIP3    H127576   3.771   4.649  15.226 -0.0032  0.1265 -0.3608
 1127TIP3    H227577   3.828   4.612  15.361  1.0929  1.1210 -0.5314
 1128TIP3   OH227578   3.100   3.250  14.884  0.0773 -0.3482  0.5983
 1128TIP3    H127579   3.134   3.162  14.863  0.4915 -0.4044  1.4466
 1128TIP3    H227580   3.166   3.309  14.848 -0.2889 -0.3742 -0.1278
 1129TIP3   OH227581   7.556   2.388  14.707  1.1296  0.6299  0.1400
 1129TIP3    H127582   7.574   2.386  14.801  0.8460  0.7652  0.1987
 1129TIP3    H227583   7.499   2.313  14.691  0.0949  1.3482  0.3141
 1130TIP3   OH227584   2.926   6.796  14.635  0.6840 -0.1811  0.4380
 1130TIP3    H127585   2.884   6.833  14.713  0.9285 -1.2998  1.1322
 1130TIP3    H227586   2.943   6.871  14.578 -0.8268  0.4745  0.8247
 1131TIP3   OH227587   6.353   5.643  14.746 -0.1996  0.4861 -0.2922
 1131TIP3    H127588   6.278   5.584  14.743  0.7684 -0.7504 -1.5208
 1131TIP3    H227589   6.315   5.731  14.748 -1.7300  0.0017 -3.4159
 1132TIP3   OH227590   6.048   3.841  16.202  0.3366 -0.2551  0.2370
 1132TIP3    H127591   5.966   3.854  16.250  0.1449  4.2519 -0.8303
 1132TIP3    H227592   6.022   3.842  16.109  1.4404 -0.5333 -0.0912
 1133TIP3   OH227593   7.917   4.235  15.800  0.1394  0.3845 -0.1667
 1133TIP3    H127594   7.855   4.303  15.772 -0.0650 -0.2363 -1.3058
 1133TIP3    H227595   7.903   4.227  15.894 -1.0860  0.6840 -0.2983
 1134TIP3   OH227596   4.779   8.123  15.556 -0.1812 -0.3869 -0.2244
 1134TIP3    H127597   4.741   8.064  15.620 -1.2101 -0.6898 -1.0891
 1134TIP3    H227598   4.852   8.165  15.602  1.1505 -2.9532  0.1587
 1135TIP3   OH227599   0.129   5.615  15.536 -0.2852  0.4398  0.7606
 1135TIP3    H127600   0.212   5.651  15.570  0.8898 -1.0406 -0.3811
 1135TIP3    H227601   0.111   5.667  15.457 -1.1075  1.5303  1.6349
 1136TIP3   OH227602   4.425   1.828  15.469  0.0401 -0.3482  0.3232
 1136TIP3    H127603   4.518   1.844  15.453  0.5310 -2.0991  1.2250
 1136TIP3    H227604   4.386   1.915  15.471  1.2397  0.3612 -2.3598
 1137TIP3   OH227605   6.262   7.637  14.987  0.3070  0.0209  0.0347
 1137TIP3    H127606   6.339   7.583  15.006 -0.3822 -0.4486  1.6729
 1137TIP3    H227607   6.238   7.613  14.898  1.7816 -0.1475 -0.3540
 1138TIP3   OH227608   8.269   3.063  14.276 -0.2780 -0.0102  0.0784
 1138TIP3    H127609   8.317   2.984  14.302  2.4307  0.9424 -1.6524
 1138TIP3    H227610   8.275   3.065  14.181 -2.3543  1.1283 -0.0982
 1139TIP3   OH227611   5.507   4.866  16.265 -0.0865 -0.7176  0.6237
 1139TIP3    H127612   5.496   4.825  16.351 -0.7563 -0.5899  0.6055
 1139TIP3    H227613   5.424   4.912  16.249  0.4166  0.1459  0.3797
 1140TIP3   OH227614   2.698   2.263  14.876 -0.0056  0.2700  0.3537
 1140TIP3    H127615   2.695   2.185  14.820  2.3016 -1.6857  2.6859
 1140TIP3    H227616   2.775   2.311  14.845  0.3669 -0.0037  0.8492
 1141TIP3   OH227617   3.640   1.473  15.874  0.6859  0.1694  0.2105
 1141TIP3    H127618   3.634   1.564  15.843 -1.0357 -0.6986 -2.3179
 1141TIP3    H227619   3.584   1.471  15.952 -1.6754  0.7328 -1.3613
 1142TIP3   OH227620   2.870   1.769  14.345 -0.5476  0.5292  0.8014
 1142TIP3    H127621   2.934   1.804  14.407 -0.1281  1.6611 -0.2169
 1142TIP3    H227622   2.850   1.844  14.288  0.3296 -0.8688 -1.4573
 1143TIP3   OH227623   4.725   8.394  14.516  0.0760  0.2032 -0.6045
 1143TIP3    H127624   4.692   8.450  14.586  0.8706 -0.4033  0.2793
 1143TIP3    H227625   4.777   8.453  14.461 -0.9326  0.7779 -0.9705
 1144TIP3   OH227626   5.988   7.349  15.046  0.0418 -0.5975 -0.2102
 1144TIP3    H127627   5.984   7.430  15.097 -1.3505 -1.6192  1.4028
 1144TIP3    H227628   5.997   7.379  14.955  1.4840  1.3052  0.4894
 1145TIP3   OH227629   8.007   4.312  15.367  0.0206  0.5327  0.7769
 1145TIP3    H127630   7.952   4.366  15.424  1.9297  1.0104  2.2797
 1145TIP3    H227631   8.066   4.374  15.324 -0.8052  0.0736 -1.1023
 1146TIP3   OH227632   1.940   3.070  15.934 -0.6868  0.3969 -0.5351
 1146TIP3    H127633   1.971   3.029  16.015  1.4622  1.2148 -0.8743
 1146TIP3    H227634   1.845   3.074  15.943 -0.6073 -0.8875  1.2763
 1147TIP3   OH227635   1.457   2.262  14.476 -0.1164  0.3042  0.3149
 1147TIP3    H127636   1.377   2.253  14.423  0.3647  0.9049 -0.5522
 1147TIP3    H227637   1.522   2.209  14.431 -0.3322 -1.2213  1.7358
 1148TIP3   OH227638   0.934   0.946  15.064 -0.0298 -0.2848  0.3046
 1148TIP3    H127639   0.927   0.854  15.038 -2.3692 -0.1641  0.3178
 1148TIP3    H227640   0.862   0.989  15.019  0.4411  1.3795  1.0743
 1149TIP3   OH227641   1.434   4.293  16.437 -0.0694  0.0688  0.2418
 1149TIP3    H127642   1.515   4.344  16.432  1.0534 -1.6592  0.1997
 1149TIP3    H227643   1.447   4.221  16.376 -1.2573 -0.7924  0.9667
 1150TIP3   OH227644   2.199   2.073  15.768 -0.7113  0.3829  0.1489
 1150TIP3    H127645   2.262   2.137  15.799  0.1822 -0.8640  1.0241
 1150TIP3    H227646   2.119   2.123  15.751  0.8251  2.2449 -2.2480
 1151TIP3   OH227647   6.427   1.576  14.834 -0.0745 -0.2372  0.3639
 1151TIP3    H127648   6.351   1.634  14.825  0.7288  0.7257 -0.2873
 1151TIP3    H227649   6.503   1.632  14.819  0.6891 -1.7738 -2.0868
 1152TIP3   OH227650   3.818   0.450  15.038  0.1158 -0.0167  0.1420
 1152TIP3    H127651   3.862   0.526  15.000  0.6624  0.7032  2.0557
 1152TIP3    H227652   3.826   0.464  15.133 -2.7307 -0.7544  0.5793
 1153TIP3   OH227653   6.696   1.156  16.116 -0.1761 -0.4540 -0.4021
 1153TIP3    H127654   6.769   1.212  16.144  1.6031 -2.9181  0.2851
 1153TIP3    H227655   6.697   1.160  16.021 -0.4409  1.0436 -0.3653
 1154TIP3   OH227656   5.845   4.036  15.306 -0.1667 -0.3805  0.1160
 1154TIP3    H127657   5.750   4.042  15.294 -0.0959  1.6388  0.0767
 1154TIP3    H227658   5.859   3.954  15.352 -2.2163  0.3983  2.3496
 1155TIP3   OH227659   2.329   0.558  15.031 -0.7607  0.3176  0.3665
 1155TIP3    H127660   2.234   0.566  15.031 -0.6977  1.3065  1.7740
 1155TIP3    H227661   2.349   0.511  15.111  0.0664  2.3025  1.3886
 1156TIP3   OH227662   2.501   3.713  14.333 -0.2156 -0.4495 -0.2149
 1156TIP3    H127663   2.521   3.801  14.300 -0.6924  0.2526  1.2564
 1156TIP3    H227664   2.586   3.673  14.349  0.0469  0.4410  0.7772
 1157TIP3   OH227665   7.606   3.558  13.892 -0.6548  0.6448  0.1174
 1157TIP3    H127666   7.510   3.553  13.892 -0.7722  2.0471 -1.2146
 1157TIP3    H227667   7.633   3.491  13.829 -0.7739  0.4824  0.2377
 1158TIP3   OH227668   4.140   6.695  15.025  0.4174  0.5249  0.2716
 1158TIP3    H127669   4.049   6.713  15.051  0.2699  0.5404 -0.2433
 1158TIP3    H227670   4.179   6.654  15.102 -0.3108 -0.3864  0.1781
 1159TIP3   OH227671   5.037   1.500  15.791  0.5712 -0.1842  0.4725
 1159TIP3    H127672   5.074   1.464  15.872  0.7939 -0.1375  0.3920
 1159TIP3    H227673   4.963   1.553  15.820  1.1555  0.5182  0.7260
 1160TIP3   OH227674   3.002   0.255  14.858 -0.5408 -0.1163  0.0882
 1160TIP3    H127675   2.972   0.180  14.808 -0.8266 -0.3198  0.5542
 1160TIP3    H227676   3.091   0.233  14.885 -0.2379  0.1662 -0.6603
 1161TIP3   OH227677   5.223   0.536  15.534  0.1267 -0.2668  0.6548
 1161TIP3    H127678   5.146   0.514  15.481  0.2496 -2.7861  1.3880
 1161TIP3    H227679   5.295   0.488  15.493  0.5216 -1.0185  2.1604
 1162TIP3   OH227680   8.299   5.717  15.433  0.2756 -0.5533 -0.0157
 1162TIP3    H127681   8.366   5.773  15.395  0.4162  2.0062  3.5217
 1162TIP3    H227682   8.226   5.719  15.371  1.4924  0.9733 -1.4610
 1163TIP3   OH227683   5.794   4.617  15.707  0.2494 -0.3521 -0.2555
 1163TIP3    H127684   5.858   4.634  15.775  0.1688 -0.7652 -0.0728
 1163TIP3    H227685   5.818   4.531  15.672  0.4719 -0.0088 -0.9557
 1164TIP3   OH227686   1.593   0.246  15.311  0.4621  0.1467  0.3308
 1164TIP3    H127687   1.506   0.285  15.298  0.3623 -0.0242  0.4752
 1164TIP3    H227688   1.654   0.315  15.285  0.2944  0.5944  1.0911
 1165TIP3   OH227689   1.602   2.041  15.988 -0.6796 -0.0520 -0.1727
 1165TIP3    H127690   1.616   2.134  15.971 -0.5077 -0.0930 -0.2685
 1165TIP3    H227691   1.507   2.030  15.989 -0.7063  0.2012  0.2709
 1166TIP3   OH227692   7.927   6.941  14.628  0.3892  0.1837 -0.2014
 1166TIP3    H127693   8.017   6.936  14.594  0.6623 -2.3453  0.6482
 1166TIP3    H227694   7.929   6.887  14.707 -1.8998  0.0688 -0.1702
 1167TIP3   OH227695   1.372   3.409  15.921  0.1069  0.2771  0.7780
 1167TIP3    H127696   1.282   3.436  15.940  0.1646  1.4605 -0.4651
 1167TIP3    H227697   1.373   3.396  15.826  1.4083  0.9856  0.6697
 1168TIP3   OH227698   6.978   6.625  15.235  0.8720 -0.0629 -0.1887
 1168TIP3    H127699   7.059   6.626  15.184  1.7079 -0.1687  1.1062
 1168TIP3    H227700   7.003   6.589  15.320  0.0132  2.2304  1.1215
 1169TIP3   OH227701   0.810   1.224  15.754 -0.1439 -0.4773 -0.3091
 1169TIP3    H127702   0.879   1.160  15.773  1.2557  0.9752 -0.2123
 1169TIP3    H227703   0.729   1.176  15.763  0.8310 -2.0551  0.4969
 1170TIP3   OH227704   2.609   4.802  14.321 -0.0968  0.6159 -0.0040
 1170TIP3    H127705   2.551   4.857  14.375 -0.3293  0.4921 -0.1277
 1170TIP3    H227706   2.550   4.751  14.266  0.1221  0.2533  0.0949
 1171TIP3   OH227707   5.434   8.293  14.457  0.4660 -0.6242 -0.1406
 1171TIP3    H127708   5.381   8.353  14.404 -2.3684 -0.1700  2.8727
 1171TIP3    H227709   5.503   8.347  14.494  0.8840 -0.3744 -1.2595
 1172TIP3   OH227710   5.100   7.394  15.481  0.4865 -0.3556 -0.3305
 1172TIP3    H127711   5.123   7.379  15.573  0.6034 -1.1195 -0.4740
 1172TIP3    H227712   5.060   7.481  15.480  1.1505 -0.0308  0.3202
 1173TIP3   OH227713   3.341   6.336  15.402 -0.1614  0.2842  0.4237
 1173TIP3    H127714   3.400   6.303  15.470 -1.4967  1.2825  2.1571
 1173TIP3    H227715   3.327   6.428  15.425 -2.1397  0.1682 -0.0875
 1174TIP3   OH227716   4.866   6.453  14.084 -0.4125  0.3736  0.2759
 1174TIP3    H127717   4.877   6.547  14.103 -1.1600  0.8218 -1.3810
 1174TIP3    H227718   4.912   6.440  14.001 -0.2052 -0.7763  0.5590
 1175TIP3   OH227719   8.044   3.528  14.617 -0.0001 -0.2368  0.0995
 1175TIP3    H127720   8.095   3.540  14.537  0.9311 -0.7898  0.5853
 1175TIP3    H227721   8.048   3.614  14.660 -0.6591  0.1145 -0.5172
 1176TIP3   OH227722   4.020   5.527  15.678  0.2257  0.6503  0.4253
 1176TIP3    H127723   3.998   5.561  15.765 -0.0010  0.6757  0.3590
 1176TIP3    H227724   3.950   5.561  15.621 -0.9500 -1.2730  0.6476
 1177TIP3   OH227725   2.289   2.220  14.411 -0.2767  0.0542  0.4903
 1177TIP3    H127726   2.215   2.250  14.464 -0.6245  0.4873 -0.2217
 1177TIP3    H227727   2.366   2.237  14.465 -0.4084  2.6116  0.0027
 1178TIP3   OH227728   1.412   1.657  14.671  0.3551 -0.2888 -0.4418
 1178TIP3    H127729   1.348   1.608  14.723 -0.4793  1.9455  0.7577
 1178TIP3    H227730   1.492   1.655  14.724 -0.8786  3.1907  1.8501
 1179TIP3   OH227731   3.637   6.347  14.925  0.3267 -0.6340 -0.2775
 1179TIP3    H127732   3.563   6.339  14.985 -1.2577 -0.9302 -2.1696
 1179TIP3    H227733   3.638   6.263  14.878 -0.0052  0.4119 -2.2732
 1180TIP3   OH227734   3.585   0.822  16.004 -0.0002 -0.4820 -0.4114
 1180TIP3    H127735   3.575   0.865  15.919  0.6992 -1.2596 -0.9007
 1180TIP3    H227736   3.622   0.736  15.983  1.7900 -0.0598  0.7990
 1181TIP3   OH227737   6.558   4.710  15.308  0.4210  0.1588  0.4693
 1181TIP3    H127738   6.524   4.789  15.350 -2.6703 -0.8448  0.0677
 1181TIP3    H227739   6.480   4.659  15.285  2.2732 -3.0222  0.6650
 1182TIP3   OH227740   5.760   4.336  15.869 -0.4084  0.2896  0.0375
 1182TIP3    H127741   5.769   4.312  15.777  1.0587 -0.3639  0.3168
 1182TIP3    H227742   5.678   4.384  15.873 -2.0201 -2.1351 -1.0895
 1183TIP3   OH227743   0.242   4.489  16.449 -0.2854  0.1093 -0.2950
 1183TIP3    H127744   0.238   4.516  16.541 -2.5472  1.3556 -0.6831
 1183TIP3    H227745   0.253   4.394  16.453 -0.2701  0.1539  1.2766
 1184TIP3   OH227746   5.596   3.255  14.158  0.1455 -0.1547  0.0518
 1184TIP3    H127747   5.673   3.300  14.123 -0.6664  1.8275  0.6511
 1184TIP3    H227748   5.532   3.258  14.086  0.3966 -1.2251 -0.2264
 1185TIP3   OH227749   3.470   8.105  15.143  0.0430 -0.1866 -0.4774
 1185TIP3    H127750   3.524   8.183  15.133 -1.9032  1.1096 -1.4494
 1185TIP3    H227751   3.468   8.088  15.237  0.6443  0.8271 -0.2711
 1186TIP3   OH227752   5.580   0.230  14.397  0.3411  0.6661 -0.2043
 1186TIP3    H127753   5.500   0.218  14.347  0.0048 -0.3772  0.5531
 1186TIP3    H227754   5.616   0.314  14.366 -0.1924  0.3684 -1.6838
 1187TIP3   OH227755   1.047   0.490  15.638  0.1209 -0.0231 -0.1644
 1187TIP3    H127756   0.982   0.560  15.641 -0.5344 -0.6314  0.1539
 1187TIP3    H227757   1.117   0.525  15.583  0.2572  1.2604  0.7859
 1188TIP3   OH227758   4.645   4.008  14.495  0.3626  0.1141 -0.2234
 1188TIP3    H127759   4.693   4.072  14.547 -0.0711  0.0616  0.2521
 1188TIP3    H227760   4.709   3.975  14.432  0.8314  0.3611  0.1179
 1189TIP3   OH227761   0.601   0.876  14.145  0.7826  0.7803 -0.2334
 1189TIP3    H127762   0.652   0.943  14.100 -0.0907  0.8669 -1.1272
 1189TIP3    H227763   0.512   0.889  14.115  0.6714 -1.1412 -0.8781
 1190TIP3   OH227764   0.733   3.473  16.044 -0.5533  0.0039  0.1094
 1190TIP3    H127765   0.741   3.396  15.988 -0.8823  0.2870 -0.3411
 1190TIP3    H227766   0.640   3.474  16.069 -0.7362  0.7080 -0.5635
 1191TIP3   OH227767   2.164   1.226  14.239 -0.0104  0.2387  0.6677
 1191TIP3    H127768   2.117   1.146  14.264  0.3416 -0.4588 -0.8111
 1191TIP3    H227769   2.095   1.292  14.233 -0.3300  0.0308  1.7490
 1192TIP3   OH227770   4.610   4.060  15.971 -0.3131  0.5388  0.1038
 1192TIP3    H127771   4.524   4.057  16.013 -0.7355  3.8561 -0.2227
 1192TIP3    H227772   4.603   4.133  15.910  2.2262 -0.2485 -1.2388
 1193TIP3   OH227773   3.985   3.077  13.573 -0.2693 -0.1579 -0.2971
 1193TIP3    H127774   4.067   3.076  13.623 -0.8156  0.2743  0.6253
 1193TIP3    H227775   3.965   2.985  13.559  0.2404 -0.2711 -0.3133
 1194TIP3   OH227776   5.345   7.080  15.409  0.2301 -0.1350 -0.1348
 1194TIP3    H127777   5.374   7.157  15.457 -1.3821  0.5975 -0.2729
 1194TIP3    H227778   5.414   7.065  15.344  0.6993  1.0357  0.0696
 1195TIP3   OH227779   1.255   1.468  15.984 -0.3837  0.3998  0.5815
 1195TIP3    H127780   1.229   1.559  16.001 -1.1467  0.4064 -0.5376
 1195TIP3    H227781   1.248   1.425  16.069 -1.5499  1.0201  0.8245
 1196TIP3   OH227782   2.824   4.748  15.958 -0.0017 -0.4342  0.3782
 1196TIP3    H127783   2.802   4.814  16.023 -1.1342 -0.3130 -0.0911
 1196TIP3    H227784   2.754   4.755  15.893 -0.3870 -2.3292  0.5083
 1197TIP3   OH227785   0.934   5.140  15.079  0.2827  0.5044  0.4629
 1197TIP3    H127786   0.841   5.120  15.088  0.0342  0.8717 -1.0382
 1197TIP3    H227787   0.970   5.065  15.031  0.9979 -0.1235  1.9043
 1198TIP3   OH227788   5.643   5.262  15.399 -0.7859  0.1863 -0.3778
 1198TIP3    H127789   5.607   5.256  15.311 -1.9221 -0.2981  0.1022
 1198TIP3    H227790   5.578   5.312  15.449 -0.1078  0.5502  0.1695
 1199TIP3   OH227791   6.388   0.255  14.882 -0.5071 -0.1805  0.1444
 1199TIP3    H127792   6.438   0.189  14.930 -1.8668 -1.3902 -0.0137
 1199TIP3    H227793   6.417   0.247  14.792 -0.0048  0.0906  0.2801
 1200TIP3   OH227794   4.433   7.401  14.546 -0.2896 -0.2461 -0.0540
 1200TIP3    H127795   4.367   7.388  14.478 -0.0267 -1.7094 -0.0451
 1200TIP3    H227796   4.386   7.446  14.616 -1.0947 -0.5940 -0.3616
 1201TIP3   OH227797   1.363   2.874  13.770  0.4846 -0.2696  0.6907
 1201TIP3    H127798   1.430   2.885  13.838  0.7479  1.6891  0.1813
 1201TIP3    H227799   1.327   2.962  13.758 -1.3518 -1.0553  0.0827
 1202TIP3   OH227800   2.217   7.384  15.092  0.4054  0.4668 -0.7711
 1202TIP3    H127801   2.230   7.289  15.091  2.7949  0.7325 -0.1769
 1202TIP3    H227802   2.214   7.408  14.999  0.6513 -0.1075 -0.9359
 1203TIP3   OH227803   7.826   7.347  15.042  0.0558 -0.2578  0.5141
 1203TIP3    H127804   7.780   7.275  15.086 -0.7932 -0.7671 -1.1136
 1203TIP3    H227805   7.829   7.320  14.950 -0.4425  1.8663 -0.1748
 1204TIP3   OH227806   4.146   2.363  16.303 -0.1403 -0.4506 -0.5688
 1204TIP3    H127807   4.185   2.450  16.292  1.0002 -0.8384  0.1923
 1204TIP3    H227808   4.062   2.380  16.346  0.5441  0.2234  0.5439
 1205TIP3   OH227809   6.967   1.421  14.532 -0.8811 -0.6834 -0.2247
 1205TIP3    H127810   7.009   1.336  14.517 -0.8514 -0.5695 -0.8025
 1205TIP3    H227811   6.877   1.398  14.554 -0.8664 -0.8701 -0.3473
 1206TIP3   OH227812   5.125   5.290  15.060 -0.0856  0.4021 -0.4086
 1206TIP3    H127813   5.100   5.202  15.034  2.1417 -0.0803 -1.1192
 1206TIP3    H227814   5.133   5.285  15.156 -0.0275 -0.1469 -0.4376
 1207TIP3   OH227815   0.292   3.586  15.850 -0.1184  0.0461  0.1981
 1207TIP3    H127816   0.326   3.613  15.935 -0.5011  1.9821 -0.2148
 1207TIP3    H227817   0.343   3.636  15.787 -0.5864 -0.5423 -0.6696
 1208TIP3   OH227818   1.656   8.131  14.446  0.2144  0.1671 -0.2517
 1208TIP3    H127819   1.668   8.187  14.369 -0.0433  0.2955 -0.2002
 1208TIP3    H227820   1.688   8.045  14.419  2.2813  0.7199  0.2237
 1209TIP3   OH227821   1.372   1.746  15.215 -0.1181  0.0866  0.4691
 1209TIP3    H127822   1.458   1.710  15.195  0.4033 -0.4225  3.2780
 1209TIP3    H227823   1.332   1.760  15.129  2.4858 -0.2493 -0.9098
 1210TIP3   OH227824   8.392   1.945  13.787  0.0362 -0.0644  0.0002
 1210TIP3    H127825   8.459   1.990  13.736 -0.6617  0.5553 -0.4104
 1210TIP3    H227826   8.316   1.942  13.728 -0.4679 -0.2365  0.6480
 1211TIP3   OH227827   3.438   7.067  14.171  0.3918 -0.3051 -0.7609
 1211TIP3    H127828   3.480   6.989  14.136  1.9703  0.9328 -1.7865
 1211TIP3    H227829   3.402   7.110  14.094 -0.6367 -0.1091 -0.1816
 1212TIP3   OH227830   6.176   1.394  15.313  0.3919  0.1860 -0.1533
 1212TIP3    H127831   6.114   1.354  15.252 -0.4294  0.6865  0.3233
 1212TIP3    H227832   6.217   1.464  15.262  0.5291 -0.1148 -0.4607
 1213TIP3   OH227833   4.005   5.186  14.988 -0.0180 -0.6018  0.3871
 1213TIP3    H127834   4.041   5.257  15.042  2.2588 -0.5765 -1.0076
 1213TIP3    H227835   3.993   5.225  14.902  1.5364 -1.8987 -0.4819
 1214TIP3   OH227836   0.189   4.420  15.545 -0.0437 -0.3894 -0.7492
 1214TIP3    H127837   0.281   4.440  15.562 -0.4269  2.3921 -1.4846
 1214TIP3    H227838   0.140   4.481  15.601 -1.4226 -0.6702 -1.5947
 1215TIP3   OH227839   7.979   3.487  14.928  0.5687 -0.3164  0.2384
 1215TIP3    H127840   8.031   3.565  14.911  2.0691 -1.1145  1.0145
 1215TIP3    H227841   7.889   3.519  14.933  1.1186  1.3039  0.2287
 1216TIP3   OH227842   6.672   0.091  15.645  0.7221  0.1799  0.2626
 1216TIP3    H127843   6.737   0.060  15.708  0.1502  0.6787  1.1199
 1216TIP3    H227844   6.682   0.186  15.644 -0.1990  0.2953  0.6561
 1217TIP3   OH227845   4.472   0.414  15.845 -0.0159  0.2830 -0.3806
 1217TIP3    H127846   4.554   0.464  15.840 -1.2687  2.3774 -1.4265
 1217TIP3    H227847   4.495   0.334  15.892  2.6566  0.7209 -0.7999
 1218TIP3   OH227848   0.850   0.672  16.342  0.1243 -0.2692 -0.3408
 1218TIP3    H127849   0.872   0.731  16.414  0.9794 -0.6964 -0.2288
 1218TIP3    H227850   0.859   0.585  16.379  1.9536 -0.5440 -1.2893
 1219TIP3   OH227851   5.827   5.359  15.670  0.2652 -0.1074  0.4542
 1219TIP3    H127852   5.827   5.454  15.675  0.9157 -0.0089 -1.0179
 1219TIP3    H227853   5.903   5.337  15.617  0.3310 -1.4810  1.0684
 1220TIP3   OH227854   5.768   0.689  14.366  0.3049  0.1018 -0.3530
 1220TIP3    H127855   5.857   0.715  14.343  0.3614 -0.0143 -0.2625
 1220TIP3    H227856   5.722   0.772  14.380 -0.1192  0.2419 -2.3061
 1221TIP3   OH227857   2.687   6.348  14.264 -0.3254  0.4274  0.0940
 1221TIP3    H127858   2.750   6.349  14.336  1.4907  0.1764 -1.4133
 1221TIP3    H227859   2.732   6.392  14.192 -1.2485 -1.1438 -1.5312
 1222TIP3   OH227860   3.408   0.132  16.092 -0.3276 -0.0894 -0.4107
 1222TIP3    H127861   3.460   0.206  16.126 -1.1648  0.0907  0.5162
 1222TIP3    H227862   3.473   0.074  16.052  0.3636  1.0953 -1.0741
 1223TIP3   OH227863   7.662   5.286  14.573 -0.2798  0.2194  0.0800
 1223TIP3    H127864   7.620   5.363  14.535 -0.3993 -0.5373 -1.3500
 1223TIP3    H227865   7.629   5.212  14.523  2.3318 -0.4775 -0.7839
 1224TIP3   OH227866   6.681   2.853  14.324 -0.0075 -0.0778 -0.7360
 1224TIP3    H127867   6.650   2.897  14.244 -0.2976  0.1299 -0.5111
 1224TIP3    H227868   6.658   2.761  14.311  0.8045 -0.2030 -1.3062
 1225TIP3   OH227869   1.084   6.511  15.674  0.1783 -0.2887  0.2058
 1225TIP3    H127870   1.153   6.458  15.712 -0.0703 -1.0949 -0.4520
 1225TIP3    H227871   1.033   6.541  15.749  1.7993  1.1676  0.8018
 1226TIP3   OH227872   1.501   5.895  15.032  0.4558  0.1339  0.1370
 1226TIP3    H127873   1.519   5.954  14.959 -2.5549  0.6648 -0.3070
 1226TIP3    H227874   1.484   5.953  15.106 -3.6692  0.1098 -0.5625
 1227TIP3   OH227875   0.925   2.035  13.678  0.6447  0.2511  0.0278
 1227TIP3    H127876   1.000   2.000  13.725 -0.1849 -0.0401  1.1751
 1227TIP3    H227877   0.849   1.993  13.718 -0.1453  0.5688 -1.0709
 1228TIP3   OH227878   0.977   3.089  13.848  0.2423 -0.0746 -0.2540
 1228TIP3    H127879   0.984   3.156  13.916  1.5502 -0.4208 -0.0329
 1228TIP3    H227880   0.888   3.053  13.860 -0.0707  0.8568  0.3284
 1229TIP3   OH227881   6.030   4.134  15.101  0.1901  0.3947 -0.0826
 1229TIP3    H127882   5.964   4.103  15.039 -0.5180 -0.9159  1.2616
 1229TIP3    H227883   6.005   4.094  15.185  1.6045  1.4118  0.8730
 1230TIP3   OH227884   2.788   3.617  14.358  0.3135 -0.3172 -0.2287
 1230TIP3    H127885   2.770   3.601  14.450  0.2667  0.8819 -0.0124
 1230TIP3    H227886   2.841   3.697  14.357 -1.4062  0.8937 -1.3254
 1231TIP3   OH227887   0.949   4.578  15.004  0.1241  0.4646 -0.1563
 1231TIP3    H127888   1.027   4.542  15.046 -1.4292 -1.3670  1.2912
 1231TIP3    H227889   0.920   4.647  15.063  0.2156  0.6446 -0.3200
 1232TIP3   OH227890   7.865   3.971  15.709  0.3992  0.5041 -0.1852
 1232TIP3    H127891   7.775   3.973  15.677  0.9644 -0.2244 -2.0011
 1232TIP3    H227892   7.892   4.063  15.710 -0.2193  0.6866 -0.0688
 1233TIP3   OH227893   7.672   7.207  14.398 -0.1538  0.3755 -0.4535
 1233TIP3    H127894   7.648   7.218  14.306 -1.5480  1.4588  0.0103
 1233TIP3    H227895   7.750   7.151  14.395 -1.7487 -1.9920 -2.1540
 1234TIP3   OH227896   6.209   7.333  14.719  0.1555  0.6848 -0.0585
 1234TIP3    H127897   6.143   7.400  14.735  0.6241  0.7552  1.8232
 1234TIP3    H227898   6.171   7.277  14.651 -1.1645  1.6023 -0.0999
 1235TIP3   OH227899   1.502   7.275  13.857 -0.2344 -0.3846 -0.0502
 1235TIP3    H127900   1.542   7.232  13.933 -0.3657 -0.0175  0.2310
 1235TIP3    H227901   1.416   7.233  13.848  0.1664 -1.1012 -0.5913
 1236TIP3   OH227902   5.459   1.692  15.609  0.2557  0.4244  0.2953
 1236TIP3    H127903   5.426   1.739  15.532 -1.1018 -1.7069 -0.5199
 1236TIP3    H227904   5.523   1.631  15.574  0.3032  0.0703  0.9892
 1237TIP3   OH227905   7.638   3.869  15.581  0.0648 -0.3136  0.8289
 1237TIP3    H127906   7.548   3.842  15.599 -0.6259  2.1729  1.4709
 1237TIP3    H227907   7.633   3.917  15.498  0.7993 -0.1811  0.8508
 1238TIP3   OH227908   6.293   7.940  15.571 -0.3861  0.1276 -0.0515
 1238TIP3    H127909   6.229   7.996  15.615 -1.6886 -0.1138 -1.5477
 1238TIP3    H227910   6.240   7.877  15.521  1.0008 -0.0625 -1.3554
 1239TIP3   OH227911   0.675   5.984  14.064  0.3798  0.1139 -0.6487
 1239TIP3    H127912   0.659   6.062  14.117  1.7971  1.5634 -2.2331
 1239TIP3    H227913   0.766   5.994  14.034  0.5183 -2.0490 -1.0901
 1240TIP3   OH227914   6.893   4.714  15.963  0.3859  0.2405  0.0207
 1240TIP3    H127915   6.870   4.688  16.052  1.5742  1.6481  0.7824
 1240TIP3    H227916   6.899   4.810  15.966  1.4261  0.2642 -1.3165
 1241TIP3   OH227917   4.417   1.735  13.932  0.3733 -0.6821 -0.1831
 1241TIP3    H127918   4.458   1.799  13.874  0.7210 -1.0306 -0.3210
 1241TIP3    H227919   4.412   1.780  14.017  1.1058 -0.6678 -0.1448
 1242TIP3   OH227920   1.368   5.121  15.297 -0.1135 -0.2734 -0.2472
 1242TIP3    H127921   1.274   5.133  15.282 -0.2982 -0.2812  0.8220
 1242TIP3    H227922   1.390   5.044  15.245 -0.7001 -0.2535 -0.5380
 1243TIP3   OH227923   6.434   7.916  14.112 -0.6141  0.3974 -0.3491
 1243TIP3    H127924   6.353   7.965  14.095 -0.0299  1.3417 -0.4671
 1243TIP3    H227925   6.498   7.953  14.051  0.1828  0.3668  0.4476
 1244TIP3   OH227926   5.782   3.400  14.722  0.2632  0.0677  0.0319
 1244TIP3    H127927   5.725   3.381  14.647  1.1883  0.8032 -0.8769
 1244TIP3    H227928   5.860   3.348  14.706 -0.1440 -0.9881  1.3109
 1245TIP3   OH227929   6.194   4.237  16.056 -0.1030  0.4443  0.2400
 1245TIP3    H127930   6.199   4.228  15.961  0.0652 -2.2238  0.4395
 1245TIP3    H227931   6.247   4.315  16.076  1.0708  0.1952 -1.7158
 1246TIP3   OH227932   3.123   1.088  14.110  0.0074  0.1066  0.5719
 1246TIP3    H127933   3.193   1.104  14.172 -0.2671 -0.4974  1.0430
 1246TIP3    H227934   3.168   1.080  14.025  0.4723  0.0363  0.8219
 1247TIP3   OH227935   3.626   2.878  15.066  0.0689  0.7498  0.3717
 1247TIP3    H127936   3.561   2.830  15.118 -0.4290  0.3745 -0.5682
 1247TIP3    H227937   3.668   2.936  15.129 -0.4817  0.2795  1.2060
 1248TIP3   OH227938   4.087   7.258  15.384  0.4986  0.1940  0.4885
 1248TIP3    H127939   4.046   7.324  15.328  0.7858 -0.1170 -0.0911
 1248TIP3    H227940   4.014   7.214  15.426  0.2347 -0.2818 -0.4529
 1249TIP3   OH227941   3.537   0.484  14.806  0.1583  0.4234  0.0783
 1249TIP3    H127942   3.545   0.424  14.880  0.3690 -0.5792 -0.7325
 1249TIP3    H227943   3.590   0.445  14.737 -1.2009  0.5446 -1.1026
 1250TIP3   OH227944   7.994   0.464  14.557  0.6360  0.2162  0.4112
 1250TIP3    H127945   8.049   0.534  14.522  0.6374  0.6942  1.3569
 1250TIP3    H227946   7.944   0.505  14.628 -0.5657 -0.3364 -0.0776
 1251TIP3   OH227947   6.896   5.233  15.386 -0.1566  0.3473 -0.2922
 1251TIP3    H127948   6.846   5.236  15.468 -0.1040  1.5515 -0.2882
 1251TIP3    H227949   6.918   5.325  15.367  0.6773 -0.0038 -1.1421
 1252TIP3   OH227950   7.637   5.066  15.849 -0.4937 -0.1113  0.1998
 1252TIP3    H127951   7.611   4.977  15.873 -1.4512 -0.1198 -0.8059
 1252TIP3    H227952   7.606   5.077  15.759  1.5243  0.4961 -0.4811
 1253TIP3   OH227953   3.560   7.324  14.283 -0.1833  0.1731  0.1855
 1253TIP3    H127954   3.525   7.236  14.269  0.9686  0.1026 -3.2958
 1253TIP3    H227955   3.607   7.318  14.366 -0.9098 -2.2132  0.5123
 1254TIP3   OH227956   5.239   8.192  15.166 -0.2374 -0.1227 -0.1379
 1254TIP3    H127957   5.210   8.101  15.174  3.3102 -1.5352 -1.2395
 1254TIP3    H227958   5.317   8.197  15.222  0.3948  1.8718 -1.1134
 1255TIP3   OH227959   6.412   2.735  14.235  0.0133 -0.3513 -0.6064
 1255TIP3    H127960   6.397   2.797  14.164  0.0325 -2.0683 -2.1841
 1255TIP3    H227961   6.341   2.752  14.297  0.6410  1.9265 -0.4358
 1256TIP3   OH227962   0.251   4.915  13.803 -0.5260 -0.0979  0.4455
 1256TIP3    H127963   0.283   4.882  13.719 -0.2045  0.5455  0.3027
 1256TIP3    H227964   0.295   5.000  13.813  0.2061 -0.6168  1.7444
 1257TIP3   OH227965   7.413   8.065  15.798  0.2531 -0.8477  0.4729
 1257TIP3    H127966   7.326   8.097  15.822  0.2511 -0.8961  0.5304
 1257TIP3    H227967   7.460   8.142  15.767  0.1237 -0.8602  0.2481
 1258TIP3   OH227968   2.580   3.875  15.032  0.0033 -0.1137  0.1484
 1258TIP3    H127969   2.555   3.785  15.053 -0.3585 -0.1079 -0.2616
 1258TIP3    H227970   2.546   3.927  15.104  0.0489 -0.2799  0.2909
 1259TIP3   OH227971   4.245   8.335  15.791  0.2908  0.2887 -0.3116
 1259TIP3    H127972   4.206   8.267  15.846  1.6861 -0.2255  0.0826
 1259TIP3    H227973   4.212   8.417  15.827 -1.4673 -0.1503 -0.8265
 1260TIP3   OH227974   4.505   5.030  15.464 -0.1774  0.1783  0.1804
 1260TIP3    H127975   4.423   4.981  15.467 -2.6288  3.7508 -1.8452
 1260TIP3    H227976   4.539   5.024  15.554 -1.4100 -3.1805  0.5708
 1261TIP3   OH227977   4.404   2.389  14.483 -0.2473 -0.4190  0.2693
 1261TIP3    H127978   4.409   2.375  14.388 -0.0665  1.1215  0.0322
 1261TIP3    H227979   4.453   2.316  14.520  0.5623 -0.4849 -0.8789
 1262TIP3   OH227980   3.121   4.507  14.028  0.0704 -0.3281 -0.6183
 1262TIP3    H127981   3.158   4.582  14.074  2.8784 -0.9077 -1.7348
 1262TIP3    H227982   3.034   4.536  13.999 -0.3428  1.2236  1.9225
 1263TIP3   OH227983   2.021   7.284  15.685 -0.3348 -0.3223  0.2413
 1263TIP3    H127984   1.992   7.196  15.665 -0.4965 -0.6481  1.7387
 1263TIP3    H227985   1.966   7.311  15.759  1.4866 -0.0121  1.5552
 1264TIP3   OH227986   7.624   4.222  16.185 -0.8623  0.2133 -0.2811
 1264TIP3    H127987   7.559   4.264  16.128 -1.0926 -0.3381 -0.4275
 1264TIP3    H227988   7.687   4.184  16.124 -1.2543 -0.6096 -0.1788
 1265TIP3   OH227989   6.068   8.441  15.243  0.1629  0.2556  0.4092
 1265TIP3    H127990   6.099   8.485  15.322  1.6807 -0.0391  0.0099
 1265TIP3    H227991   6.148   8.413  15.198 -0.6967 -2.0547  0.1690
 1266TIP3   OH227992   0.635   3.685  15.357  0.4937  0.4095 -0.3893
 1266TIP3    H127993   0.653   3.627  15.283 -1.9836 -0.3153 -0.5000
 1266TIP3    H227994   0.694   3.654  15.427  1.7583  0.1228 -1.5372
 1267TIP3   OH227995   6.956   1.740  15.141  0.2750 -0.1519  0.9800
 1267TIP3    H127996   6.945   1.835  15.142  2.3789  0.2027 -1.2226
 1267TIP3    H227997   6.887   1.709  15.083  0.5113  0.2121  0.4972
 1268TIP3   OH227998   0.199   2.120  15.423 -0.6867  0.5174 -0.7960
 1268TIP3    H127999   0.276   2.088  15.376 -1.5493 -1.7727 -0.7654
 1268TIP3    H228000   0.229   2.199  15.467  0.7636  1.5407 -3.3667
 1269TIP3   OH228001   6.351   8.378  14.698  0.1741 -0.2386  0.0512
 1269TIP3    H128002   6.398   8.461  14.683 -1.8806  0.4871 -3.7740
 1269TIP3    H228003   6.268   8.404  14.738  0.5718 -0.8182  1.2967
 1270TIP3   OH228004   4.849   1.481  14.735 -0.0810  0.4950  0.1658
 1270TIP3    H128005   4.811   1.524  14.811  0.7427 -1.9375  2.0823
 1270TIP3    H228006   4.808   1.394  14.732 -0.4239  0.6471 -2.4942
 1271TIP3   OH228007   7.030   2.505  15.165 -0.3297  0.5447  0.0424
 1271TIP3    H128008   6.982   2.456  15.232  2.7212 -0.6429  1.5404
 1271TIP3    H228009   6.989   2.478  15.082 -1.5998 -1.0852  1.1338
 1272TIP3   OH228010   2.334   2.535  15.771  0.3875 -0.2345  0.0543
 1272TIP3    H128011   2.309   2.552  15.862  2.8720  0.1161  0.7367
 1272TIP3    H228012   2.259   2.566  15.719 -0.6025  0.6277  1.9153
 1273TIP3   OH228013   2.128   2.947  14.385  0.5335 -0.5525 -0.0889
 1273TIP3    H128014   2.135   2.941  14.290 -1.5002  1.5193 -0.4501
 1273TIP3    H228015   2.034   2.946  14.402  0.8501 -0.3193  1.8655
 1274TIP3   OH228016   7.487   4.286  14.487 -0.4754  0.1863 -0.3188
 1274TIP3    H128017   7.422   4.336  14.536 -0.1077 -0.5525  0.9778
 1274TIP3    H228018   7.538   4.352  14.440 -1.2169  0.8716 -0.1699
 1275TIP3   OH228019   8.203   1.989  15.234 -0.3283 -0.2824  0.2359
 1275TIP3    H128020   8.267   2.011  15.167  0.2092 -0.5276  0.6583
 1275TIP3    H228021   8.128   1.955  15.186 -1.0501  2.0390 -0.4266
 1276TIP3   OH228022   4.741   4.575  14.425 -0.5665 -0.2852 -0.0786
 1276TIP3    H128023   4.683   4.564  14.349 -0.0499  0.9598 -0.6859
 1276TIP3    H228024   4.752   4.487  14.459 -0.7455 -0.8959 -1.5158
 1277TIP3   OH228025   2.954   6.824  15.327  0.1479 -0.5899 -0.1549
 1277TIP3    H128026   3.032   6.872  15.300  0.7005 -0.3676  1.7297
 1277TIP3    H228027   2.980   6.732  15.323  1.0886 -0.4632  2.0207
 1278TIP3   OH228028   8.351   4.014  16.029  0.6121  0.2701  0.7099
 1278TIP3    H128029   8.286   4.023  15.959  0.6885 -0.3594  0.5458
 1278TIP3    H228030   8.396   4.098  16.032  1.4946 -0.0924 -0.9031
 1279TIP3   OH228031   6.576   2.747  15.570 -0.1082  0.0418  0.1855
 1279TIP3    H128032   6.544   2.836  15.586  1.1123  0.5517 -0.0842
 1279TIP3    H228033   6.666   2.759  15.541  0.1910 -1.3199  0.4978
 1280TIP3   OH228034   0.450   2.587  16.059 -0.0499  0.1784  0.0714
 1280TIP3    H128035   0.482   2.497  16.063 -1.0747 -0.2543 -0.8754
 1280TIP3    H228036   0.509   2.631  15.999  1.0126  0.4071  1.2405
 1281TIP3   OH228037   2.052   6.117  15.111 -0.6043 -0.1845  0.0231
 1281TIP3    H128038   2.007   6.038  15.082 -1.2539  0.1714  0.0315
 1281TIP3    H228039   2.056   6.109  15.207 -0.5208 -0.2860  0.0108
 1282TIP3   OH228040   1.207   0.883  15.025 -0.3833 -0.0536 -0.3023
 1282TIP3    H128041   1.166   0.814  15.078  0.6491  0.2548  0.9310
 1282TIP3    H228042   1.147   0.957  15.034  0.2696  0.3224  1.3078
 1283TIP3   OH228043   2.905   3.351  15.061  1.0363 -0.1419 -0.2158
 1283TIP3    H128044   2.913   3.291  15.135  1.2270 -0.4728 -0.5050
 1283TIP3    H228045   2.992   3.351  15.020  1.3421  1.1088  0.3779
 1284TIP3   OH228046   3.395   4.067  14.845 -0.2727 -0.0942 -0.1223
 1284TIP3    H128047   3.300   4.068  14.854 -0.4093 -0.4475 -1.3645
 1284TIP3    H228048   3.414   4.136  14.782  0.5008  1.3803  1.6571
 1285TIP3   OH228049   5.176   3.078  15.874  1.1404 -0.0637 -0.5826
 1285TIP3    H128050   5.258   3.098  15.919  0.2096 -0.1574  1.2379
 1285TIP3    H228051   5.160   3.153  15.817  3.4382 -0.8985 -2.4989
 1286TIP3   OH228052   7.942   3.236  15.106  0.4141  0.7983 -0.0394
 1286TIP3    H128053   7.963   3.151  15.066  1.7119  0.5614  1.0541
 1286TIP3    H228054   7.870   3.270  15.053 -0.3810 -1.1335 -0.3049
 1287TIP3   OH228055   5.025   5.192  13.800  0.1345  0.5028  0.4615
 1287TIP3    H128056   5.010   5.285  13.784 -1.6156  0.4674  1.6559
 1287TIP3    H228057   4.948   5.149  13.763 -0.1379 -0.2507  1.8496
 1288TIP3   OH228058   7.175   4.669  14.323  0.6880  0.1033 -0.2884
 1288TIP3    H128059   7.254   4.717  14.346  0.7148 -0.4919  0.9622
 1288TIP3    H228060   7.130   4.654  14.406  0.4237 -1.5568 -0.6769
 1289TIP3   OH228061   8.279   4.535  16.371  0.1228  0.4117  0.1454
 1289TIP3    H128062   8.298   4.555  16.280  0.0544 -2.0062 -0.4594
 1289TIP3    H228063   8.188   4.561  16.383  0.9560  3.6380  0.5023
 1290TIP3   OH228064   0.176   5.251  16.110 -0.3837 -0.0846  0.3251
 1290TIP3    H128065   0.175   5.343  16.135 -0.7779 -0.4903  1.9364
 1290TIP3    H228066   0.133   5.248  16.025  1.1856  1.4152 -0.5863
 1291TIP3   OH228067   2.892   1.124  15.590  0.4874  0.4931  0.5632
 1291TIP3    H128068   2.904   1.134  15.496 -0.3223  0.3677  0.4386
 1291TIP3    H228069   2.914   1.210  15.627  0.5017  0.6304  0.2314
 1292TIP3   OH228070   5.962   2.228  16.004 -0.3996  0.5463 -0.0486
 1292TIP3    H128071   5.968   2.159  15.938 -1.0824  1.0192 -0.6145
 1292TIP3    H228072   5.899   2.194  16.068  0.5729 -0.0915  0.6068
 1293TIP3   OH228073   6.457   1.362  15.047 -0.0149  0.0652 -0.2101
 1293TIP3    H128074   6.372   1.331  15.016 -2.0120  3.1268  1.6715
 1293TIP3    H228075   6.463   1.452  15.016  1.8474  0.4366  1.0233
 1294TIP3   OH228076   1.129   2.803  14.518  0.2910  0.2873  0.1326
 1294TIP3    H128077   1.143   2.708  14.524 -1.1134  0.0542  0.0288
 1294TIP3    H228078   1.148   2.835  14.606 -1.5518 -0.4587  0.8543
 1295TIP3   OH228079   0.489   7.869  14.368 -0.6789 -0.5283  0.3005
 1295TIP3    H128080   0.478   7.791  14.314  0.1277 -0.8821  0.6328
 1295TIP3    H228081   0.406   7.877  14.415 -1.1845 -0.5285 -0.5654
 1296TIP3   OH228082   0.001   5.232  14.788 -0.4692  0.2200 -0.5979
 1296TIP3    H128083   0.057   5.158  14.811 -1.6539 -1.1674 -1.9396
 1296TIP3    H228084  -0.088   5.200  14.801 -1.0171  1.3808 -1.2983
 1297TIP3   OH228085   7.547   5.701  16.118 -0.2364  0.1869 -0.2215
 1297TIP3    H128086   7.554   5.634  16.186  0.0938  0.8580  0.4196
 1297TIP3    H228087   7.613   5.676  16.053  0.0482  0.0215  0.1309
 1298TIP3   OH228088   4.125   5.224  15.413 -0.2902  0.2862 -0.7792
 1298TIP3    H128089   4.117   5.132  15.387 -1.4679  0.3882 -0.8207
 1298TIP3    H228090   4.097   5.273  15.336  0.7480  0.6978 -0.9013
 1299TIP3   OH228091   8.336   8.214  15.717  0.3662  0.9489 -0.4255
 1299TIP3    H128092   8.398   8.171  15.775  0.4452  0.7503 -0.6572
 1299TIP3    H228093   8.301   8.144  15.662 -0.1546  1.0390 -0.2169
 1300TIP3   OH228094   0.437   4.997  14.253  0.3230 -0.6997  0.1800
 1300TIP3    H128095   0.375   5.050  14.303  2.0776 -0.7674  2.6484
 1300TIP3    H228096   0.478   5.059  14.192  1.1236  0.4667  1.8200
 1301TIP3   OH228097   2.309   4.699  15.442 -0.1064  0.0545  0.4333
 1301TIP3    H128098   2.378   4.744  15.393 -0.8398  1.4042  0.5868
 1301TIP3    H228099   2.337   4.705  15.533 -0.5089  0.7903  0.5166
 1302TIP3   OH228100   1.798   2.330  14.236  0.1407  0.2424 -0.3518
 1302TIP3    H128101   1.707   2.329  14.266  0.4696 -0.7205  0.6976
 1302TIP3    H228102   1.805   2.258  14.174  0.5132 -0.6644  0.7004
 1303TIP3   OH228103   7.339   7.741  16.057 -0.1292 -0.4320  0.1372
 1303TIP3    H128104   7.288   7.682  16.002  0.7759 -1.1526  0.0430
 1303TIP3    H228105   7.274   7.783  16.114 -0.8859 -0.8876 -0.3748
 1304TIP3   OH228106   7.477   5.065  14.063  0.1819  0.0103  0.5605
 1304TIP3    H128107   7.406   5.064  14.127 -0.2737 -0.9883  0.0688
 1304TIP3    H228108   7.436   5.100  13.983  0.0872 -1.0659  0.1235
 1305TIP3   OH228109   0.372   7.175  14.798  0.0639 -0.0776 -0.4152
 1305TIP3    H128110   0.407   7.161  14.710 -0.4090  0.8443 -0.7687
 1305TIP3    H228111   0.279   7.192  14.784 -0.3127 -1.3351  0.4032
 1306TIP3   OH228112   1.812   1.095  14.003  0.0156 -0.1235  0.1397
 1306TIP3    H128113   1.806   1.189  13.986  0.1696 -0.2319 -0.5156
 1306TIP3    H228114   1.887   1.086  14.063 -0.1780  0.1993  0.4302
 1307TIP3   OH228115   8.372   1.145  15.162  0.1222 -0.1597 -0.4025
 1307TIP3    H128116   8.331   1.132  15.077 -0.1249 -0.1823 -0.2791
 1307TIP3    H228117   8.357   1.238  15.182 -0.6824 -0.3847  0.0704
 1308TIP3   OH228118   6.481   1.475  14.366 -0.0853  0.6980 -0.3215
 1308TIP3    H128119   6.389   1.475  14.338 -0.9293 -2.1420  1.9300
 1308TIP3    H228120   6.477   1.481  14.461  1.9303 -0.8698 -0.0683
 1309TIP3   OH228121   4.657   5.302  14.784 -0.2835 -0.1950  0.3877
 1309TIP3    H128122   4.653   5.231  14.848  0.4014  0.1228  0.7915
 1309TIP3    H228123   4.640   5.381  14.835 -0.0693  0.0272  0.1197
 1310TIP3   OH228124   4.594   2.691  14.910 -0.0349  0.1162  0.4532
 1310TIP3    H128125   4.553   2.661  14.829 -1.4048 -0.1101  1.1864
 1310TIP3    H228126   4.523   2.733  14.959  0.2044 -1.5915  2.4306
 1311TIP3   OH228127   7.651   7.580  15.479  0.4017 -0.2661  0.7203
 1311TIP3    H128128   7.736   7.561  15.438  0.7079  1.9903  0.1828
 1311TIP3    H228129   7.643   7.515  15.548  1.2368 -2.3229 -1.0203
 1312TIP3   OH228130   6.175   5.491  14.343  0.4120  0.1405  0.1341
 1312TIP3    H128131   6.178   5.397  14.328 -1.2442  0.1970 -0.7944
 1312TIP3    H228132   6.241   5.528  14.285  0.6783 -0.4072  0.0923
 1313TIP3   OH228133   6.125   3.583  14.766 -0.4254  0.1739 -0.4556
 1313TIP3    H128134   6.119   3.582  14.671  0.9806  1.9294 -0.5910
 1313TIP3    H228135   6.182   3.509  14.787  0.8208  0.9250 -1.1230
 1314TIP3   OH228136   6.314   6.574  15.262  0.5213 -0.3517 -0.0545
 1314TIP3    H128137   6.404   6.548  15.240 -0.0916 -2.0868 -0.6140
 1314TIP3    H228138   6.298   6.536  15.348  0.7589  1.1499  0.6963
 1315TIP3   OH228139   4.079   5.922  14.249 -0.5793  0.0050  0.1670
 1315TIP3    H128140   4.017   5.857  14.216 -1.4377  0.5788  0.6142
 1315TIP3    H228141   4.081   5.990  14.182  1.8414 -1.3349 -1.2936
 1316TIP3   OH228142   2.749   7.222  14.839  0.6308  0.2081  0.1421
 1316TIP3    H128143   2.758   7.127  14.831 -0.6979 -0.2650  2.9349
 1316TIP3    H228144   2.776   7.256  14.754  1.1354 -2.6579 -0.9600
 1317TIP3   OH228145   8.082   5.450  14.297 -0.1433  0.0036 -0.1767
 1317TIP3    H128146   8.086   5.512  14.224  1.6548 -0.3094 -0.4102
 1317TIP3    H228147   8.085   5.363  14.255 -2.5080 -0.2972  0.1500
 1318TIP3   OH228148   6.901   6.355  15.865  0.2831  0.1003  0.5658
 1318TIP3    H128149   6.982   6.343  15.915  1.5661  0.3890 -1.3256
 1318TIP3    H228150   6.898   6.449  15.847  0.8544 -0.1830 -1.3474
 1319TIP3   OH228151   5.203   0.680  15.769  0.0225  0.6813 -0.3442
 1319TIP3    H128152   5.206   0.619  15.843  0.1471 -1.1112 -1.7643
 1319TIP3    H228153   5.235   0.629  15.694  0.1155  2.5009 -1.6056
 1320TIP3   OH228154   1.174   3.784  15.720 -0.4351  0.2799  0.8954
 1320TIP3    H128155   1.226   3.844  15.772 -2.7854  2.0785  1.3598
 1320TIP3    H228156   1.125   3.841  15.660  0.7744 -1.5609 -2.0913
 1321TIP3   OH228157   5.340   3.448  15.724  0.5035  0.7136 -0.3595
 1321TIP3    H128158   5.264   3.470  15.778  1.5262 -0.3421  1.6134
 1321TIP3    H228159   5.327   3.499  15.644 -2.1443  0.7480 -0.0186
 1322TIP3   OH228160   4.707   1.874  15.107  0.2453  0.1702 -0.7692
 1322TIP3    H128161   4.779   1.931  15.132 -0.6387  1.2028 -0.4874
 1322TIP3    H228162   4.730   1.788  15.144  2.0365  0.0672 -2.0014
 1323TIP3   OH228163   2.139   3.400  15.560  0.1287 -0.4204 -0.0355
 1323TIP3    H128164   2.146   3.488  15.596 -0.0532 -0.4853  0.1597
 1323TIP3    H228165   2.089   3.351  15.625 -0.6137 -0.4206 -0.5807
 1324TIP3   OH228166   0.512   3.631  16.102 -0.2374 -0.4985  0.1011
 1324TIP3    H128167   0.468   3.709  16.067 -2.4017 -2.1297 -1.0449
 1324TIP3    H228168   0.487   3.629  16.195 -0.1941  0.1352  0.1312
 1325TIP3   OH228169   7.941   2.377  15.538  0.0685  0.6036 -0.2423
 1325TIP3    H128170   7.984   2.461  15.528 -1.1670  1.3159  0.1198
 1325TIP3    H228171   8.002   2.313  15.501  1.7061  1.4576  0.8584
 1326TIP3   OH228172   0.326   3.705  14.893  0.4356  0.2207  0.4920
 1326TIP3    H128173   0.417   3.725  14.916  0.9472  1.2642 -2.0219
 1326TIP3    H228174   0.276   3.780  14.925  1.0558  1.4306 -1.2096
 1327TIP3   OH228175   4.749   3.037  15.509  0.4549  0.2292 -0.4758
 1327TIP3    H128176   4.778   3.120  15.548 -0.4216  0.8876 -1.1722
 1327TIP3    H228177   4.757   2.973  15.580  1.0294  0.9352  0.1115
 1328TIP3   OH228178   4.441   3.772  14.705 -0.9468 -0.4260  0.4329
 1328TIP3    H128179   4.441   3.773  14.609 -1.5269 -0.8475  0.4228
 1328TIP3    H228180   4.350   3.789  14.729 -0.3285  2.7326  0.9852
 1329TIP3   OH228181   5.015   2.302  15.176  0.0584  0.5135  0.1274
 1329TIP3    H128182   5.092   2.297  15.233 -1.1909 -0.9795  1.8271
 1329TIP3    H228183   4.962   2.372  15.213  0.2817  1.0994 -0.6409
 1330TIP3   OH228184   3.281   6.668  14.100  0.5430 -0.0200  0.7067
 1330TIP3    H128185   3.217   6.617  14.050 -0.9013  2.0416  0.3263
 1330TIP3    H228186   3.269   6.640  14.190 -0.7855  0.1816  0.6145
 1331TIP3   OH228187   0.920   7.931  15.568  0.5236  0.4194 -0.0720
 1331TIP3    H128188   0.839   7.977  15.548 -0.1484 -0.3763  0.7712
 1331TIP3    H228189   0.918   7.916  15.662  1.9163  0.8679  0.0575
 1332TIP3   OH228190   1.927   8.192  15.265 -0.4847  0.1864 -0.4725
 1332TIP3    H128191   2.015   8.202  15.302  0.1328 -2.1620 -1.1137
 1332TIP3    H228192   1.924   8.256  15.194  0.2880  1.0712  0.2743
 1333TIP3   OH228193   7.198   1.670  15.459  0.2185 -0.5040  0.7135
 1333TIP3    H128194   7.260   1.638  15.524 -0.3104 -0.3659  1.2907
 1333TIP3    H228195   7.225   1.761  15.444  0.3371 -0.5338  0.7458
 1334TIP3   OH228196   3.578   5.217  15.360 -0.5872  0.3095  0.6243
 1334TIP3    H128197   3.615   5.286  15.416 -0.2069  1.0138 -0.4496
 1334TIP3    H228198   3.630   5.139  15.380  0.8578  1.0292 -0.0976
 1335TIP3   OH228199   0.927   3.683  13.835  0.3362  0.0242  0.4167
 1335TIP3    H128200   0.885   3.613  13.885  0.6395 -1.2471 -1.0423
 1335TIP3    H228201   0.859   3.712  13.773  0.8486 -0.4327 -0.3746
 1336TIP3   OH228202   8.154   0.912  15.401 -0.5020 -0.2101  0.4470
 1336TIP3    H128203   8.237   0.959  15.414  0.0513 -1.3704  1.2702
 1336TIP3    H228204   8.087   0.980  15.406  0.4461  0.9240 -1.2943
 1337TIP3   OH228205   5.015   4.160  15.023  0.1235 -0.2122 -0.7568
 1337TIP3    H128206   5.008   4.102  14.948 -1.0561  1.3312 -1.9099
 1337TIP3    H228207   4.934   4.146  15.072  0.4366 -0.4964 -0.3198
 1338TIP3   OH228208   5.649   0.475  13.980  0.0319 -0.4438 -0.5810
 1338TIP3    H128209   5.730   0.434  13.949  0.5521 -0.0816  0.2452
 1338TIP3    H228210   5.581   0.444  13.920  0.5832 -1.6536 -0.6091
 1339TIP3   OH228211   8.224   2.730  15.762 -0.0772 -0.1168 -0.2800
 1339TIP3    H128212   8.211   2.800  15.826  2.1291 -0.2244  0.3901
 1339TIP3    H228213   8.149   2.672  15.773 -1.2467  1.4107  0.1159
 1340TIP3   OH228214   3.027   8.240  14.119  0.4976 -0.5974 -0.2139
 1340TIP3    H128215   3.036   8.330  14.089  2.2154 -0.7760 -0.3363
 1340TIP3    H228216   2.969   8.246  14.195  0.9306  0.6711  0.0395
 1341TIP3   OH228217   2.669   2.380  15.318  0.1193 -0.4962  0.4574
 1341TIP3    H128218   2.576   2.357  15.324 -0.0589  0.0730 -0.0678
 1341TIP3    H228219   2.674   2.469  15.352  0.6695 -0.9455  1.6192
 1342TIP3   OH228220   7.586   7.029  14.168 -0.2650  0.1285  0.0594
 1342TIP3    H128221   7.655   7.093  14.147 -1.1926  0.4555 -2.2398
 1342TIP3    H228222   7.611   6.950  14.121 -0.0718 -0.6882  1.4529
 1343TIP3   OH228223   5.605   7.573  15.058  0.0265  0.5792 -0.4575
 1343TIP3    H128224   5.531   7.556  15.116  0.0376  1.3117 -0.2141
 1343TIP3    H228225   5.645   7.652  15.094  0.5422  0.5543 -0.9684
 1344TIP3   OH228226   3.282   1.417  15.718 -0.2118  0.6542 -0.3323
 1344TIP3    H128227   3.316   1.506  15.710 -0.5800  0.6529 -2.2456
 1344TIP3    H228228   3.339   1.364  15.664 -0.2873 -0.2173  0.4071
 1345TIP3   OH228229   6.887   5.313  13.594  0.0067  0.0806 -0.0203
 1345TIP3    H128230   6.930   5.267  13.522  1.2943 -1.7292  1.7664
 1345TIP3    H228231   6.918   5.268  13.673 -2.7534  0.7524  1.5947
 1346TIP3   OH228232   5.685   3.009  15.564 -0.1374 -0.0109  0.3646
 1346TIP3    H128233   5.716   3.082  15.511  1.3095 -1.0032 -0.2406
 1346TIP3    H228234   5.644   3.050  15.640  1.4677  1.4396  0.5140
 1347TIP3   OH228235   5.535   2.077  14.302 -0.6276 -0.2412 -0.2401
 1347TIP3    H128236   5.587   2.103  14.378 -2.6147  0.1380  1.0824
 1347TIP3    H228237   5.599   2.055  14.235  1.2904  3.5585  0.0503
 1348TIP3   OH228238   0.767   3.792  14.805 -0.1135  0.0069 -0.4139
 1348TIP3    H128239   0.835   3.770  14.869  0.2344 -2.3273 -1.4746
 1348TIP3    H228240   0.811   3.848  14.741 -0.0286  0.9817  0.4691
 1349TIP3   OH228241   4.512   5.464  15.230  0.1045 -0.5069 -0.1060
 1349TIP3    H128242   4.493   5.553  15.259  0.7131 -0.1419 -0.7850
 1349TIP3    H228243   4.457   5.452  15.153 -0.6031 -1.0355  0.4658
 1350TIP3   OH228244   2.772   3.922  14.620  0.5058  0.0912 -0.2602
 1350TIP3    H128245   2.818   4.006  14.618  0.4032  0.1629 -2.3425
 1350TIP3    H228246   2.717   3.923  14.541 -1.8271 -0.6979  1.2619
 1351TIP3   OH228247   3.625   1.734  14.621  0.3615 -0.0897  0.2680
 1351TIP3    H128248   3.632   1.787  14.542  0.2635  0.5037  0.6452
 1351TIP3    H228249   3.558   1.669  14.602  0.7451 -0.3164 -0.3311
 1352TIP3   OH228250   2.511   4.085  15.222 -0.0350 -0.4830 -0.2626
 1352TIP3    H128251   2.471   4.158  15.175  0.7292  0.5105  0.5890
 1352TIP3    H228252   2.489   4.100  15.314  1.3791 -0.4995  0.0984
 1353TIP3   OH228253   4.484   0.557  15.225  0.7154 -0.3937  0.2449
 1353TIP3    H128254   4.400   0.528  15.260 -0.2833  0.4673 -1.3248
 1353TIP3    H228255   4.467   0.574  15.133  1.7283  3.0639  0.5526
 1354TIP3   OH228256   2.393   0.589  15.971 -0.4915 -0.3450  0.0032
 1354TIP3    H128257   2.468   0.634  15.933  0.6111 -0.7854  1.5337
 1354TIP3    H228258   2.383   0.509  15.919  0.1424 -0.3155 -0.1612
 1355TIP3   OH228259   6.303   3.700  15.186  0.1977 -0.3326  0.0509
 1355TIP3    H128260   6.258   3.640  15.127  3.0562 -3.4547  0.7278
 1355TIP3    H228261   6.362   3.750  15.130 -0.7368  0.4536 -0.2649
 1356TIP3   OH228262   0.576   3.857  15.000  0.1765  0.1801 -0.2742
 1356TIP3    H128263   0.644   3.817  14.946  0.5694  1.1092 -0.4822
 1356TIP3    H228264   0.595   3.827  15.089  1.0809  0.7147 -0.2735
 1357TIP3   OH228265   1.569   1.733  16.359  0.3125  0.4216 -0.1659
 1357TIP3    H128266   1.559   1.658  16.300 -1.4003 -0.6057  1.3502
 1357TIP3    H228267   1.640   1.707  16.418  1.9097  1.3802 -1.5615
 1358TIP3   OH228268   3.423   0.678  15.421  0.4141  0.4316  0.5511
 1358TIP3    H128269   3.440   0.591  15.387  1.2652  0.0214  1.9324
 1358TIP3    H228270   3.421   0.734  15.344  0.4085 -0.7220 -0.3096
 1359TIP3   OH228271   0.742   3.274  14.904 -0.0138  0.1646  0.5765
 1359TIP3    H128272   0.779   3.241  14.822  0.0068  0.7509  0.3433
 1359TIP3    H228273   0.764   3.207  14.969  0.3473 -0.0995  0.1887
 1360TIP3   OH228274   4.117   0.903  14.947 -0.0546  0.0742  0.3263
 1360TIP3    H128275   4.033   0.933  14.911 -0.5873 -0.2446  1.2710
 1360TIP3    H228276   4.152   0.979  14.992 -0.0096  0.1035  0.2416
 1361TIP3   OH228277   1.711   8.247  15.419  0.1278  0.1617 -0.3233
 1361TIP3    H128278   1.794   8.253  15.372 -0.2790  0.9488 -0.9645
 1361TIP3    H228279   1.697   8.334  15.457 -0.2792 -0.0359 -0.0081
 1362TIP3   OH228280   8.163   4.052  15.811  0.0364  0.2764 -0.4550
 1362TIP3    H128281   8.123   4.128  15.768  0.0553  0.1347 -0.7218
 1362TIP3    H228282   8.201   4.001  15.740  0.9933  0.5790 -0.1812
 1363TIP3   OH228283   2.389   7.056  13.940  0.2639  0.0742 -0.7519
 1363TIP3    H128284   2.424   6.995  14.005 -0.1419 -0.4281 -1.0069
 1363TIP3    H228285   2.296   7.064  13.961 -0.4230 -1.9378 -2.6872
 1364TIP3   OH228286   7.308   8.367  15.564  0.1153 -0.0029  0.2164
 1364TIP3    H128287   7.288   8.287  15.515  0.6778  0.1954 -0.3594
 1364TIP3    H228288   7.392   8.396  15.528 -0.1608  0.9266  0.3096
 1365TIP3   OH228289   4.179   2.025  16.019  0.2445  0.1456 -0.0432
 1365TIP3    H128290   4.235   2.091  16.061 -0.5509  0.4483  0.5720
 1365TIP3    H228291   4.212   2.019  15.930  0.9948  0.6178  0.1950
 1366TIP3   OH228292   2.279   1.601  15.750  0.0893  0.2281  0.1862
 1366TIP3    H128293   2.331   1.602  15.830  1.5469  0.4334 -0.7363
 1366TIP3    H228294   2.283   1.690  15.716  0.9380 -0.2376 -1.0038
 1367TIP3   OH228295   7.695   4.128  15.302  0.5274  0.4633 -0.2005
 1367TIP3    H128296   7.646   4.141  15.383  1.9083  0.9610  0.5902
 1367TIP3    H228297   7.629   4.126  15.233 -0.8403 -1.6610  1.0866
 1368TIP3   OH228298   1.211   6.846  14.851  0.1596  0.1384 -0.3620
 1368TIP3    H128299   1.138   6.784  14.845  1.2489 -1.3216  0.5457
 1368TIP3    H228300   1.176   6.928  14.817 -1.2404 -1.0566 -1.9714
 1369TIP3   OH228301   2.654   4.919  14.760  0.1347 -0.4540 -0.4177
 1369TIP3    H128302   2.647   4.996  14.818  2.3347  0.8214 -1.6807
 1369TIP3    H228303   2.567   4.911  14.720 -0.0935  1.5971 -0.4597
 1370TIP3   OH228304   5.570   6.786  14.315  0.4257 -0.3586 -0.4736
 1370TIP3    H128305   5.524   6.712  14.355  0.3859 -0.6882 -1.1143
 1370TIP3    H228306   5.645   6.802  14.372  0.4335 -0.8940 -0.3284
 1371TIP3   OH228307   1.596   4.649  15.054 -0.4492  0.0768 -0.5252
 1371TIP3    H128308   1.682   4.686  15.070 -0.2930 -1.3165  2.5715
 1371TIP3    H228309   1.536   4.722  15.067  0.1488  1.0508 -2.6875
 1372TIP3   OH228310   4.700   6.906  14.867  0.4420 -0.5954  0.6107
 1372TIP3    H128311   4.676   6.824  14.824  1.2221 -0.6024  0.1656
 1372TIP3    H228312   4.667   6.974  14.808 -0.3447 -0.5810  1.0587
 1373TIP3   OH228313   7.764   8.260  15.511  0.1329  0.3257  0.0470
 1373TIP3    H128314   7.714   8.258  15.429 -0.8636 -3.0686  0.5686
 1373TIP3    H228315   7.700   8.286  15.577 -0.4307 -1.7118  0.3698
 1374TIP3   OH228316   7.680   2.355  14.946 -0.3734  0.6212  0.2827
 1374TIP3    H128317   7.745   2.417  14.980 -1.8132  1.7001  1.1543
 1374TIP3    H228318   7.628   2.331  15.023  0.6912 -2.4509  0.1859
 1375TIP3   OH228319   7.743   6.827  14.082 -0.1017  0.2141  0.6765
 1375TIP3    H128320   7.829   6.786  14.068 -0.4878 -0.4007  0.0748
 1375TIP3    H228321   7.680   6.760  14.057 -0.8498 -0.4404  3.8935
 1376TIP3   OH228322   3.795   8.113  14.949  0.0225  0.2856 -0.2852
 1376TIP3    H128323   3.723   8.050  14.959 -0.0436  0.1830 -1.2969
 1376TIP3    H228324   3.851   8.097  15.026  0.5867 -1.7928 -1.0508
 1377TIP3   OH228325   2.739   8.168  14.667  0.3081  0.2864 -0.0736
 1377TIP3    H128326   2.719   8.140  14.756 -0.7049 -1.0349 -0.6875
 1377TIP3    H228327   2.663   8.140  14.616  1.1934  0.3848 -1.4809
 1378TIP3   OH228328   7.728   2.226  16.102 -0.6415 -0.3841 -1.1240
 1378TIP3    H128329   7.733   2.147  16.155 -2.1027 -1.3671 -2.3630
 1378TIP3    H228330   7.812   2.229  16.055  0.0481 -0.3163  0.0922
 1379TIP3   OH228331   6.369   5.835  15.346  0.0829  0.0648 -0.1374
 1379TIP3    H128332   6.458   5.843  15.381  0.1276 -1.6446  0.2389
 1379TIP3    H228333   6.314   5.878  15.412  0.4938 -0.1283  0.3412
 1380TIP3   OH228334   2.041   7.598  14.067  0.4361  0.1663 -0.3829
 1380TIP3    H128335   2.039   7.693  14.062  0.0972  0.1252 -1.3378
 1380TIP3    H228336   2.076   7.578  14.154  0.4100  1.1574 -0.1415
 1381TIP3   OH228337   4.766   1.628  15.212  0.2280  0.0159 -0.4935
 1381TIP3    H128338   4.721   1.566  15.269 -1.9225  0.8007 -1.2056
 1381TIP3    H228339   4.839   1.661  15.265 -1.6640  0.7224  1.8592
 1382TIP3   OH228340   4.089   8.136  15.897 -0.4478  0.0474  0.2057
 1382TIP3    H128341   4.163   8.078  15.910 -0.2072  0.3992  0.4355
 1382TIP3    H228342   4.033   8.091  15.834  0.3817  0.1645 -0.6229
 1383TIP3   OH228343   6.235   1.855  15.555 -0.3509  0.1143 -0.2861
 1383TIP3    H128344   6.315   1.841  15.505  0.4893  2.0283  0.4293
 1383TIP3    H228345   6.236   1.948  15.577 -1.6506 -0.2585  1.6337
 1384TIP3   OH228346   7.308   1.208  14.969  0.0644  0.0221 -0.4894
 1384TIP3    H128347   7.306   1.275  14.900  0.0131 -0.5088 -1.0060
 1384TIP3    H228348   7.363   1.139  14.935 -0.5101 -0.5541 -0.2801
 1385TIP3   OH228349   2.768   1.104  15.266  0.0536 -0.2318 -0.2444
 1385TIP3    H128350   2.718   1.071  15.191  0.1968 -0.6193 -0.1753
 1385TIP3    H228351   2.815   1.180  15.233  0.0057 -0.3166 -0.5101
 1386TIP3   OH228352   7.836   3.722  14.201 -0.2035 -0.1564 -0.8591
 1386TIP3    H128353   7.793   3.653  14.252 -1.2532  1.5543  0.7235
 1386TIP3    H228354   7.765   3.764  14.152 -0.2635  1.8668  0.7843
 1387TIP3   OH228355   6.535   8.202  14.177  0.1629 -0.6166 -0.0701
 1387TIP3    H128356   6.506   8.285  14.216  1.6219 -0.3825  0.5835
 1387TIP3    H228357   6.581   8.157  14.248 -1.4135 -2.4488 -0.1283
 1388TIP3   OH228358   0.112   3.552  16.176  0.7133  0.6002 -0.1952
 1388TIP3    H128359   0.056   3.629  16.169 -0.2813 -0.1300 -0.3913
 1388TIP3    H228360   0.115   3.533  16.270  0.2384  0.3613 -0.2261
 1389TIP3   OH228361   7.929   0.325  14.166  0.3082  0.6638 -0.1248
 1389TIP3    H128362   7.965   0.414  14.170 -0.5344  0.9894  0.4817
 1389TIP3    H228363   7.928   0.295  14.257  0.3006  0.1524 -0.2900
 1390TIP3   OH228364   2.176   2.158  13.610 -0.0766 -0.4184  0.2841
 1390TIP3    H128365   2.095   2.197  13.640 -0.1633  1.0361 -1.6536
 1390TIP3    H228366   2.149   2.094  13.544  0.3039  2.2640 -2.7475
 1391TIP3   OH228367   3.282   1.332  14.947 -0.3037 -0.3997  0.0735
 1391TIP3    H128368   3.219   1.353  14.879 -1.7708 -1.3923  1.0689
 1391TIP3    H228369   3.260   1.390  15.020  1.0932  0.4850 -0.1583
 1392TIP3   OH228370   6.295   0.743  16.128  0.3771 -0.0433 -0.3851
 1392TIP3    H128371   6.350   0.820  16.141  1.3861 -0.6755 -0.7800
 1392TIP3    H228372   6.215   0.762  16.177  1.2138  0.6170  0.7774
 1393TIP3   OH228373   1.897   6.333  15.639  0.2515 -0.2077 -0.0633
 1393TIP3    H128374   1.843   6.301  15.566  0.0615 -0.6471  0.2628
 1393TIP3    H228375   1.937   6.254  15.675  0.9816  0.0964 -0.1910
 1394TIP3   OH228376   7.248   7.533  15.890 -0.2729 -0.4406 -0.3389
 1394TIP3    H128377   7.284   7.474  15.956 -0.2018 -1.2190 -1.0593
 1394TIP3    H228378   7.202   7.476  15.829 -1.9980  0.4591  0.0628
 1395TIP3   OH228379   1.606   4.929  15.560  0.1334 -0.3232 -0.0383
 1395TIP3    H128380   1.631   5.014  15.524 -0.1314 -0.3545 -0.2984
 1395TIP3    H228381   1.640   4.930  15.649  0.4322 -0.0810 -0.1543
 1396TIP3   OH228382   5.757   8.363  14.441 -0.4798 -0.0517 -0.0660
 1396TIP3    H128383   5.770   8.296  14.372 -0.9145  0.6799 -0.8760
 1396TIP3    H228384   5.840   8.410  14.443 -0.0739 -0.7754  0.6996
 1397TIP3   OH228385   1.525   4.216  14.888  0.0007  0.5238 -0.0020
 1397TIP3    H128386   1.483   4.131  14.877  1.0279  0.0526 -0.3882
 1397TIP3    H228387   1.514   4.260  14.803 -0.4047  0.7198  0.1517
 1398TIP3   OH228388   7.739   3.374  15.389 -0.1203  0.1047 -0.0048
 1398TIP3    H128389   7.711   3.452  15.437 -0.2823  1.7533 -2.5767
 1398TIP3    H228390   7.832   3.388  15.372 -0.5800  0.7857 -2.1954
 1399TIP3   OH228391   3.323   1.624  13.741  0.3599 -0.2151 -0.0601
 1399TIP3    H128392   3.263   1.627  13.666  0.6869  0.1689 -0.3119
 1399TIP3    H228393   3.290   1.553  13.795  0.8456 -1.3570 -1.1937
 1400TIP3   OH228394   3.100   1.086  15.243 -0.1609  0.0643  0.2440
 1400TIP3    H128395   3.029   1.144  15.219  1.3116  1.4552 -0.9848
 1400TIP3    H228396   3.142   1.129  15.317  1.4192  1.0683 -1.1651
 1401TIP3   OH228397   7.221   0.954  14.051 -0.2590  0.0938 -0.6601
 1401TIP3    H128398   7.250   0.885  14.110 -0.8493  0.5786  0.2315
 1401TIP3    H228399   7.273   0.942  13.972  1.3903  0.1132  0.3672
 1402TIP3   OH228400   5.031   7.855  15.087  0.3164 -0.9420  0.7538
 1402TIP3    H128401   5.010   7.923  15.151 -0.2233 -0.0347 -0.3591
 1402TIP3    H228402   5.126   7.857  15.081  0.2818  0.0741  0.3692
 1403TIP3   OH228403   0.753   4.207  16.146 -0.9600 -0.2315 -0.7488
 1403TIP3    H128404   0.754   4.132  16.087 -0.9854 -0.8262 -0.0215
 1403TIP3    H228405   0.811   4.181  16.218 -0.4293  0.7316 -0.8143
 1404TIP3   OH228406   2.797   0.822  14.589  0.1650 -0.7461 -0.6112
 1404TIP3    H128407   2.794   0.906  14.544  0.8710 -0.3935 -0.0241
 1404TIP3    H228408   2.708   0.811  14.624  0.5438  0.7240  0.9925
 1405TIP3   OH228409   5.037   4.508  15.653 -0.1774 -0.5086 -0.7857
 1405TIP3    H128410   5.062   4.585  15.704 -0.9546  0.0881 -1.2944
 1405TIP3    H228411   5.069   4.434  15.705  1.8229  0.1689 -0.9691
 1406TIP3   OH228412   1.365   0.813  16.200 -0.8353  0.0511  0.0222
 1406TIP3    H128413   1.421   0.738  16.220  1.3969  1.5458 -0.3300
 1406TIP3    H228414   1.303   0.781  16.135  0.0060 -1.5030 -0.0427
 1407TIP3   OH228415   3.129   1.887  14.509 -0.0156 -0.2693 -0.0772
 1407TIP3    H128416   3.223   1.870  14.506  0.2526  1.2255 -0.8449
 1407TIP3    H228417   3.120   1.977  14.478 -1.5923  0.0225  1.1273
 1408TIP3   OH228418   0.540   3.981  15.420 -0.2453 -0.2711  0.4101
 1408TIP3    H128419   0.557   4.008  15.330 -2.4450 -0.9259 -0.2765
 1408TIP3    H228420   0.540   4.062  15.471 -1.9769  0.5035 -0.7490
 1409TIP3   OH228421   2.175   1.598  15.369 -0.5463 -0.2359  0.1735
 1409TIP3    H128422   2.083   1.612  15.392 -0.7212  0.6446 -0.9583
 1409TIP3    H228423   2.182   1.504  15.354 -1.5257 -0.1834 -0.7523
 1410TIP3   OH228424   1.159   2.767  13.354  0.7784  0.2872 -0.2803
 1410TIP3    H128425   1.166   2.810  13.269 -0.3016  0.3519 -0.3438
 1410TIP3    H228426   1.244   2.784  13.397  1.1630  0.6156 -1.1614
 1411TIP3   OH228427   3.437   2.960  15.977  0.3576 -1.1126 -0.1138
 1411TIP3    H128428   3.374   2.919  15.918 -0.2330 -1.1495  0.5348
 1411TIP3    H228429   3.408   3.051  15.985  0.5033 -1.0773  0.0326
 1412TIP3   OH228430   7.240   6.794  15.379  0.0415  0.0086 -0.1337
 1412TIP3    H128431   7.147   6.813  15.391  0.3604  1.3329  0.4081
 1412TIP3    H228432   7.270   6.765  15.465 -0.0379 -1.3188 -0.5215
 1413TIP3   OH228433   3.074   1.948  15.761  0.7425  0.2671  0.1201
 1413TIP3    H128434   3.105   1.986  15.844 -1.8409  0.0597  1.2720
 1413TIP3    H228435   3.153   1.915  15.720  2.2773  1.3788  1.9759
 1414TIP3   OH228436   0.509   3.562  14.333 -0.0146  0.1548  0.3691
 1414TIP3    H128437   0.586   3.528  14.287 -1.1742  0.3676 -1.8619
 1414TIP3    H228438   0.478   3.488  14.385  1.4605 -0.0461  0.9992
 1415TIP3   OH228439   1.379   5.723  14.631 -0.3101 -0.5270  0.2891
 1415TIP3    H128440   1.407   5.714  14.722 -0.8796  0.8538  0.6215
 1415TIP3    H228441   1.371   5.633  14.600  2.8960 -1.0477  0.6182
 1416TIP3   OH228442   5.020   4.968  15.778 -0.0678 -0.2761  0.1297
 1416TIP3    H128443   4.997   5.048  15.731 -0.2340 -0.1133  0.4834
 1416TIP3    H228444   4.936   4.925  15.796 -0.1299  0.3130  1.4121
 1417TIP3   OH228445   5.441   7.425  15.229 -0.2006  1.1790  0.6056
 1417TIP3    H128446   5.476   7.351  15.279 -0.6294 -0.1460 -0.9876
 1417TIP3    H228447   5.361   7.392  15.189 -1.1571  2.9466  0.9462
 1418TIP3   OH228448   7.587   1.056  13.965  0.4217  0.2025 -0.1633
 1418TIP3    H128449   7.622   0.974  13.929  1.8318  0.8146 -0.2684
 1418TIP3    H228450   7.664   1.111  13.978 -0.1200  0.4109  2.8834
 1419TIP3   OH228451   4.883   0.333  14.877  0.0687 -0.9562 -0.4032
 1419TIP3    H128452   4.933   0.414  14.886  2.0545 -2.3902  2.8966
 1419TIP3    H228453   4.795   0.356  14.909  0.3979  0.0352 -0.1621
 1420TIP3   OH228454   3.822   5.817  15.230 -0.6800  0.0602  0.1664
 1420TIP3    H128455   3.845   5.876  15.159 -1.8717  1.4954  0.9066
 1420TIP3    H228456   3.730   5.795  15.215 -0.4372 -1.1242  0.2648
 1421TIP3   OH228457   7.350   3.427  15.272 -0.3245 -0.0613  0.0386
 1421TIP3    H128458   7.403   3.366  15.324 -0.4958 -0.9539 -0.7961
 1421TIP3    H228459   7.307   3.372  15.206 -0.2917  0.9950 -0.9070
 1422TIP3   OH228460   2.915   7.790  14.449 -0.8104  0.3385 -0.3612
 1422TIP3    H128461   2.829   7.825  14.425 -0.9774 -1.0058 -1.7984
 1422TIP3    H228462   2.928   7.716  14.391  0.6626 -0.4282  0.8914
 1423TIP3   OH228463   1.709   1.310  14.684  0.2558 -0.6396 -0.2952
 1423TIP3    H128464   1.805   1.312  14.686  0.2466 -0.5668  0.1467
 1423TIP3    H228465   1.684   1.284  14.772 -0.0996 -2.2747 -0.8605
 1424TIP3   OH228466   8.044   4.681  14.265  0.3193  0.3950  0.8829
 1424TIP3    H128467   8.093   4.630  14.200 -2.0448 -0.1864 -0.6096
 1424TIP3    H228468   7.960   4.636  14.271  0.1071  1.0280  3.6931
 1425TIP3   OH228469   3.763   5.330  15.534 -0.4012  0.2705  0.6864
 1425TIP3    H128470   3.835   5.288  15.581 -0.4193  0.9175  1.3106
 1425TIP3    H228471   3.796   5.417  15.513 -1.1088  0.6755  1.2407
 1426TIP3   OH228472   2.254   0.604  13.402  0.1279 -0.4646  0.1402
 1426TIP3    H128473   2.349   0.599  13.400  0.1970  0.3726  0.8326
 1426TIP3    H228474   2.228   0.537  13.466  0.2063 -1.0516 -0.4283
 1427TIP3   OH228475   3.449   7.985  13.898  0.1020 -0.4607 -0.1942
 1427TIP3    H128476   3.391   8.039  13.952 -0.8396 -1.9649  0.3782
 1427TIP3    H228477   3.515   7.953  13.960  0.1618 -0.6395 -0.3489
 1428TIP3   OH228478   1.564   1.163  13.586 -0.6987 -0.2025 -0.1981
 1428TIP3    H128479   1.518   1.094  13.540 -0.3502 -0.5584 -0.0143
 1428TIP3    H228480   1.656   1.149  13.565 -0.4258 -0.9534  1.3617
 1429TIP3   OH228481   7.411   7.132  15.490 -0.0971 -0.0226 -0.5649
 1429TIP3    H128482   7.356   7.170  15.558 -0.6375  0.6110 -1.3378
 1429TIP3    H228483   7.385   7.178  15.410  1.2961  0.0313 -1.0108
 1430TIP3   OH228484   6.609   6.477  14.561 -0.0488  0.4687 -0.1356
 1430TIP3    H128485   6.534   6.475  14.621  0.1366  0.5830  0.1057
 1430TIP3    H228486   6.600   6.398  14.508  0.7599 -0.6296  1.2632
 1431TIP3   OH228487   3.395   2.487  13.536  0.1660  0.5364 -0.5767
 1431TIP3    H128488   3.338   2.548  13.583  0.2748  1.4943 -1.6418
 1431TIP3    H228489   3.421   2.534  13.457  0.2240 -0.9237 -1.4678
 1432TIP3   OH228490   2.154   0.895  15.483 -0.5507  0.0629  0.6555
 1432TIP3    H128491   2.207   0.880  15.561  0.4154 -1.6263 -0.2734
 1432TIP3    H228492   2.214   0.939  15.422 -1.0240  0.5327  0.5212
 1433TIP3   OH228493   1.847   1.186  15.072  0.1406 -0.0107  0.2870
 1433TIP3    H128494   1.808   1.118  15.125 -0.6650  1.2067  1.3255
 1433TIP3    H228495   1.941   1.176  15.085 -0.0096 -0.4124  1.0951
 1434TIP3   OH228496   7.384   3.076  14.504 -0.5790 -0.1391 -0.3517
 1434TIP3    H128497   7.455   3.014  14.523 -1.3605 -0.3002  2.6645
 1434TIP3    H228498   7.361   3.060  14.413  2.0800 -1.2760 -0.9202
 1435TIP3   OH228499   2.519   5.609  15.481 -0.1770 -0.3150 -0.1415
 1435TIP3    H128500   2.504   5.696  15.443 -1.4314 -0.7962 -0.8068
 1435TIP3    H228501   2.470   5.610  15.563 -1.6582 -0.9489 -0.9790
 1436TIP3   OH228502   7.490   6.815  14.826 -0.2383 -0.0130 -0.0035
 1436TIP3    H128503   7.429   6.875  14.783 -0.7477 -0.8505 -0.4655
 1436TIP3    H228504   7.564   6.808  14.765 -0.2522  0.0093 -0.0221
 1437TIP3   OH228505   0.278   4.655  14.905 -0.1418 -0.1515  0.1931
 1437TIP3    H128506   0.210   4.653  14.837  1.2457 -2.0068 -1.2407
 1437TIP3    H228507   0.302   4.748  14.911 -1.1406  0.2141 -0.9832
 1438TIP3   OH228508   4.824   2.606  15.229 -0.0946  0.3715  0.4533
 1438TIP3    H128509   4.897   2.583  15.288 -1.0682  0.7894  1.8638
 1438TIP3    H228510   4.833   2.700  15.216  0.7237  0.1255 -0.9523
 1439TIP3   OH228511   8.336   6.113  15.937 -0.4694  0.0453 -0.2832
 1439TIP3    H128512   8.256   6.118  15.885 -0.0623  2.2784 -0.7997
 1439TIP3    H228513   8.321   6.174  16.010  0.9248  0.9331 -0.6928
 1440TIP3   OH228514   4.831   1.943  14.853  0.2744 -0.1233  0.4086
 1440TIP3    H128515   4.768   2.015  14.860  0.0228 -0.3413  0.3899
 1440TIP3    H228516   4.798   1.876  14.913 -1.3839 -1.6346 -2.0220
 1441TIP3   OH228517   2.211   3.228  15.101 -0.2236 -0.2610  0.2015
 1441TIP3    H128518   2.238   3.197  15.188  2.6897  2.3317  0.3916
 1441TIP3    H228519   2.264   3.177  15.040  0.4534  0.4399  0.1932
 1442TIP3   OH228520   5.152   1.631  16.215 -0.3446  0.2104 -0.8597
 1442TIP3    H128521   5.118   1.647  16.303 -1.1946 -0.0379 -1.1294
 1442TIP3    H228522   5.210   1.705  16.198  1.5653 -0.8066  0.7384
 1443TIP3   OH228523   0.178   8.327  15.437  0.1451  0.0670 -0.0147
 1443TIP3    H128524   0.256   8.383  15.433  0.9912 -1.0992 -0.6681
 1443TIP3    H228525   0.107   8.386  15.460  1.3085  1.0751  1.1572
 1444TIP3   OH228526   7.198   7.454  14.883  0.1352  0.4029  0.6488
 1444TIP3    H128527   7.207   7.380  14.943 -1.0689  1.7376  2.6117
 1444TIP3    H228528   7.119   7.435  14.833  0.0717  0.1559  0.8406
 1445TIP3   OH228529   3.468   7.989  13.614 -0.5574  0.2400  0.6089
 1445TIP3    H128530   3.555   8.017  13.584  0.9407 -4.6510 -0.4972
 1445TIP3    H228531   3.481   7.969  13.707  0.2022 -2.1997  0.0611
 1446TIP3   OH228532   8.334   1.702  14.972  0.0117  0.8970 -0.5872
 1446TIP3    H128533   8.351   1.609  14.960  0.6634  1.0000 -0.5116
 1446TIP3    H228534   8.246   1.706  15.008  0.1299  0.2846 -0.2081
 1447TIP3   OH228535   6.327   1.365  14.645 -0.1333  0.2811 -0.0033
 1447TIP3    H128536   6.361   1.439  14.695 -1.1422 -0.0417  1.2061
 1447TIP3    H228537   6.251   1.336  14.694  0.4020 -1.7463 -0.2917
 1448TIP3   OH228538   3.787   5.443  14.249 -0.3179 -0.0847 -0.1047
 1448TIP3    H128539   3.763   5.365  14.199  1.1372  0.0519 -1.0837
 1448TIP3    H228540   3.768   5.419  14.340 -0.5980 -1.3044 -0.4587
 1449TIP3   OH228541   6.169   7.314  15.287  0.0818  0.1054 -0.5992
 1449TIP3    H128542   6.114   7.293  15.363 -0.8086 -2.6854 -1.8947
 1449TIP3    H228543   6.112   7.367  15.231  0.4369  1.3926  0.2077
 1450TIP3   OH228544   1.763   1.805  15.978  0.1382  0.2428 -0.5302
 1450TIP3    H128545   1.743   1.767  15.893 -3.8865  0.8364 -0.0205
 1450TIP3    H228546   1.710   1.884  15.983  0.8206  0.6484  2.2495
 1451TIP3   OH228547   2.967   3.191  15.282 -0.0582  0.5032  0.1807
 1451TIP3    H128548   2.983   3.236  15.365  0.9650  0.7700 -0.1492
 1451TIP3    H228549   3.054   3.176  15.245 -0.5150  0.9204 -1.1261
 1452TIP3   OH228550   0.945   4.841  14.454 -0.1141  0.3516  0.0664
 1452TIP3    H128551   0.859   4.877  14.437  1.0893  3.3726 -0.1935
 1452TIP3    H228552   0.942   4.815  14.547 -1.2450  0.5094  0.0913
 1453TIP3   OH228553   2.037   5.154  14.084  0.3793 -0.1207 -0.7294
 1453TIP3    H128554   2.046   5.060  14.098 -0.0780 -0.1900 -0.9174
 1453TIP3    H228555   2.117   5.178  14.036  1.7712  0.0407  1.4957
 1454TIP3   OH228556   5.614   6.847  15.108  0.4485 -0.2715  0.0921
 1454TIP3    H128557   5.687   6.869  15.050  0.7621 -1.8865 -0.1868
 1454TIP3    H228558   5.575   6.768  15.068 -1.4858  0.5713  0.2113
 1455TIP3   OH228559   0.084   0.328  15.400 -0.1077  0.5324  0.6040
 1455TIP3    H128560   0.002   0.355  15.441 -0.1331  2.8900 -0.8006
 1455TIP3    H228561   0.135   0.409  15.393  1.3154 -0.4216 -0.7667
 1456TIP3   OH228562   6.394   6.198  13.997 -0.0729 -0.1855 -0.4839
 1456TIP3    H128563   6.395   6.229  13.906  0.3285 -1.3953 -0.9087
 1456TIP3    H228564   6.419   6.106  13.991  3.2458  0.4757  1.1617
 1457TIP3   OH228565   7.025   0.647  14.848 -0.8313  0.1339  0.2921
 1457TIP3    H128566   6.995   0.676  14.761 -0.9934 -1.8448 -0.3644
 1457TIP3    H228567   6.956   0.676  14.908 -2.1730 -0.9111 -0.6646
 1458TIP3   OH228568   3.250   6.553  15.082  0.0983 -0.1172 -0.3316
 1458TIP3    H128569   3.208   6.637  15.065 -0.0123  0.0498  0.7140
 1458TIP3    H228570   3.221   6.497  15.010 -1.3534  0.1993 -0.0134
 1459TIP3   OH228571   7.574   6.621  13.954 -0.0382  0.5268 -0.0750
 1459TIP3    H128572   7.512   6.679  13.910  0.9811  0.9197 -1.0289
 1459TIP3    H228573   7.564   6.537  13.910  2.0642  1.2908 -2.2431
 1460TIP3   OH228574   2.845   1.451  14.885  0.9236 -0.2121 -0.1881
 1460TIP3    H128575   2.785   1.486  14.819 -1.2565 -2.9786  0.1708
 1460TIP3    H228576   2.805   1.474  14.969  0.6960 -1.4805  0.0653
 1461TIP3   OH228577   3.324   1.662  14.789  0.5205 -0.0710 -0.3990
 1461TIP3    H128578   3.354   1.597  14.725  0.1028  0.3068 -0.9797
 1461TIP3    H228579   3.390   1.659  14.858  1.5778  0.3270 -1.3745
 1462TIP3   OH228580   3.158   3.068  14.205  0.9141  0.3858 -0.8873
 1462TIP3    H128581   3.238   3.016  14.210  1.2719  0.9602 -0.4960
 1462TIP3    H228582   3.183   3.147  14.157  0.7186  0.7943 -0.3351
 1463TIP3   OH228583   5.828   7.167  14.410 -0.6279 -0.3254 -0.4580
 1463TIP3    H128584   5.793   7.214  14.486  0.5552 -0.4540  0.1967
 1463TIP3    H228585   5.783   7.205  14.335 -0.7990  0.7906  0.1918
 1464TIP3   OH228586   7.820   5.000  14.421 -0.0724 -0.1512 -0.1348
 1464TIP3    H128587   7.827   5.072  14.357  1.9658 -1.4833 -1.5426
 1464TIP3    H228588   7.896   4.946  14.404  0.9690 -0.2935  3.9106
 1465TIP3   OH228589   6.635   3.867  14.597 -0.3519  0.3320  0.2963
 1465TIP3    H128590   6.603   3.911  14.518 -1.6069  1.0679  1.2007
 1465TIP3    H228591   6.649   3.776  14.569  0.4739  0.8507 -1.0956
 1466TIP3   OH228592   0.376   7.677  14.211 -0.0041 -0.1836  0.3473
 1466TIP3    H128593   0.383   7.744  14.143 -0.8204  0.9060  1.3049
 1466TIP3    H228594   0.288   7.687  14.246 -0.0713 -1.6422  0.6594
 1467TIP3   OH228595   1.879   7.274  14.397 -0.5518  0.3867 -0.1122
 1467TIP3    H128596   1.871   7.325  14.478  3.4730  0.7132  0.2935
 1467TIP3    H228597   1.894   7.184  14.427  1.7494  0.6392 -0.3740
 1468TIP3   OH228598   2.305   6.043  14.265  0.3156 -0.2962  0.3157
 1468TIP3    H128599   2.331   6.104  14.196  0.6690  0.6831  1.2809
 1468TIP3    H228600   2.257   6.097  14.328  0.0237 -1.1546  0.8478
 1469TIP3   OH228601   2.994   2.781  15.418 -0.5355 -0.5630 -0.2228
 1469TIP3    H128602   3.088   2.800  15.429 -0.7008  0.0066  0.2884
 1469TIP3    H228603   2.953   2.820  15.496 -1.0263 -2.1229  0.3468
 1470TIP3   OH228604   0.228   0.457  13.981 -0.0099 -0.2492 -0.2448
 1470TIP3    H128605   0.228   0.505  14.064 -0.2074  0.5660 -0.6985
 1470TIP3    H228606   0.136   0.433  13.967  0.0042 -0.2764 -0.2890
 1471TIP3   OH228607   2.239   8.165  15.596 -0.6862 -0.3802  0.2181
 1471TIP3    H128608   2.283   8.089  15.635  0.3717  0.3177  0.4301
 1471TIP3    H228609   2.231   8.227  15.668  0.5643  0.6117 -0.4763
 1472TIP3   OH228610   3.854   5.749  13.804  0.4628  0.2892  0.2417
 1472TIP3    H128611   3.859   5.844  13.801  0.0155  0.3088 -2.1120
 1472TIP3    H228612   3.774   5.730  13.851  1.6968  0.9597  2.7844
 1473TIP3   OH228613   7.042   5.343  15.021 -0.0557 -0.3104 -0.2934
 1473TIP3    H128614   7.099   5.394  14.963  1.3611  0.0766  1.3489
 1473TIP3    H228615   7.039   5.256  14.981  0.9557 -0.0864 -0.9068
 1474TIP3   OH228616   6.071   0.792  16.267 -0.4190  0.9973  0.5057
 1474TIP3    H128617   6.076   0.850  16.343 -0.1129 -1.1821  2.2341
 1474TIP3    H228618   5.977   0.780  16.252 -0.5302  3.0398 -0.8366
 1475TIP3   OH228619   0.258   7.184  14.227 -0.5434  0.2311  0.2380
 1475TIP3    H128620   0.309   7.105  14.243 -0.5229  0.2338  0.1882
 1475TIP3    H228621   0.323   7.249  14.199 -0.5761  0.2305  0.1595
 1476TIP3   OH228622   1.673   6.683  15.433 -0.1768  0.0849 -0.1083
 1476TIP3    H128623   1.604   6.637  15.482 -0.3948  2.1280  1.6220
 1476TIP3    H228624   1.625   6.746  15.379  0.2534  1.2993  0.8679
 1477TIP3   OH228625   5.167   0.222  14.922 -0.6167 -0.2893  0.0899
 1477TIP3    H128626   5.153   0.160  14.851  2.1705 -0.3871 -0.4854
 1477TIP3    H228627   5.112   0.298  14.900 -0.2147 -0.5273 -1.8932
 1478TIP3   OH228628   6.119   7.338  14.128  0.1695 -0.6554 -0.0868
 1478TIP3    H128629   6.046   7.341  14.066  0.4507  0.4814 -0.3820
 1478TIP3    H228630   6.079   7.362  14.212 -0.0098 -1.1808 -0.0142
 1479TIP3   OH228631   1.282   7.775  15.725  0.6738  0.4712 -0.7234
 1479TIP3    H128632   1.262   7.815  15.641  1.4594  2.1196 -0.1717
 1479TIP3    H228633   1.378   7.772  15.728  0.6474 -0.5653 -0.3144
 1480TIP3   OH228634   0.897   1.248  14.658 -0.2351 -0.1947  0.2900
 1480TIP3    H128635   0.803   1.234  14.673 -0.3711  0.7333  0.3551
 1480TIP3    H228636   0.935   1.160  14.663 -0.9363 -0.4568  1.3542
 1481TIP3   OH228637   4.366   2.566  15.375 -0.1840 -0.0854 -0.4689
 1481TIP3    H128638   4.420   2.643  15.391 -0.4946 -0.3266  2.1838
 1481TIP3    H228639   4.276   2.597  15.387 -0.5558 -0.1968 -2.5954
 1482TIP3   OH228640   6.644   7.713  15.761  0.2615  0.0605 -0.1554
 1482TIP3    H128641   6.622   7.803  15.738  1.6089  0.0627 -1.6657
 1482TIP3    H228642   6.561   7.665  15.758 -0.1876  0.8751 -1.3286
 1483TIP3   OH228643   7.794   1.511  14.242  0.1171  0.2115 -0.0669
 1483TIP3    H128644   7.836   1.586  14.199 -0.4248  0.6817  0.2278
 1483TIP3    H228645   7.832   1.509  14.329 -0.2600  0.4668  0.1050
 1484TIP3   OH228646   1.960   8.387  16.042  0.2010  0.2965  0.3158
 1484TIP3    H128647   1.891   8.441  16.004  1.0570  0.7238 -0.6933
 1484TIP3    H228648   2.032   8.449  16.059  1.6057 -0.6196 -1.8630
 1485TIP3   OH228649   8.109   6.906  15.921 -0.1460  0.0852 -0.0945
 1485TIP3    H128650   8.150   6.835  15.971 -1.0087  0.0743  0.6253
 1485TIP3    H228651   8.051   6.861  15.859 -0.5963  0.1474  0.2750
 1486TIP3   OH228652   4.748   1.359  14.227  0.1420 -0.1130 -0.8126
 1486TIP3    H128653   4.719   1.433  14.174  3.7057  0.6954 -1.8907
 1486TIP3    H228654   4.767   1.290  14.163 -0.1762 -0.9064 -0.0825
 1487TIP3   OH228655   7.815   5.296  15.543 -0.0916 -0.2352 -0.6890
 1487TIP3    H128656   7.821   5.338  15.628  1.5015 -0.4978 -0.6504
 1487TIP3    H228657   7.729   5.322  15.509 -1.2163 -0.9950  1.4248
 1488TIP3   OH228658   7.478   3.439  15.999 -0.1231  0.3083  0.1336
 1488TIP3    H128659   7.436   3.362  15.960 -2.6801  2.1391 -0.9772
 1488TIP3    H228660   7.533   3.474  15.929 -1.0080  0.9171 -0.2784
 1489TIP3   OH228661   6.682   1.713  15.509  0.1121 -0.5398 -0.1887
 1489TIP3    H128662   6.765   1.737  15.468 -0.3009  0.1178 -0.6637
 1489TIP3    H228663   6.660   1.629  15.471  0.8587 -1.0197  0.4037
 1490TIP3   OH228664   1.190   3.543  14.820 -0.1997 -0.1802  0.1025
 1490TIP3    H128665   1.218   3.500  14.740 -0.6493 -0.5829  0.1524
 1490TIP3    H228666   1.250   3.510  14.887  0.0512  0.0024 -0.0327
 1491TIP3   OH228667   6.929   1.771  15.410 -0.5781 -0.1474  0.6506
 1491TIP3    H128668   6.927   1.743  15.319 -1.3826  0.5569  0.4406
 1491TIP3    H228669   7.018   1.752  15.439 -0.0175  0.4948 -0.5639
 1492TIP3   OH228670   5.256   2.619  13.990  0.2835  0.3956  0.0443
 1492TIP3    H128671   5.225   2.577  14.070 -0.9793 -0.3777 -0.8219
 1492TIP3    H228672   5.177   2.654  13.948  0.6757 -0.6319 -1.6596
 1493TIP3   OH228673   2.248   6.805  15.313 -0.7171 -0.7830 -0.2199
 1493TIP3    H128674   2.231   6.841  15.226  1.2822 -2.0535 -1.1831
 1493TIP3    H228675   2.269   6.882  15.366  1.3347 -0.2580 -1.7016
 1494TIP3   OH228676   7.975   4.327  14.641  0.2981  0.1253 -0.5363
 1494TIP3    H128677   7.883   4.311  14.661  0.0040  0.9620 -1.1285
 1494TIP3    H228678   8.007   4.244  14.606  0.1908 -0.6279  1.0813
 1495TIP3   OH228679   5.170   2.596  16.049  0.5101 -0.6645  0.1046
 1495TIP3    H128680   5.127   2.547  15.979 -0.0957 -0.4904  0.3508
 1495TIP3    H228681   5.146   2.549  16.129  1.9778 -1.4229  0.1234
 1496TIP3   OH228682   5.523   7.290  15.497  0.0160  0.2398 -0.5740
 1496TIP3    H128683   5.608   7.283  15.539 -0.0495 -0.3225 -0.5373
 1496TIP3    H228684   5.487   7.373  15.530  0.3411  0.2406 -0.2156
 1497TIP3   OH228685   8.445   7.746  15.091  0.1234  0.5746  0.0357
 1497TIP3    H128686   8.537   7.742  15.067  0.2775  1.7287  0.3524
 1497TIP3    H228687   8.428   7.840  15.104 -0.7550  0.2694  1.2619
 1498TIP3   OH228688   0.877   5.309  13.828  0.0714 -0.0220  0.5363
 1498TIP3    H128689   0.808   5.347  13.881  0.3906  0.9034  0.3218
 1498TIP3    H228690   0.861   5.215  13.830 -0.2956  0.0491  1.7274
 1499TIP3   OH228691   6.349   4.257  15.274 -0.1199  0.1071 -0.2421
 1499TIP3    H128692   6.319   4.240  15.185  0.2505 -0.5608 -0.2431
 1499TIP3    H228693   6.348   4.353  15.282  1.7502  0.2858 -1.6224
 1500TIP3   OH228694   7.066   2.780  15.174  0.0189 -0.7107  0.0655
 1500TIP3    H128695   7.140   2.812  15.121  0.1908 -0.4710  0.4384
 1500TIP3    H228696   7.072   2.685  15.169  1.2411 -0.7266  1.2648
 1501TIP3   OH228697   5.937   4.780  14.814  0.0320 -0.3261 -0.1415
 1501TIP3    H128698   5.959   4.749  14.902 -0.4135  1.3138  0.5871
 1501TIP3    H228699   5.998   4.852  14.798 -0.1888 -0.3191 -0.9942
 1502TIP3   OH228700   1.268   6.874  16.008  0.1648  0.1045 -0.2324
 1502TIP3    H128701   1.175   6.855  16.016 -0.1795  1.3131 -1.1098
 1502TIP3    H228702   1.276   6.966  16.033  0.9237  0.3626 -1.3647
 1503TIP3   OH228703   3.882   5.658  14.543  0.5120 -0.2382 -0.8276
 1503TIP3    H128704   3.821   5.585  14.558  2.2898 -1.8472 -1.0926
 1503TIP3    H228705   3.852   5.726  14.603 -1.9370 -0.6840 -1.3989
 1504TIP3   OH228706   0.846   3.591  15.032 -0.0988  0.0686 -0.5115
 1504TIP3    H128707   0.853   3.582  14.937 -1.6397 -0.0653 -0.6408
 1504TIP3    H228708   0.907   3.661  15.054  1.2591 -0.7827 -1.4133
 1505TIP3   OH228709   6.445   7.487  15.830 -0.2631 -0.3761  0.9077
 1505TIP3    H128710   6.485   7.426  15.768  0.2452  0.8703 -0.0514
 1505TIP3    H228711   6.442   7.439  15.913 -1.2516 -2.2137 -0.1157
 1506TIP3   OH228712   3.309   1.814  15.635 -0.1902  0.2627  0.1914
 1506TIP3    H128713   3.361   1.798  15.556  1.0586  2.4791  0.4868
 1506TIP3    H228714   3.373   1.810  15.706 -0.9508  0.1861  0.8771
 1507TIP3   OH228715   0.335   6.432  14.943 -0.0183 -0.3713 -0.1142
 1507TIP3    H128716   0.325   6.388  15.027  1.5985  1.4142  1.0964
 1507TIP3    H228717   0.421   6.405  14.911  1.1128  1.8891  0.7586
 1508TIP3   OH228718   3.778   5.069  15.094  0.5544 -0.2254 -0.2779
 1508TIP3    H128719   3.848   5.115  15.047  0.4842  0.3482  0.1750
 1508TIP3    H228720   3.783   5.102  15.184  1.2882 -2.0084  0.3679
 1509TIP3   OH228721   4.286   2.940  15.394  0.9861 -0.3288  0.1880
 1509TIP3    H128722   4.380   2.921  15.395  1.1892  0.6143  0.9406
 1509TIP3    H228723   4.280   3.033  15.418 -0.1687 -0.5514  0.8497
 1510TIP3   OH228724   7.255   7.407  15.355  0.0233  0.1050 -0.5632
 1510TIP3    H128725   7.337   7.442  15.319  0.7519  0.5355  1.4175
 1510TIP3    H228726   7.212   7.483  15.394 -0.4359 -0.4495  0.0175
 1511TIP3   OH228727   4.392   6.274  15.151 -0.1704 -0.0132 -0.5226
 1511TIP3    H128728   4.415   6.366  15.141  1.7340 -0.4306 -0.3526
 1511TIP3    H228729   4.446   6.243  15.224 -3.1762 -0.5139  1.6502
 1512TIP3   OH228730   0.931   0.686  14.986 -0.1189 -0.1004  0.1708
 1512TIP3    H128731   0.893   0.648  14.907  1.0097  2.7336 -1.9109
 1512TIP3    H228732   0.993   0.619  15.017  0.5430 -0.7100 -2.2768
 1513TIP3   OH228733   6.111   1.760  14.096 -0.3084 -0.1750 -0.2836
 1513TIP3    H128734   6.205   1.751  14.080 -0.1021  0.5583  0.4572
 1513TIP3    H228735   6.083   1.833  14.041  0.0383  1.1301  1.1861
 1514TIP3   OH228736   0.680   7.459  15.829  0.2033  0.3973 -0.0404
 1514TIP3    H128737   0.603   7.508  15.803 -0.4943  0.1864  1.5285
 1514TIP3    H228738   0.711   7.502  15.909  0.6573 -0.5967  0.3412
 1515TIP3   OH228739   1.022   0.452  15.084 -0.1521  0.3135 -0.5883
 1515TIP3    H128740   1.011   0.361  15.056 -2.1018  0.7422 -1.3792
 1515TIP3    H228741   0.951   0.466  15.146  2.0049  0.4368  2.0207
 1516TIP3   OH228742   2.647   5.498  16.036  1.1069 -0.1889 -0.0257
 1516TIP3    H128743   2.704   5.425  16.012  1.0892 -0.4183  0.6301
 1516TIP3    H228744   2.670   5.568  15.974  2.6146 -0.0330  0.6709
 1517TIP3   OH228745   7.445   0.935  15.158 -0.5991  0.3615  0.1231
 1517TIP3    H128746   7.460   0.854  15.109 -1.4845 -0.2456  0.8284
 1517TIP3    H228747   7.470   0.913  15.248 -0.2317  1.0775  0.2050
 1518TIP3   OH228748   2.964   1.125  16.135 -0.0215 -0.1700 -0.2069
 1518TIP3    H128749   2.985   1.062  16.204  0.5776 -1.0382 -1.1556
 1518TIP3    H228750   2.869   1.117  16.123 -0.1846  0.2538  0.7590
 1519TIP3   OH228751   0.515   4.577  16.277 -0.3383 -0.1939 -0.1570
 1519TIP3    H128752   0.579   4.571  16.348  1.1708 -1.3533 -1.5530
 1519TIP3    H228753   0.501   4.487  16.249 -1.9578  0.1174 -0.4744
 1520TIP3   OH228754   5.274   3.947  15.679  0.2031 -0.2671  0.1640
 1520TIP3    H128755   5.215   4.017  15.650 -1.6060 -1.2808  1.2316
 1520TIP3    H228756   5.314   3.916  15.598 -2.2881 -0.8778 -0.9388
 1521TIP3   OH228757   2.783   0.158  15.070  0.2324 -0.2332  0.2156
 1521TIP3    H128758   2.835   0.144  15.148  0.9655  1.4366  0.0621
 1521TIP3    H228759   2.841   0.204  15.009 -1.0952  0.8169 -0.3281
 1522TIP3   OH228760   1.208   5.150  14.642 -0.1089  0.1923 -0.0073
 1522TIP3    H128761   1.184   5.161  14.734  1.1349 -0.6296  0.4404
 1522TIP3    H228762   1.294   5.193  14.634 -0.1714  0.1927 -0.7678
 1523TIP3   OH228763   4.304   4.839  14.526  0.3565 -0.2818  0.5741
 1523TIP3    H128764   4.388   4.798  14.508  1.5152  2.4044 -0.7561
 1523TIP3    H228765   4.263   4.849  14.439 -1.3548 -1.4601  1.1840
 1524TIP3   OH228766   7.045   1.739  15.725 -0.1559  0.2204 -0.8908
 1524TIP3    H128767   7.116   1.803  15.716 -0.4530  0.7392  0.3033
 1524TIP3    H228768   6.969   1.790  15.749 -0.4080 -0.5586  0.0629
 1525TIP3   OH228769   5.199   6.454  15.116  0.4216  0.4497  0.2299
 1525TIP3    H128770   5.153   6.520  15.065  0.8153 -0.3915 -1.2989
 1525TIP3    H228771   5.140   6.434  15.189  0.0895  2.1050  0.4485
 1526TIP3   OH228772   5.491   0.382  15.873  0.1994  0.0237  0.0794
 1526TIP3    H128773   5.471   0.475  15.859 -2.6999 -0.3183  1.3367
 1526TIP3    H228774   5.525   0.353  15.788  0.8725  2.1376 -0.4455
 1527TIP3   OH228775   5.945   5.680  15.452  0.0367 -0.2079 -0.1062
 1527TIP3    H128776   6.025   5.692  15.401  0.6396 -2.0159  0.3380
 1527TIP3    H228777   5.882   5.642  15.390 -0.6492  1.5493 -0.5526
 1528TIP3   OH228778   4.208   2.446  15.628 -0.0644 -0.3603 -0.0227
 1528TIP3    H128779   4.118   2.424  15.653 -1.0639 -0.3932 -3.2060
 1528TIP3    H228780   4.201   2.533  15.588  1.0812 -0.8610 -1.3925
 1529TIP3   OH228781   3.659   2.912  14.786 -0.0340 -1.0325 -0.1945
 1529TIP3    H128782   3.652   2.928  14.881 -0.3731 -2.0532 -0.0288
 1529TIP3    H228783   3.750   2.889  14.772  0.3492  0.5228 -0.3617
 1530TIP3   OH228784   2.387   4.318  15.109 -0.4332  0.5951 -0.6131
 1530TIP3    H128785   2.340   4.359  15.181 -2.4569  0.9957 -2.0733
 1530TIP3    H228786   2.450   4.384  15.081  2.0704 -0.3877  2.1365
 1531TIP3   OH228787   1.886   6.273  14.169  0.3814 -0.3819  0.2246
 1531TIP3    H128788   1.812   6.259  14.228  0.9894  0.3184  1.1686
 1531TIP3    H228789   1.939   6.194  14.177 -0.0711 -0.7356 -0.1900
 1532TIP3   OH228790   7.104   4.450  16.051 -0.1201 -0.2969 -0.5626
 1532TIP3    H128791   7.010   4.451  16.030  0.0758 -0.6175 -1.5221
 1532TIP3    H228792   7.137   4.371  16.007  0.2432 -1.3486  1.4525
 1533TIP3   OH228793   4.459   0.787  14.611  0.1999 -0.0237  0.0099
 1533TIP3    H128794   4.391   0.790  14.679  0.8259  0.4320  0.6351
 1533TIP3    H228795   4.509   0.709  14.630 -0.1630 -0.3824 -0.4771
 1534TIP3   OH228796   7.759   3.961  14.507 -0.0649  0.1810 -0.1128
 1534TIP3    H128797   7.739   3.869  14.488 -1.2596  0.5212 -0.5369
 1534TIP3    H228798   7.745   4.006  14.424 -2.2823  1.1959  0.7511
 1535TIP3   OH228799   7.468   1.311  16.004 -0.6945  0.4307  0.2920
 1535TIP3    H128800   7.404   1.311  16.075  0.3717  0.5214  1.2700
 1535TIP3    H228801   7.539   1.367  16.035 -0.1710  0.4091 -0.8144
 1536TIP3   OH228802   3.728   5.273  14.866 -0.1045 -0.0202 -0.4303
 1536TIP3    H128803   3.696   5.326  14.792  0.1631  0.0733 -0.4800
 1536TIP3    H228804   3.714   5.183  14.838 -0.3135  0.0202 -0.4581
 1537TIP3   OH228805   2.883   7.251  15.596  0.3349 -0.3772 -0.0461
 1537TIP3    H128806   2.932   7.285  15.520 -0.5823  1.0760 -0.0300
 1537TIP3    H228807   2.850   7.166  15.566  2.4598 -1.2254 -0.1999
 1538TIP3   OH228808   0.880   1.667  14.415  0.2941 -0.0143 -0.0257
 1538TIP3    H128809   0.850   1.743  14.465  0.9957 -0.3494  0.9469
 1538TIP3    H228810   0.895   1.701  14.326 -0.9119  0.6123 -0.0120
 1539TIP3   OH228811   2.873   7.736  15.055 -0.7399  0.0089  0.7290
 1539TIP3    H128812   2.897   7.648  15.027  1.6823  0.8269 -0.0255
 1539TIP3    H228813   2.777   7.735  15.059 -0.9793 -1.7779 -2.3884
 1540TIP3   OH228814   6.808   5.089  15.176 -0.9232 -0.3022  0.0082
 1540TIP3    H128815   6.845   5.144  15.245 -0.7343 -1.7532  1.1252
 1540TIP3    H228816   6.867   5.013  15.172 -0.1230  0.3392 -2.7502
 1541TIP3   OH228817   4.609   0.228  15.979 -0.2984 -0.1345 -0.8608
 1541TIP3    H128818   4.633   0.272  16.061 -1.6631 -1.2284  0.1757
 1541TIP3    H228819   4.575   0.143  16.006  0.0670 -0.9018 -2.6522
 1542TIP3   OH228820   7.283   0.762  14.663  0.1639 -0.1456 -0.0554
 1542TIP3    H128821   7.238   0.813  14.597  0.8605 -0.6154 -0.9109
 1542TIP3    H228822   7.233   0.777  14.744 -0.4154  0.7992 -0.5794
 1543TIP3   OH228823   5.345   7.890  15.526  0.8844 -0.0544  0.4026
 1543TIP3    H128824   5.291   7.924  15.597  1.5692  1.1089  0.4004
 1543TIP3    H228825   5.290   7.825  15.483  0.0186  0.0881  1.2557
 1544TIP3   OH228826   2.812   5.609  15.763  0.0819 -0.1059 -0.5389
 1544TIP3    H128827   2.907   5.592  15.762  0.2931  0.2802  2.9246
 1544TIP3    H228828   2.805   5.704  15.759 -0.0348 -0.0432  0.7667
 1545TIP3   OH228829   0.379   4.493  15.965  0.1750  0.7440  0.2469
 1545TIP3    H128830   0.383   4.577  16.010 -1.7112  0.4135  1.1620
 1545TIP3    H228831   0.420   4.431  16.027  1.5844  0.9519 -0.4364
 1546TIP3   OH228832   3.032   6.129  14.878 -0.0814 -0.5091 -0.0739
 1546TIP3    H128833   3.058   6.153  14.789  2.3826 -0.0440  0.7025
 1546TIP3    H228834   3.098   6.171  14.934 -1.7821 -0.4613  2.0106
 1547TIP3   OH228835   0.745   5.785  15.069 -0.0044  0.3208 -0.1617
 1547TIP3    H128836   0.744   5.697  15.106  0.2662 -0.4361 -1.8871
 1547TIP3    H228837   0.699   5.777  14.986  3.7351  0.7817 -2.5001
 1548TIP3   OH228838   2.460   5.078  16.062  0.0009 -0.4349  0.2532
 1548TIP3    H128839   2.479   5.132  16.139  2.7029  0.2848 -0.7871
 1548TIP3    H228840   2.428   5.140  15.997 -0.7038 -0.7712  0.2732
 1549TIP3   OH228841   3.100   6.187  15.474 -0.4050  0.2384  0.5010
 1549TIP3    H128842   3.074   6.110  15.424 -1.1044  1.6031 -1.3547
 1549TIP3    H228843   3.182   6.216  15.434 -0.7614  1.1228  0.3958
 1550TIP3   OH228844   6.069   4.396  15.053 -0.4470 -0.5486 -0.1062
 1550TIP3    H128845   6.037   4.314  15.091  0.3995 -0.6906  0.3087
 1550TIP3    H228846   6.127   4.432  15.119  0.2001 -0.2612 -0.8248
 1551TIP3   OH228847   3.604   1.207  14.700  0.0459 -0.2951 -0.3211
 1551TIP3    H128848   3.639   1.295  14.688 -0.0896 -0.3392 -1.1133
 1551TIP3    H228849   3.571   1.206  14.790  0.6877  0.2300 -0.0757
 1552TIP3   OH228850   0.546   7.775  14.668 -0.3984  0.7602 -0.6809
 1552TIP3    H128851   0.639   7.766  14.690 -0.5845 -0.9860 -0.4112
 1552TIP3    H228852   0.544   7.774  14.572 -0.1980 -0.7336 -0.7068
 1553TIP3   OH228853   0.061   6.260  15.656 -0.1241 -0.4979 -0.0642
 1553TIP3    H128854   0.082   6.195  15.587 -2.3796 -1.5222  0.1447
 1553TIP3    H228855  -0.014   6.307  15.622  1.0446  1.6127  0.1213
 1554TIP3   OH228856   3.350   3.349  14.862 -0.0324 -0.1081  0.0693
 1554TIP3    H128857   3.344   3.401  14.942 -0.0878 -0.9506  0.6242
 1554TIP3    H228858   3.375   3.412  14.794  2.2720  0.2610  1.1653
 1555TIP3   OH228859   0.186   0.743  14.977  0.1924 -0.3141  0.0868
 1555TIP3    H128860   0.141   0.680  15.035 -0.8405 -0.0815 -0.4384
 1555TIP3    H228861   0.119   0.807  14.956  1.0597  0.5926  0.0533
 1556TIP3   OH228862   5.840   1.795  15.167  0.3143  0.9331  0.3755
 1556TIP3    H128863   5.924   1.800  15.122  0.4320  1.4130  0.6452
 1556TIP3    H228864   5.790   1.730  15.117  1.3284 -0.3928  1.0251
 1557TIP3   OH228865   6.225   1.239  14.928 -0.2205 -0.4289 -1.0137
 1557TIP3    H128866   6.203   1.170  14.990  0.2637  0.3121  0.0167
 1557TIP3    H228867   6.141   1.279  14.905 -0.2209  1.5505  1.8962
 1558TIP3   OH228868   7.716   4.096  14.267  0.5025  0.0472  0.4950
 1558TIP3    H128869   7.770   4.043  14.208 -0.2948  0.5363 -0.7053
 1558TIP3    H228870   7.755   4.183  14.264 -0.5932  0.5232 -0.7526
 1559TIP3   OH228871   0.820   1.903  14.646 -0.3158 -0.2153 -0.3630
 1559TIP3    H128872   0.858   1.948  14.721  0.4375  0.9588 -1.3982
 1559TIP3    H228873   0.796   1.817  14.679 -1.4860  0.7904  1.6224
 1560TIP3   OH228874   3.240   0.991  13.882 -0.1556  0.2212 -0.0512
 1560TIP3    H128875   3.308   0.926  13.863  0.2310  1.0792 -1.7410
 1560TIP3    H228876   3.276   1.074  13.851 -1.5864  0.8472 -0.1154
 1561TIP3   OH228877   0.419   4.041  14.884 -0.6282 -0.1128 -0.0378
 1561TIP3    H128878   0.351   4.077  14.941 -1.1108 -1.9553  0.6115
 1561TIP3    H228879   0.481   4.000  14.944  1.3572  1.8766 -0.5835
 1562TIP3   OH228880   3.311   2.151  15.751 -0.4401 -0.1614  0.1882
 1562TIP3    H128881   3.394   2.122  15.713 -0.5835  0.5889 -0.7318
 1562TIP3    H228882   3.333   2.232  15.797 -0.8200  0.5498 -0.8530
 1563TIP3   OH228883   1.843   3.312  14.817 -0.4975  0.1282  0.1043
 1563TIP3    H128884   1.823   3.298  14.909 -0.7800 -2.0955 -0.2331
 1563TIP3    H228885   1.888   3.396  14.814 -0.1389  0.0561  2.3134
 1564TIP3   OH228886   3.646   6.910  15.441  0.0522  0.2959  0.2418
 1564TIP3    H128887   3.653   6.985  15.382 -0.5110  0.3596  0.2529
 1564TIP3    H228888   3.704   6.844  15.402  0.5858  0.7504  0.2608
 1565TIP3   OH228889   4.921   1.899  15.347  0.3319  0.2462  0.3298
 1565TIP3    H128890   4.951   1.955  15.275  2.0745  0.1831  0.9611
 1565TIP3    H228891   4.996   1.844  15.368 -0.2153  0.0916  2.0507
 1566TIP3   OH228892   7.352   4.288  15.559 -0.2637  0.0310  0.0804
 1566TIP3    H128893   7.291   4.259  15.491 -0.4726  1.3115 -0.3008
 1566TIP3    H228894   7.298   4.336  15.621  0.4071  1.7634 -0.6108
 1567TIP3   OH228895   8.430   4.091  14.809 -0.0791 -0.3409 -0.5789
 1567TIP3    H128896   8.469   4.151  14.873 -0.8964 -0.6893  0.2674
 1567TIP3    H228897   8.488   4.097  14.733 -1.4683  3.4838 -1.5968
 1568TIP3   OH228898   5.034   2.731  15.465 -0.2473  0.5200 -0.1505
 1568TIP3    H128899   5.054   2.811  15.416  1.5872  1.2616  1.6551
 1568TIP3    H228900   5.027   2.760  15.556 -1.7110 -1.0792  0.2988
 1569TIP3   OH228901   1.718   4.546  15.558 -0.4636 -0.2998  0.3741
 1569TIP3    H128902   1.706   4.609  15.629 -1.2658 -0.7431  0.6520
 1569TIP3    H228903   1.665   4.580  15.486  0.4928  0.2429 -0.0827
 1570TIP3   OH228904   2.488   7.224  15.217 -0.3615  0.0319 -0.0134
 1570TIP3    H128905   2.481   7.299  15.276 -1.2476  1.0712 -1.3972
 1570TIP3    H228906   2.432   7.157  15.256  1.5346 -0.5052  2.0020
 1571TIP3   OH228907   7.078   6.606  13.760 -0.5974  0.1541  0.1469
 1571TIP3    H128908   7.062   6.693  13.725 -0.5546  0.2655  0.4049
 1571TIP3    H228909   7.161   6.579  13.720 -0.2793  0.4966  0.5732
 1572TIP3   OH228910   4.305   7.944  15.927  0.0149  0.0445 -0.1740
 1572TIP3    H128911   4.345   7.958  15.841  0.3338  1.0808  0.1187
 1572TIP3    H228912   4.257   7.862  15.919  0.3848 -0.0816 -1.2157
 1573TIP3   OH228913   1.673   1.704  15.726 -0.1863 -0.2645 -0.0081
 1573TIP3    H128914   1.740   1.637  15.738 -0.7085 -0.5854  1.3759
 1573TIP3    H228915   1.665   1.714  15.632 -0.4556 -2.5300 -0.2804
 1574TIP3   OH228916   2.325   6.417  14.815 -0.4306  0.1488  0.3129
 1574TIP3    H128917   2.312   6.380  14.728 -1.8140  2.6919 -0.6597
 1574TIP3    H228918   2.303   6.346  14.875 -1.6154 -1.0054 -1.4152
 1575TIP3   OH228919   1.293   4.686  13.812 -0.0737  0.0132  0.0843
 1575TIP3    H128920   1.240   4.606  13.813 -0.8068  0.3782  3.1960
 1575TIP3    H228921   1.233   4.755  13.785 -0.3786 -0.0272  0.6407
 1576TIP3   OH228922   5.571   3.434  15.898 -0.4810  0.7758  0.4404
 1576TIP3    H128923   5.540   3.459  15.811  1.9015 -1.9821 -1.3901
 1576TIP3    H228924   5.652   3.483  15.910  0.8956 -1.1524 -0.4254
 1577TIP3   OH228925   3.413   3.804  15.675  0.0175  0.0066 -0.1464
 1577TIP3    H128926   3.485   3.862  15.653 -0.2174  0.2684 -0.2248
 1577TIP3    H228927   3.337   3.861  15.683 -0.4734 -0.4351 -1.4732
 1578TIP3   OH228928   2.446   3.755  15.700  0.1170  0.4092  0.1125
 1578TIP3    H128929   2.355   3.725  15.697  0.3424 -0.2143 -1.8471
 1578TIP3    H228930   2.485   3.724  15.618  1.7340  1.8263  0.2681
 1579TIP3   OH228931   4.240   1.738  15.275 -0.1084 -0.2740 -0.0039
 1579TIP3    H128932   4.206   1.827  15.280 -0.3378 -0.3703  0.1453
 1579TIP3    H228933   4.313   1.737  15.338 -0.0104 -0.1502 -0.1152
 1580TIP3   OH228934   6.969   0.244  16.202 -0.0827  0.2057 -0.1437
 1580TIP3    H128935   6.971   0.282  16.114  0.6852 -0.2449 -0.3342
 1580TIP3    H228936   6.924   0.310  16.255  1.5764  1.6057 -0.3698
 1581TIP3   OH228937   5.909   4.306  15.372 -0.3134 -0.3605  0.4624
 1581TIP3    H128938   5.903   4.345  15.285  3.5006 -0.1617  0.1117
 1581TIP3    H228939   5.908   4.212  15.357  0.4139 -0.3251  0.1615
 1582TIP3   OH228940   5.855   0.951  14.401  0.5489  0.1403  0.0716
 1582TIP3    H128941   5.837   1.018  14.335 -1.9579 -1.6860 -1.2770
 1582TIP3    H228942   5.908   0.886  14.356 -0.7977 -0.9015 -0.0803
 1583TIP3   OH228943   5.700   2.340  15.458 -0.1390  0.3280 -0.2255
 1583TIP3    H128944   5.693   2.251  15.422  0.7401 -0.5892  1.6867
 1583TIP3    H228945   5.747   2.328  15.541  0.1422  2.6183  0.0098
 1584TIP3   OH228946   5.851   5.058  14.755  0.0526  0.3173 -0.3965
 1584TIP3    H128947   5.881   4.971  14.728  0.5137  0.3887 -0.1108
 1584TIP3    H228948   5.756   5.049  14.762 -0.2976  0.5951 -3.2685
 1585TIP3   OH228949   4.615   5.027  15.714  0.0858  0.2517  0.0834
 1585TIP3    H128950   4.569   4.989  15.788  1.1761 -1.8926 -0.2522
 1585TIP3    H228951   4.649   5.110  15.747 -1.9803  0.7915  1.0100
 1586TIP3   OH228952   3.460   7.168  14.895  0.9066  0.2303 -0.2391
 1586TIP3    H128953   3.537   7.146  14.844  1.6569 -2.4453  1.8407
 1586TIP3    H228954   3.493   7.187  14.983 -0.7791 -2.9811  1.2787
 1587TIP3   OH228955   0.912   4.232  14.130 -0.0581  0.1889 -0.0330
 1587TIP3    H128956   0.983   4.213  14.069 -0.8503  0.1726 -0.9645
 1587TIP3    H228957   0.853   4.158  14.123 -1.8198  1.6447 -1.7243
 1588TIP3   OH228958   2.224   4.320  15.993  0.5542 -0.5102 -0.5644
 1588TIP3    H128959   2.217   4.226  15.975  0.6822 -0.3336 -1.6246
 1588TIP3    H228960   2.182   4.332  16.078  0.5422 -1.5282 -0.4152
 1589TIP3   OH228961   4.841   1.182  14.558 -0.5466  0.1406 -0.2255
 1589TIP3    H128962   4.859   1.162  14.466 -0.9268 -2.0002  0.1036
 1589TIP3    H228963   4.926   1.203  14.595 -0.3583  0.7985 -0.9988
 1590TIP3   OH228964   4.459   8.364  14.950  0.2955 -0.3856 -0.2500
 1590TIP3    H128965   4.456   8.317  14.867 -1.2602  0.9689 -1.0066
 1590TIP3    H228966   4.466   8.295  15.016 -0.4916 -1.6095 -1.3936
 1591TIP3   OH228967   5.719   5.079  15.671 -0.2705  0.8800  0.6140
 1591TIP3    H128968   5.761   5.093  15.756 -0.5439  0.2099  0.8704
 1591TIP3    H228969   5.711   5.166  15.633  3.9285  0.9137 -0.7116
 1592TIP3   OH228970   2.402   5.964  15.775 -0.4995 -0.1131  0.0369
 1592TIP3    H128971   2.389   6.013  15.856 -0.1649  0.3516 -0.1849
 1592TIP3    H228972   2.447   6.026  15.717  1.1321 -1.1002  0.1957
 1593TIP3   OH228973   6.998   7.254  13.883 -0.1716 -0.0943 -0.0424
 1593TIP3    H128974   7.040   7.170  13.866 -0.1113  0.0889 -0.8378
 1593TIP3    H228975   6.910   7.244  13.849  0.0098  0.3458 -0.6537
 1594TIP3   OH228976   5.718   0.465  14.847  0.2111 -0.0327  0.1712
 1594TIP3    H128977   5.706   0.552  14.809 -1.5598  0.2460  1.2426
 1594TIP3    H228978   5.666   0.407  14.791  0.9825 -0.3255 -0.2486
 1595TIP3   OH228979   5.143   0.869  16.316  0.0755  0.3396  0.2441
 1595TIP3    H128980   5.182   0.792  16.276 -0.8056  0.5877 -1.1578
 1595TIP3    H228981   5.084   0.834  16.382  1.9689 -0.0543  1.8103
 1596TIP3   OH228982   4.344   8.337  15.265 -0.2005  0.7876 -0.2512
 1596TIP3    H128983   4.423   8.285  15.257 -1.0451 -0.5284 -0.4096
 1596TIP3    H228984   4.305   8.309  15.348 -1.1119  0.4948 -0.7593
 1597TIP3   OH228985   4.868   8.033  15.990  0.1743  0.1066 -0.1279
 1597TIP3    H128986   4.797   8.076  15.943 -0.0230  0.3959  0.4247
 1597TIP3    H228987   4.840   7.943  15.999  0.8231 -0.2944 -1.7586
 1598TIP3   OH228988   0.764   2.697  16.406 -0.1388  0.6135 -0.4443
 1598TIP3    H128989   0.758   2.702  16.310 -0.0192  1.3550 -0.4214
 1598TIP3    H228990   0.810   2.777  16.431  0.1293  0.2592  0.2118
 1599TIP3   OH228991   1.344   6.144  15.590 -0.7704  0.3960  0.1964
 1599TIP3    H128992   1.361   6.052  15.569  0.2161  0.4876  0.5228
 1599TIP3    H228993   1.346   6.189  15.506 -1.1285  0.1367  0.0483
 1600TIP3   OH228994   6.915   6.155  15.260 -0.2757  0.1670  0.2165
 1600TIP3    H128995   6.916   6.224  15.327 -0.3835 -0.9331  1.3883
 1600TIP3    H228996   6.843   6.098  15.286  0.5323 -1.0202 -0.0796
 1601TIP3   OH228997   7.672   2.254  14.255  0.1155 -0.2816  0.0484
 1601TIP3    H128998   7.669   2.345  14.224 -0.4396 -0.4520 -0.4257
 1601TIP3    H228999   7.722   2.258  14.336  2.5728  0.0263 -1.4076
 1602TIP3   OH229000   3.689   3.176  14.096  0.2042 -0.6133 -0.3326
 1602TIP3    H129001   3.661   3.248  14.154  1.2707 -0.8150  0.4689
 1602TIP3    H229002   3.734   3.115  14.155  1.6608 -0.6406 -1.4207
 1603TIP3   OH229003   3.867   2.594  14.052  0.0237  0.0005 -0.3210
 1603TIP3    H129004   3.775   2.569  14.058 -0.1689  0.8967  0.5949
 1603TIP3    H229005   3.914   2.511  14.060 -0.6745 -0.3890 -0.1047
 1604TIP3   OH229006   1.263   8.426  15.273  0.3070  0.0881 -0.0591
 1604TIP3    H129007   1.197   8.358  15.259 -0.8380  1.0411  0.5780
 1604TIP3    H229008   1.339   8.395  15.224 -0.3786 -1.3588 -0.2768
 1605TIP3   OH229009   5.353   1.568  15.867 -0.0743 -0.0061  0.1112
 1605TIP3    H129010   5.356   1.589  15.774  0.6990  2.0852  0.5531
 1605TIP3    H229011   5.370   1.474  15.871  1.1311  0.0838 -1.7738
 1606TIP3   OH229012   5.605   5.566  15.069 -0.0058 -0.1543  0.4900
 1606TIP3    H129013   5.527   5.619  15.057 -1.0490 -1.6033  0.6545
 1606TIP3    H229014   5.613   5.516  14.987  1.0773  0.3516  0.2554
 1607TIP3   OH229015   6.524   0.823  15.894  0.5353 -0.4572  0.1924
 1607TIP3    H129016   6.600   0.830  15.836 -0.4359 -0.9094 -1.1967
 1607TIP3    H229017   6.537   0.742  15.943  0.3344 -1.2289 -0.9954
 1608TIP3   OH229018   7.130   1.260  16.094 -0.0155  0.0562  0.2848
 1608TIP3    H129019   7.120   1.294  16.005 -0.2645  0.3430  0.4213
 1608TIP3    H229020   7.108   1.167  16.087 -1.4781  0.3887  0.3291
 1609TIP3   OH229021   5.426   4.212  15.779  0.3490  0.0894  0.2096
 1609TIP3    H129022   5.481   4.265  15.837 -0.1553  0.1694  0.6221
 1609TIP3    H229023   5.336   4.239  15.800  0.1900  0.9943 -1.4432
 1610TIP3   OH229024   0.372   8.368  16.119  0.0240  0.1167 -0.2678
 1610TIP3    H129025   0.301   8.432  16.115  0.7803  1.0219  0.4759
 1610TIP3    H229026   0.352   8.306  16.049 -1.0656  0.8065 -0.5879
 1611TIP3   OH229027   2.625   5.185  13.972 -0.0525  0.9657  0.4035
 1611TIP3    H129028   2.535   5.156  13.960  0.0940  0.0003  1.4305
 1611TIP3    H229029   2.664   5.180  13.885 -0.7993  0.7020  0.0813
 1612TIP3   OH229030   3.431   6.044  13.869  0.6162 -0.0676 -0.0266
 1612TIP3    H129031   3.506   6.101  13.885  0.2452  0.3842  0.1339
 1612TIP3    H229032   3.409   6.009  13.955 -0.9492  1.8242  0.4344
 1613TIP3   OH229033   0.689   6.669  15.017 -0.6171 -0.4132 -0.1652
 1613TIP3    H129034   0.683   6.747  14.962  0.5747 -1.3589 -1.7285
 1613TIP3    H229035   0.773   6.680  15.063 -2.1561  0.9656  2.5342
 1614TIP3   OH229036   2.259   8.353  13.858  0.2519  0.3372  0.4892
 1614TIP3    H129037   2.279   8.340  13.951 -0.2103 -2.8150  0.2653
 1614TIP3    H229038   2.270   8.266  13.819  0.8254  1.6258 -2.5273
 1615TIP3   OH229039   4.036   3.128  15.621 -0.6307  0.2764 -0.7543
 1615TIP3    H129040   4.110   3.157  15.568  0.7910 -0.9478  0.4544
 1615TIP3    H229041   4.060   3.152  15.711 -1.5572 -0.3859 -0.3151
 1616TIP3   OH229042   0.594   4.594  15.795 -0.1103 -0.2595  0.0421
 1616TIP3    H129043   0.591   4.632  15.882 -0.6439 -0.7189  0.2254
 1616TIP3    H229044   0.673   4.539  15.795 -1.9198 -3.0559  1.4215
 1617TIP3   OH229045   2.277   1.963  14.949 -0.2232  0.4473  0.3988
 1617TIP3    H129046   2.335   2.027  14.992  1.8393 -1.1147  0.0922
 1617TIP3    H229047   2.239   1.913  15.021  0.0785  0.4573  0.5691
 1618TIP3   OH229048   1.132   7.993  16.127  0.1656 -0.2281  0.2055
 1618TIP3    H129049   1.156   8.082  16.155  0.5695 -0.6906  1.4204
 1618TIP3    H229050   1.139   7.995  16.032  0.9576  0.8194  0.2663
 1619TIP3   OH229051   2.971   8.272  14.912 -0.2822  0.1331  0.1198
 1619TIP3    H129052   3.013   8.191  14.881  1.0941  0.0358  2.0424
 1619TIP3    H229053   3.033   8.307  14.976 -1.9143  1.5140  1.0070
 1620TIP3   OH229054   4.183   4.608  15.700  0.4886 -0.4502 -0.0920
 1620TIP3    H129055   4.149   4.628  15.613  2.0010  1.7387 -0.2353
 1620TIP3    H229056   4.105   4.587  15.752 -0.7709  1.3202 -1.1918
 1621TIP3   OH229057   2.541   2.058  15.081 -0.1577 -1.3223 -0.3785
 1621TIP3    H129058   2.583   2.093  15.002  1.0111 -1.4435  0.1697
 1621TIP3    H229059   2.542   2.131  15.143  1.6692 -2.0720  0.5354
 1622TIP3   OH229060   3.823   1.297  14.924 -0.1777  0.4955 -0.0307
 1622TIP3    H129061   3.743   1.266  14.966  0.2685  0.3003  0.6912
 1622TIP3    H229062   3.850   1.373  14.976 -0.5501  1.3242 -1.0101
 1623TIP3   OH229063   7.264   0.533  14.974 -0.1349  0.0379 -0.1523
 1623TIP3    H129064   7.211   0.535  15.054  0.3829 -2.2252  0.3002
 1623TIP3    H229065   7.200   0.543  14.903 -0.8915 -0.3412  0.4635
 1624TIP3   OH229066   5.568   5.530  14.055 -0.2077 -0.1078 -0.6296
 1624TIP3    H129067   5.625   5.581  13.998 -2.1338 -0.1036 -2.7057
 1624TIP3    H229068   5.480   5.542  14.018 -1.6072 -0.0899  2.4084
 1625TIP3   OH229069   1.854   7.194  14.972  0.2112  0.0883  0.5218
 1625TIP3    H129070   1.763   7.183  14.945  0.4363  0.0255 -0.2215
 1625TIP3    H229071   1.896   7.112  14.949  0.3833 -0.0239  1.2086
 1626TIP3   OH229072   2.116   5.837  14.867  0.3022  0.0857 -0.1156
 1626TIP3    H129073   2.052   5.893  14.912  0.3307  0.2321 -0.2536
 1626TIP3    H229074   2.110   5.864  14.775  0.7074  0.2456 -0.0975
 1627TIP3   OH229075   6.495   7.134  15.063 -0.7463  0.4703 -0.5987
 1627TIP3    H129076   6.410   7.171  15.038 -0.9819 -0.3315 -1.0230
 1627TIP3    H229077   6.527   7.091  14.984  0.0243  0.6945 -0.4185
 1628TIP3   OH229078   5.431   0.661  14.163  0.1114  0.2587 -0.3509
 1628TIP3    H129079   5.452   0.754  14.154 -0.0569  0.5805  1.9314
 1628TIP3    H229080   5.504   0.616  14.121  2.2227  1.4190  1.8207
 1629TIP3   OH229081   2.073   4.238  15.202  0.3689  1.1805  0.6096
 1629TIP3    H129082   2.050   4.218  15.293 -0.5771 -0.6486  0.0029
 1629TIP3    H229083   2.169   4.235  15.201  0.3511 -1.0358  1.1120
 1630TIP3   OH229084   6.897   6.818  14.465  0.3053 -0.3718  0.2710
 1630TIP3    H129085   6.848   6.763  14.525  0.5026 -0.5190  0.2993
 1630TIP3    H229086   6.858   6.905  14.473 -0.3964 -0.6393 -0.2121
 1631TIP3   OH229087   3.237   1.447  13.935  0.5746  0.4212  0.4787
 1631TIP3    H129088   3.147   1.419  13.952 -0.6410  3.6494  0.1442
 1631TIP3    H229089   3.278   1.450  14.021  0.1179 -0.2619  0.7268
 1632TIP3   OH229090   3.433   5.191  15.722  0.6439 -0.4182  0.2578
 1632TIP3    H129091   3.430   5.096  15.714 -0.1546 -0.4262  0.5680
 1632TIP3    H229092   3.524   5.214  15.702  1.2878 -1.4104  1.8664
 1633TIP3   OH229093   2.322   8.225  14.667  0.0259 -0.4010 -0.3468
 1633TIP3    H129094   2.324   8.312  14.707 -1.4640 -0.0696 -0.9112
 1633TIP3    H229095   2.275   8.171  14.731  0.2852 -0.6051 -0.3302
 1634TIP3   OH229096   6.053   4.797  16.075  0.4951  0.5220  0.0627
 1634TIP3    H129097   6.086   4.880  16.110 -1.6511  1.1162  0.8131
 1634TIP3    H229098   5.965   4.789  16.110  0.1093 -1.3849 -1.1749
 1635TIP3   OH229099   6.842   0.023  16.122  0.5112  0.3865  0.0901
 1635TIP3    H129100   6.886   0.107  16.137  1.7067 -0.1523 -0.2789
 1635TIP3    H229101   6.749   0.045  16.121  0.7268  1.5169  1.2256
 1636TIP3   OH229102   2.849   3.547  13.773  0.4887 -0.4348 -0.3325
 1636TIP3    H129103   2.915   3.581  13.713 -0.4107  0.0903 -1.0432
 1636TIP3    H229104   2.870   3.587  13.858  0.5487  0.4304 -0.7513
 1637TIP3   OH229105   1.787   7.188  13.563 -0.1816  0.7946 -0.0178
 1637TIP3    H129106   1.767   7.110  13.512 -0.1563  0.1254  0.9502
 1637TIP3    H229107   1.878   7.175  13.591 -0.3905  0.8198  0.7119
 1638TIP3   OH229108   2.724   0.248  14.640 -0.2813 -0.3885  0.1255
 1638TIP3    H129109   2.648   0.265  14.584 -1.2191 -1.7106  0.9227
 1638TIP3    H229110   2.747   0.157  14.622  1.6033  0.1793 -0.6138
 1639TIP3   OH229111   4.670   2.423  16.023  0.0992 -0.4371 -0.2873
 1639TIP3    H129112   4.609   2.354  16.050  1.4122 -1.5673 -0.0942
 1639TIP3    H229113   4.634   2.503  16.060 -0.1216 -1.3940  1.6647
 1640TIP3   OH229114   3.759   0.667  14.302  0.5303  0.4089 -0.0955
 1640TIP3    H129115   3.732   0.759  14.306  2.3951  0.9592  1.3515
 1640TIP3    H229116   3.849   0.669  14.272  0.5665 -0.9704 -0.1459
 1641TIP3   OH229117   7.639   7.141  15.152 -0.2145 -0.1202  0.2232
 1641TIP3    H129118   7.615   7.061  15.106  2.4719 -2.0975  1.9172
 1641TIP3    H229119   7.604   7.130  15.241 -1.5207  1.5896 -0.0092
 1642TIP3   OH229120   2.848   3.909  15.696 -0.6466 -0.9145 -0.3919
 1642TIP3    H129121   2.940   3.903  15.671 -0.7181 -0.3351 -0.8109
 1642TIP3    H229122   2.843   3.985  15.753 -0.5997 -1.8651  0.9278
 1643TIP3   OH229123   4.182   2.523  14.170 -0.3401  0.3631 -0.2160
 1643TIP3    H129124   4.259   2.468  14.185 -0.5595  0.6045  2.0646
 1643TIP3    H229125   4.153   2.498  14.082  0.5717 -1.9349  0.0430
 1644TIP3   OH229126   2.080   2.958  15.128  0.0473  0.4748 -0.4569
 1644TIP3    H129127   2.166   2.931  15.161  0.0184  0.6993 -0.1872
 1644TIP3    H229128   2.083   2.941  15.034  0.2488  0.1214 -0.3887
 1645TIP3   OH229129   0.932   1.937  15.594 -0.5168 -0.1887  0.2692
 1645TIP3    H129130   0.847   1.968  15.564  0.2483  0.2563 -1.6338
 1645TIP3    H229131   0.987   2.015  15.595  0.5972 -0.8875 -1.4196
 1646TIP3   OH229132   2.339   1.979  15.555 -0.6698 -0.3478  0.4150
 1646TIP3    H129133   2.290   2.014  15.629  0.4395 -1.1588  1.5674
 1646TIP3    H229134   2.424   2.024  15.558 -1.1559  0.8210 -1.3743
 1647TIP3   OH229135   7.248   5.405  14.082  0.2527  0.2690 -0.4654
 1647TIP3    H129136   7.171   5.358  14.049  0.7006  0.7518 -2.3270
 1647TIP3    H229137   7.212   5.488  14.115  0.0476  1.0258 -2.4564
 1648TIP3   OH229138   5.505   4.601  15.019  0.1236 -0.4731  0.1625
 1648TIP3    H129139   5.462   4.613  15.104 -0.6973 -0.4351 -0.2446
 1648TIP3    H229140   5.557   4.680  15.007 -0.8649  0.1624 -0.0005
 1649TIP3   OH229141   8.225   7.178  14.320 -0.4223  0.3729 -0.5629
 1649TIP3    H129142   8.284   7.201  14.248 -0.2440 -0.7598 -0.7928
 1649TIP3    H229143   8.143   7.155  14.277 -0.7861  1.1554 -0.2970
 1650TIP3   OH229144   0.344   1.805  15.357  0.4168 -0.1354  0.5293
 1650TIP3    H129145   0.362   1.898  15.343  0.3391 -0.3352 -1.1312
 1650TIP3    H229146   0.263   1.804  15.408 -0.2736  0.7317 -0.4866
 1651TIP3   OH229147   4.828   1.806  14.059 -0.3207  0.1098 -0.9899
 1651TIP3    H129148   4.904   1.840  14.011  0.9621 -0.8100  0.2831
 1651TIP3    H229149   4.799   1.880  14.113  3.1127 -0.7974  2.5777
 1652TIP3   OH229150   6.967   3.024  15.792 -0.5107  0.3928  0.2045
 1652TIP3    H129151   7.043   3.056  15.840 -0.3568 -1.2679  1.1644
 1652TIP3    H229152   6.996   3.019  15.701  0.7637 -0.7540  0.6374
 1653TIP3   OH229153   2.864   3.736  14.803  0.2239  0.3499  0.0469
 1653TIP3    H129154   2.809   3.668  14.843 -0.5722  1.5796  1.1288
 1653TIP3    H229155   2.806   3.780  14.740  0.0518  1.4127  0.9196
 1654TIP3   OH229156   5.302   5.868  15.501  0.5475  0.3246  0.2753
 1654TIP3    H129157   5.309   5.864  15.596  2.0342  1.8821  0.2638
 1654TIP3    H229158   5.215   5.831  15.482 -0.5890  1.7096  2.3775
 1655TIP3   OH229159   0.669   6.171  14.248 -0.2159  0.3878 -0.0502
 1655TIP3    H129160   0.748   6.155  14.299 -0.5234  2.3678  1.1614
 1655TIP3    H229161   0.605   6.205  14.311 -0.8455  2.2588 -1.5791
 1656TIP3   OH229162   6.732   0.575  14.886 -0.2109 -0.1273  0.3523
 1656TIP3    H129163   6.643   0.543  14.899 -0.6345  1.2715  1.0450
 1656TIP3    H229164   6.737   0.655  14.939  1.4545 -0.1859  0.3321
 1657TIP3   OH229165   7.757   2.281  14.521  0.3215 -0.1234  0.3619
 1657TIP3    H129166   7.712   2.329  14.591  3.4895  2.7468  0.6588
 1657TIP3    H229167   7.836   2.246  14.562  1.6167  0.5217 -1.4686
 1658TIP3   OH229168   6.361   6.325  14.590  0.3458  0.2200  0.2131
 1658TIP3    H129169   6.319   6.398  14.636 -2.2666 -0.8899 -0.2819
 1658TIP3    H229170   6.385   6.264  14.660  0.5895  0.5601  0.4348
 1659TIP3   OH229171   0.980   6.694  13.607 -0.2466  0.4860 -0.7671
 1659TIP3    H129172   0.932   6.777  13.609 -0.9435  0.0848 -0.0019
 1659TIP3    H229173   0.972   6.660  13.697 -0.7694 -0.8418 -1.2867
 1660TIP3   OH229174   1.953   3.946  14.435 -0.1553  0.6226 -0.2543
 1660TIP3    H129175   1.858   3.940  14.420  0.1531 -3.1892 -1.7452
 1660TIP3    H229176   1.961   3.962  14.529 -2.3859 -2.1897  0.5705
 1661TIP3   OH229177   3.438   0.339  15.833 -0.0813  0.2491  0.1838
 1661TIP3    H129178   3.368   0.381  15.884 -0.6008 -0.6669  0.2530
 1661TIP3    H229179   3.392   0.296  15.760  0.3684 -0.5823  0.3767
 1662TIP3   OH229180   7.050   4.174  16.384  0.1362  0.0750 -0.1481
 1662TIP3    H129181   7.003   4.157  16.465 -0.3049  1.2569 -0.1495
 1662TIP3    H229182   7.036   4.267  16.366  0.4386 -0.1095 -1.4412
 1663TIP3   OH229183   3.560   1.947  15.933  0.2163  0.5301 -0.1373
 1663TIP3    H129184   3.650   1.955  15.966  0.2973 -1.4979  0.2692
 1663TIP3    H229185   3.556   2.009  15.860  1.6829  1.2417  0.3271
 1664TIP3   OH229186   1.956   7.609  14.992  0.1245 -0.0847 -0.4500
 1664TIP3    H129187   2.014   7.594  14.918  1.4796  3.2943 -0.2727
 1664TIP3    H229188   2.012   7.650  15.058 -1.3333 -1.7603  1.9814
 1665TIP3   OH229189   4.249   0.734  14.780  0.2412 -0.5427  0.3428
 1665TIP3    H129190   4.169   0.693  14.745  0.8292  0.1234 -2.0128
 1665TIP3    H229191   4.217   0.806  14.834 -0.8099  0.1983 -1.1808
 1666TIP3   OH229192   3.322   0.980  15.696  0.0160 -0.3003  0.2119
 1666TIP3    H129193   3.305   0.907  15.756 -0.5437  1.4808  2.3552
 1666TIP3    H229194   3.417   0.981  15.687  0.0615 -1.0324  0.4865
 1667TIP3   OH229195   0.089   5.724  14.615 -0.2307 -0.1174  0.4046
 1667TIP3    H129196   0.096   5.736  14.520 -3.0718  0.7787  0.2032
 1667TIP3    H229197   0.092   5.629  14.628  0.1433 -0.2481 -0.5764
 1668TIP3   OH229198   7.440   6.562  15.037  0.1818  0.5774  0.1174
 1668TIP3    H129199   7.373   6.614  14.991 -0.7171 -0.7065 -0.0752
 1668TIP3    H229200   7.484   6.513  14.967 -1.2794 -1.4903  0.5396
 1669TIP3   OH229201   2.210   0.955  15.769 -0.4289 -0.0021  0.1411
 1669TIP3    H129202   2.142   1.018  15.793  0.8863  1.3495  0.5112
 1669TIP3    H229203   2.291   1.007  15.769  0.7895 -1.8140  0.9570
 1670TIP3   OH229204   1.914   5.569  14.588  0.0293  0.0551 -0.2582
 1670TIP3    H129205   1.985   5.515  14.620 -0.2645 -0.9197 -1.2124
 1670TIP3    H229206   1.907   5.548  14.495 -0.6620  1.0902 -0.4607
 1671TIP3   OH229207   0.965   8.240  14.229 -0.7271 -0.3130 -0.1943
 1671TIP3    H129208   1.008   8.324  14.243 -0.2993 -0.7306  1.1067
 1671TIP3    H229209   1.034   8.184  14.192 -1.0393 -0.0740 -1.1595
 1672TIP3   OH229210   7.085   8.203  14.919  0.2777  0.2306 -0.2349
 1672TIP3    H129211   7.020   8.272  14.909  1.6375  1.3269 -2.2717
 1672TIP3    H229212   7.103   8.173  14.830 -0.2274 -2.8117  0.5618
 1673TIP3   OH229213   5.674   8.083  15.257  0.0367 -0.7758  0.1334
 1673TIP3    H129214   5.700   8.009  15.202 -0.9538 -0.1064 -1.3155
 1673TIP3    H229215   5.579   8.075  15.264  0.0882 -0.5089  1.2959
 1674TIP3   OH229216   7.174   1.444  14.280  0.3637 -0.1707 -0.4184
 1674TIP3    H129217   7.194   1.353  14.304  1.5396 -0.2257 -1.4711
 1674TIP3    H229218   7.189   1.447  14.185 -0.1961  1.0018 -0.4909
 1675TIP3   OH229219   0.448   0.505  14.991 -0.3909 -0.1646  0.0598
 1675TIP3    H129220   0.465   0.594  15.022 -3.4478  0.5018  0.1323
 1675TIP3    H229221   0.429   0.516  14.897 -0.4765 -0.7824  0.0036
 1676TIP3   OH229222   3.669   0.253  15.670  0.2885  0.2901  0.2160
 1676TIP3    H129223   3.676   0.310  15.593  0.4306  1.1376  0.8471
 1676TIP3    H229224   3.624   0.306  15.735 -1.4665 -1.0223  0.1645
 1677TIP3   OH229225   3.358   4.908  15.706 -0.1246 -0.3032  0.0487
 1677TIP3    H129226   3.304   4.847  15.756  0.0123 -0.4174  0.0565
 1677TIP3    H229227   3.427   4.854  15.668 -0.0025 -0.1538  0.0556
 1678TIP3   OH229228   0.752   6.457  14.260 -0.3970 -0.3744  0.1085
 1678TIP3    H129229   0.744   6.455  14.355 -3.6672 -0.2976 -0.0470
 1678TIP3    H229230   0.720   6.372  14.231 -3.0585  0.8523 -0.9594
 1679TIP3   OH229231   5.698   4.821  15.551 -0.5897 -0.0571  0.4467
 1679TIP3    H129232   5.740   4.753  15.604 -2.5759  0.1280  2.4693
 1679TIP3    H229233   5.714   4.902  15.599  0.9676  0.8325 -1.4501
 1680TIP3   OH229234   0.988   4.917  15.823  0.2796 -0.2492 -0.0690
 1680TIP3    H129235   1.053   4.974  15.864  1.8952 -1.4763 -0.8005
 1680TIP3    H229236   0.973   4.847  15.887  0.0808 -0.2565 -0.1212
 1681TIP3   OH229237   1.465   0.256  15.926  0.1292  0.3481 -0.2339
 1681TIP3    H129238   1.400   0.320  15.896 -1.3222  1.5942  4.6652
 1681TIP3    H229239   1.547   0.305  15.931  0.1341  0.4230 -0.9341
 1682TIP3   OH229240   3.468   3.117  13.930 -0.3828 -0.1072  0.4332
 1682TIP3    H129241   3.517   3.145  14.007 -0.5087  0.3568  0.3447
 1682TIP3    H229242   3.528   3.059  13.883  0.1007  0.4976  0.2979
 1683TIP3   OH229243   2.741   2.665  15.055  0.0497  0.5612 -0.2652
 1683TIP3    H129244   2.817   2.616  15.086 -0.9183 -0.2786  0.8718
 1683TIP3    H229245   2.674   2.598  15.040  0.0188  1.0888 -2.9144
 1684TIP3   OH229246   3.101   3.634  13.750  0.3952  0.2046 -0.4732
 1684TIP3    H129247   3.189   3.625  13.715  1.2716  0.2193  1.6230
 1684TIP3    H229248   3.112   3.676  13.835 -1.7734  1.6655 -0.8065
 1685TIP3   OH229249   1.816   2.363  15.116 -0.0081 -0.1904 -0.2385
 1685TIP3    H129250   1.777   2.283  15.151 -0.6663 -1.0847 -2.8349
 1685TIP3    H229251   1.891   2.333  15.065 -0.9829  0.6642 -2.2717
 1686TIP3   OH229252   7.280   6.211  13.943 -0.1225 -0.5488  0.2073
 1686TIP3    H129253   7.335   6.272  13.993  1.6037 -1.4656 -0.4827
 1686TIP3    H229254   7.319   6.125  13.959 -0.6892 -1.0971 -1.1892
 1687TIP3   OH229255   8.249   7.373  14.522 -0.2977  0.0099  0.0622
 1687TIP3    H129256   8.235   7.290  14.476  0.1201 -1.7704  2.9040
 1687TIP3    H229257   8.321   7.414  14.474  2.0862 -3.0860  0.6158
 1688TIP3   OH229258   4.118   6.245  14.382  0.0499  0.0761 -0.0482
 1688TIP3    H129259   4.094   6.324  14.335 -0.5022 -1.3656 -2.3470
 1688TIP3    H229260   4.045   6.185  14.368  1.1853 -1.4262  0.1362
 1689TIP3   OH229261   7.778   1.633  15.158 -0.2011 -0.0644 -0.0356
 1689TIP3    H129262   7.735   1.627  15.244  1.2030 -0.6773  0.6573
 1689TIP3    H229263   7.816   1.547  15.144 -1.0750 -0.2215 -1.6773
 1690TIP3   OH229264   2.417   3.495  14.134 -0.5391  0.0095  0.2529
 1690TIP3    H129265   2.499   3.544  14.122 -0.6664  0.7817  2.2027
 1690TIP3    H229266   2.349   3.553  14.100 -0.3749 -0.3468 -0.7311
 1691TIP3   OH229267   0.189   3.651  15.159 -0.4604  0.0576 -0.2627
 1691TIP3    H129268   0.240   3.685  15.232 -2.2494  0.3205  0.9304
 1691TIP3    H229269   0.139   3.726  15.127 -1.7245 -0.6271  0.0358
 1692TIP3   OH229270   2.552   8.423  13.587  0.8561  0.0407 -0.9954
 1692TIP3    H129271   2.536   8.331  13.566 -0.6263 -0.3975  1.5619
 1692TIP3    H229272   2.469   8.467  13.568  0.7005  0.3080  0.2132
 1693TIP3   OH229273   6.624   1.827  14.469  0.5713  0.2786 -0.2160
 1693TIP3    H129274   6.556   1.805  14.406 -0.3574 -1.1180  1.2345
 1693TIP3    H229275   6.669   1.903  14.430 -0.9700  0.4292 -1.7895
 1694TIP3   OH229276   7.268   0.683  15.663 -0.1653  0.5148  0.5834
 1694TIP3    H129277   7.295   0.591  15.659  0.6047  0.7754 -0.9301
 1694TIP3    H229278   7.210   0.687  15.739  1.6324 -0.7067  2.0889
 1695TIP3   OH229279   1.566   3.735  16.052 -0.3730  0.4068 -0.3825
 1695TIP3    H129280   1.521   3.744  15.968 -1.2465  0.7938  0.1210
 1695TIP3    H229281   1.523   3.661  16.095  0.3140 -0.0239 -0.4193
 1696TIP3   OH229282   1.946   0.518  16.160 -0.8834 -0.2129 -0.2299
 1696TIP3    H129283   1.987   0.521  16.247  0.3528 -0.2807 -0.7888
 1696TIP3    H229284   2.002   0.459  16.110 -1.5832 -0.1678 -1.0786
 1697TIP3   OH229285   6.280   6.684  14.951  0.0838  0.4427 -0.7211
 1697TIP3    H129286   6.314   6.715  15.036  2.5896 -3.0794 -0.1913
 1697TIP3    H229287   6.198   6.640  14.973 -0.1952  1.0847 -0.4486
 1698TIP3   OH229288   8.000   3.208  15.430 -0.5097  0.0456 -0.1797
 1698TIP3    H129289   8.093   3.232  15.429 -0.6853  0.8453  0.8220
 1698TIP3    H229290   7.959   3.266  15.366 -0.5277  0.6577  0.3782
 1699TIP3   OH229291   2.493   7.216  14.270  0.1492 -0.0016 -0.0689
 1699TIP3    H129292   2.572   7.206  14.324  1.6291  1.1964 -1.8986
 1699TIP3    H229293   2.421   7.216  14.333  1.6307 -0.6726  1.7120
 1700TIP3   OH229294   3.217   4.242  15.838  0.6307 -0.3055  0.6665
 1700TIP3    H129295   3.312   4.239  15.850  0.6723 -0.4439  0.3200
 1700TIP3    H229296   3.183   4.270  15.923  0.9197 -1.0433  1.0288
 1701TIP3   OH229297   7.636   0.098  14.403 -0.1791  0.0903 -0.1547
 1701TIP3    H129298   7.650   0.145  14.486  2.6331 -0.4981 -0.1798
 1701TIP3    H229299   7.546   0.067  14.408 -0.3855  0.8298  2.2910
 1702TIP3   OH229300   6.669   4.826  15.887 -0.0771  0.1666  0.3010
 1702TIP3    H129301   6.736   4.773  15.842  0.0543  0.8374 -0.3243
 1702TIP3    H229302   6.586   4.788  15.858  0.0190  0.0678  0.1474
 1703TIP3   OH229303   0.518   5.675  14.053 -0.3933  0.6420  0.2208
 1703TIP3    H129304   0.601   5.720  14.071 -0.3556  0.5042  0.3910
 1703TIP3    H229305   0.510   5.677  13.957  0.7981 -1.0849  0.0350
 1704TIP3   OH229306   0.991   4.254  15.943  0.4458 -0.1020  0.2925
 1704TIP3    H129307   0.947   4.178  15.903  1.8194  0.2952 -2.2141
 1704TIP3    H229308   1.066   4.216  15.989  0.5377 -0.3450 -0.0533
 1705TIP3   OH229309   4.549   3.925  15.353  0.2467 -0.5951 -0.6786
 1705TIP3    H129310   4.529   3.839  15.317  1.6740 -1.8602  1.3923
 1705TIP3    H229311   4.508   3.925  15.439 -1.1794  1.5048 -1.2605
 1706TIP3   OH229312   6.043   6.130  15.016 -0.8366 -0.2888  0.1197
 1706TIP3    H129313   5.984   6.076  15.069 -1.5577  0.3425 -0.0158
 1706TIP3    H229314   5.985   6.192  14.972 -0.4323 -1.5584 -2.3908
 1707TIP3   OH229315   0.254   7.814  14.487 -0.2944  0.4654  0.0258
 1707TIP3    H129316   0.223   7.750  14.423  1.3516 -0.9015  0.5078
 1707TIP3    H229317   0.178   7.831  14.543 -0.5227 -1.9396  0.5442
 1708TIP3   OH229318   6.994   6.050  15.019  0.1387  0.6702  0.0956
 1708TIP3    H129319   6.974   5.958  15.004  1.1180  0.5677 -0.6734
 1708TIP3    H229320   6.968   6.065  15.110 -0.5477 -0.2115  0.0638
 1709TIP3   OH229321   4.528   7.128  15.512 -0.2510 -0.1477 -0.0829
 1709TIP3    H129322   4.560   7.043  15.541 -2.8384 -1.0980  0.2200
 1709TIP3    H229323   4.447   7.108  15.464 -0.2989  2.0545 -1.0268
 1710TIP3   OH229324   2.196   5.608  14.523  0.4979 -0.5807  0.2958
 1710TIP3    H129325   2.155   5.619  14.437  0.2438  0.6442  0.5441
 1710TIP3    H229326   2.263   5.676  14.525  1.0648 -1.1527  0.7463
 1711TIP3   OH229327   6.596   1.463  15.435  0.7417 -0.6618  0.0312
 1711TIP3    H129328   6.642   1.389  15.396 -0.1939 -0.8479 -0.7501
 1711TIP3    H229329   6.507   1.432  15.448  0.5765  0.0225  0.5948
 1712TIP3   OH229330   7.181   6.369  15.880  0.6406 -0.1142  0.1283
 1712TIP3    H129331   7.173   6.383  15.786  2.3143 -0.1118 -0.0433
 1712TIP3    H229332   7.233   6.289  15.889 -0.3080 -0.6623  1.0695
 1713TIP3   OH229333   1.973   3.847  15.636 -0.2279 -0.1022 -0.4528
 1713TIP3    H129334   1.924   3.789  15.576 -0.2805 -1.6851  1.0412
 1713TIP3    H229335   1.905   3.894  15.684 -0.3705 -1.8178  1.1552
 1714TIP3   OH229336   8.154   4.444  14.807 -0.7734 -0.2858 -0.2653
 1714TIP3    H129337   8.106   4.393  14.871 -0.7109 -0.1676 -0.1253
 1714TIP3    H229338   8.128   4.407  14.722 -0.1601 -1.0560 -0.1303
 1715TIP3   OH229339   7.483   4.906  16.027 -0.2642  0.4177 -0.5080
 1715TIP3    H129340   7.389   4.904  16.012 -1.0637  0.1874  3.4866
 1715TIP3    H229341   7.496   4.968  16.098  1.9711 -2.5217  1.9446
 1716TIP3   OH229342   5.993   3.244  14.640  0.4296 -0.1126  0.0183
 1716TIP3    H129343   6.029   3.247  14.551 -1.5283 -0.0004 -0.8123
 1716TIP3    H229344   5.955   3.157  14.647 -0.5737  0.3301  0.2541
 1717TIP3   OH229345   4.036   0.960  14.062 -0.5861 -0.4451 -0.0024
 1717TIP3    H129346   3.998   0.941  14.148  0.0144 -0.3543  0.2905
 1717TIP3    H229347   4.025   1.055  14.053 -1.6824 -0.6104 -0.5383
 1718TIP3   OH229348   2.632   5.134  14.452 -0.4389  0.1210  0.1926
 1718TIP3    H129349   2.645   5.177  14.537 -1.2803  0.9839 -0.0944
 1718TIP3    H229350   2.554   5.080  14.465  0.6485 -1.4420  0.5712
 1719TIP3   OH229351   0.469   6.170  13.935 -0.3846  0.1950  0.2243
 1719TIP3    H129352   0.516   6.097  13.977  0.5778  0.5050 -0.2965
 1719TIP3    H229353   0.465   6.146  13.843 -1.8938 -0.1523  0.3467
 1720TIP3   OH229354   6.688   5.451  14.464  0.3095 -0.3317  0.2619
 1720TIP3    H129355   6.712   5.425  14.553  0.7915  0.9321  0.5098
 1720TIP3    H229356   6.766   5.494  14.429  0.4241 -1.5643 -1.0954
 1721TIP3   OH229357   1.127   3.827  16.017 -0.0241  0.5560  0.3813
 1721TIP3    H129358   1.192   3.757  16.008 -2.2909 -1.4786 -1.3579
 1721TIP3    H229359   1.067   3.796  16.084 -1.3364  0.5811 -0.7558
 1722TIP3   OH229360   0.864   8.398  15.113  0.2235  0.1186  0.0778
 1722TIP3    H129361   0.806   8.462  15.153  1.3961  0.2684  1.6573
 1722TIP3    H229362   0.888   8.339  15.185  2.4694  0.4411 -0.3225
 1723TIP3   OH229363   3.098   0.308  14.427 -0.1356 -0.2858  0.2204
 1723TIP3    H129364   3.137   0.220  14.427  0.4278 -0.0386 -0.2303
 1723TIP3    H229365   3.135   0.351  14.350 -1.1399  0.0333 -0.1022
 1724TIP3   OH229366   4.974   7.020  14.884  0.7049 -0.1756  0.3365
 1724TIP3    H129367   4.997   7.094  14.828  0.8404 -0.2774  0.2589
 1724TIP3    H229368   4.885   6.997  14.857  0.7397 -0.1737  0.2161
 1725TIP3   OH229369   1.615   0.504  14.517  0.5243  0.5379  0.4514
 1725TIP3    H129370   1.578   0.571  14.460 -0.3976 -0.4950 -0.2031
 1725TIP3    H229371   1.676   0.455  14.462 -1.7583 -1.6691 -0.2901
 1726TIP3   OH229372   1.586   3.566  14.904 -0.0858 -0.1269  0.4827
 1726TIP3    H129373   1.593   3.489  14.961  0.8919  0.2467  0.8785
 1726TIP3    H229374   1.651   3.627  14.937  0.6866  0.0160 -1.1713
 1727TIP3   OH229375   3.622   0.736  14.917 -0.2588  0.3251  0.3842
 1727TIP3    H129376   3.533   0.772  14.919 -0.4354 -0.0015 -0.8615
 1727TIP3    H229377   3.612   0.651  14.875  0.3470 -0.6510  2.1203
 1728TIP3   OH229378   0.890   3.936  15.550 -0.3346  0.0852 -0.2407
 1728TIP3    H129379   0.883   4.019  15.503 -0.5589 -0.4101 -1.0879
 1728TIP3    H229380   0.809   3.930  15.601  0.9303  1.7811  2.1980
 1729TIP3   OH229381   2.435   4.201  15.436  0.4628 -0.6662  0.4211
 1729TIP3    H129382   2.379   4.278  15.423  1.7349  0.3154  0.5303
 1729TIP3    H229383   2.385   4.145  15.495 -1.1180 -0.6180 -0.8095
 1730TIP3   OH229384   3.066   3.190  15.936 -0.0261 -0.2861 -0.1495
 1730TIP3    H129385   3.081   3.131  16.010  0.9349 -0.5701 -0.5652
 1730TIP3    H229386   3.153   3.214  15.906 -0.3869 -0.6908 -1.6043
 1731TIP3   OH229387   7.988   2.830  14.737  0.0360  0.2805  0.3327
 1731TIP3    H129388   7.955   2.905  14.689  0.8730  0.2040 -0.3814
 1731TIP3    H229389   7.910   2.784  14.768 -0.5134  2.2583  2.1308
 1732TIP3   OH229390   0.952   0.944  15.751  0.1164  0.2969  0.1921
 1732TIP3    H129391   0.914   0.918  15.666 -0.4263 -1.1744  0.8501
 1732TIP3    H229392   1.046   0.944  15.736  0.0404 -0.2685 -0.3378
 1733TIP3   OH229393   0.967   3.626  15.784  0.0208 -0.3234 -0.2263
 1733TIP3    H129394   0.909   3.679  15.839 -0.1796 -2.3093  1.5898
 1733TIP3    H229395   1.039   3.686  15.762 -1.0965  1.2375  0.1670
 1734TIP3   OH229396   1.116   0.207  14.022 -0.3628 -0.0103  0.4600
 1734TIP3    H129397   1.170   0.181  13.948 -2.0141 -1.8992 -0.1670
 1734TIP3    H229398   1.041   0.251  13.983 -0.4179  0.5439  1.1663
 1735TIP3   OH229399   3.238   3.311  15.523 -1.1156 -0.1521  0.2630
 1735TIP3    H129400   3.261   3.285  15.433 -0.3412  1.4700 -0.0309
 1735TIP3    H229401   3.251   3.231  15.574 -0.8413 -0.9100 -0.9312
 1736TIP3   OH229402   3.660   3.855  15.407 -0.6804  0.7597 -0.0137
 1736TIP3    H129403   3.701   3.921  15.463  0.3603  1.2319 -1.2558
 1736TIP3    H229404   3.685   3.771  15.446  2.5078  0.9828 -1.2865
 1737TIP3   OH229405   4.697   5.636  13.844 -0.4054 -0.1696  0.0280
 1737TIP3    H129406   4.767   5.699  13.826 -1.2874  0.6017 -0.8259
 1737TIP3    H229407   4.630   5.686  13.889 -1.4803 -0.2467 -1.4010
 1738TIP3   OH229408   1.000   2.708  15.497 -0.1583 -0.1544 -0.3981
 1738TIP3    H129409   1.033   2.654  15.425  1.2933  1.5208 -1.0673
 1738TIP3    H229410   0.964   2.786  15.454  0.6399  0.8290  0.6725
 1739TIP3   OH229411   3.076   7.623  13.633 -0.5106 -0.3934  0.4073
 1739TIP3    H129412   3.152   7.680  13.624 -0.0642 -0.7321  1.8131
 1739TIP3    H229413   3.015   7.672  13.687 -0.1912 -1.1236  1.4839
 1740TIP3   OH229414   2.881   7.384  14.640  0.6848 -0.1940  0.1862
 1740TIP3    H129415   2.916   7.461  14.686  1.1608 -0.4354  0.2341
 1740TIP3    H229416   2.900   7.400  14.548  4.3340 -1.9796  0.4681
 1741TIP3   OH229417   1.489   7.061  15.411 -0.7020  0.0740 -0.3506
 1741TIP3    H129418   1.469   7.045  15.319  0.9486  0.7553 -0.8746
 1741TIP3    H229419   1.585   7.061  15.415 -0.7352 -0.2411  1.4334
 1742TIP3   OH229420   7.704   0.159  14.138  0.6095  0.5962 -0.1485
 1742TIP3    H129421   7.688   0.143  14.231 -0.4278  1.5461 -0.1387
 1742TIP3    H229422   7.781   0.217  14.136  1.1149 -0.0541  0.0608
 1743TIP3   OH229423   2.295   0.478  15.341 -0.0506  0.4541 -0.4806
 1743TIP3    H129424   2.355   0.547  15.312  0.5269  0.7154  1.2290
 1743TIP3    H229425   2.320   0.462  15.432 -1.0800 -1.0639 -0.4431
 1744TIP3   OH229426   5.754   8.438  15.879  0.3251 -0.1372 -0.3674
 1744TIP3    H129427   5.681   8.486  15.841  0.9547  0.7465 -0.5056
 1744TIP3    H229428   5.831   8.475  15.836  0.8649 -0.9092 -0.0794
 1745TIP3   OH229429   7.257   3.895  14.577  1.1201 -0.3010  0.0665
 1745TIP3    H129430   7.186   3.863  14.632  1.0607 -0.9931 -0.3948
 1745TIP3    H229431   7.253   3.990  14.585 -0.3470 -0.2832 -0.5386
 1746TIP3   OH229432   2.113   1.660  14.840  0.6385 -1.0115 -0.0452
 1746TIP3    H129433   2.166   1.692  14.913 -0.9299 -2.5295  1.8760
 1746TIP3    H229434   2.161   1.583  14.808  1.2910 -0.3899 -0.5872
 1747TIP3   OH229435   2.066   8.247  14.476 -0.1954  0.3720  0.1751
 1747TIP3    H129436   2.138   8.286  14.425  2.0240 -1.4127  1.7154
 1747TIP3    H229437   2.071   8.291  14.561  0.7517 -1.4524  1.1131
 1748TIP3   OH229438   7.829   1.938  14.256  0.5989  0.9471  0.0882
 1748TIP3    H129439   7.856   2.027  14.232  2.5074  0.5076  0.5000
 1748TIP3    H229440   7.754   1.951  14.315  1.6906  2.3601  1.2433
 1749TIP3   OH229441   5.605   0.013  14.970 -0.0125 -0.2763 -0.2779
 1749TIP3    H129442   5.573  -0.034  14.893  1.2321  0.5112 -1.3067
 1749TIP3    H229443   5.697  -0.012  14.977  0.6589  1.8843 -0.7961
 1750TIP3   OH229444   2.177   4.986  15.206  0.3922  0.4406  0.3207
 1750TIP3    H129445   2.247   5.018  15.263  3.0037  0.5169 -2.6616
 1750TIP3    H229446   2.159   5.059  15.146 -0.3903 -0.4642 -0.5950
 1751TIP3   OH229447   5.360   2.245  15.013  0.1579 -0.3839 -0.0175
 1751TIP3    H129448   5.317   2.299  15.079 -0.0603  1.0605 -1.2960
 1751TIP3    H229449   5.317   2.268  14.931 -0.0219 -2.6115 -0.6266
 1752TIP3   OH229450   4.996   7.063  14.362 -0.0485 -0.5319  0.4222
 1752TIP3    H129451   4.989   6.970  14.381 -0.9059 -0.6635 -0.4773
 1752TIP3    H229452   4.923   7.082  14.304 -0.7576  1.0287  1.7447
 1753TIP3   OH229453   3.639   1.798  13.828 -0.0245  0.2985  0.0667
 1753TIP3    H129454   3.635   1.872  13.889 -1.1417  0.3764 -0.0868
 1753TIP3    H229455   3.573   1.737  13.860 -0.7163  0.3901 -1.1122
 1754TIP3   OH229456   5.532   6.949  15.674 -0.5923  0.3702 -0.7046
 1754TIP3    H129457   5.546   6.887  15.602 -0.7269 -1.4831  0.7874
 1754TIP3    H229458   5.583   6.913  15.747  0.2726  2.6665 -0.0829
 1755TIP3   OH229459   7.728   4.564  15.005  0.2662 -0.5339  0.1786
 1755TIP3    H129460   7.709   4.635  15.066  0.5106 -0.2732 -0.0479
 1755TIP3    H229461   7.722   4.485  15.058 -1.1753 -0.4430  0.1746
 1756TIP3   OH229462   6.372   7.445  14.329 -0.2881 -0.4777  0.7709
 1756TIP3    H129463   6.460   7.416  14.353 -0.3690  0.2030  1.9948
 1756TIP3    H229464   6.319   7.365  14.329  0.7363 -1.3080 -2.3256
 1757TIP3   OH229465   3.512   2.625  14.752  0.0904 -0.1976  0.0562
 1757TIP3    H129466   3.429   2.659  14.783 -0.3460 -0.3686 -0.8657
 1757TIP3    H229467   3.573   2.699  14.757 -0.6999  0.6132 -1.3968
 1758TIP3   OH229468   5.727   1.684  14.907  0.0761  0.0200 -0.0735
 1758TIP3    H129469   5.665   1.667  14.836 -0.5219  0.2780  0.3753
 1758TIP3    H229470   5.786   1.609  14.907  0.5467  0.3669 -1.3179
 1759TIP3   OH229471   4.024   6.175  14.823  0.5175  0.7182 -0.0744
 1759TIP3    H129472   4.083   6.161  14.749 -0.8477 -1.0971 -0.8832
 1759TIP3    H229473   4.064   6.126  14.895  0.3639  0.0798 -0.4223
 1760TIP3   OH229474   6.303   0.116  15.990  0.1927 -0.1980 -0.9693
 1760TIP3    H129475   6.324   0.040  15.937  0.0437 -1.4725  0.7247
 1760TIP3    H229476   6.212   0.104  16.016  0.4579  0.0378  0.1255
 1761TIP3   OH229477   4.845   4.796  14.855  0.4842  0.0466 -0.3507
 1761TIP3    H129478   4.878   4.748  14.780 -0.4882 -1.7429  0.2944
 1761TIP3    H229479   4.892   4.759  14.930  0.1751  0.5607  0.1081
 1762TIP3   OH229480   3.033   3.969  15.365  0.3882 -0.3612 -0.1065
 1762TIP3    H129481   3.018   4.053  15.321 -0.2548 -1.2460 -1.6725
 1762TIP3    H229482   2.997   3.904  15.305 -1.6875 -1.6018  2.2589
 1763TIP3   OH229483   6.883   4.839  14.892 -0.2508  0.2781 -0.5540
 1763TIP3    H129484   6.810   4.814  14.835 -0.6905  0.2435  0.0117
 1763TIP3    H229485   6.854   4.815  14.980  0.3268  0.5313 -0.2862
 1764TIP3   OH229486   3.362   3.561  14.671 -0.0541  0.1847  0.1020
 1764TIP3    H129487   3.269   3.553  14.649 -0.3625 -0.5014  1.5456
 1764TIP3    H229488   3.372   3.650  14.703 -0.4161 -0.0010  0.7547
 1765TIP3   OH229489   1.094   2.528  15.695 -0.5474 -0.6375  0.0312
 1765TIP3    H129490   1.088   2.605  15.638  0.9513 -0.3877  0.1818
 1765TIP3    H229491   1.165   2.476  15.659 -0.8953 -1.4758  0.5163
 1766TIP3   OH229492   6.013   7.806  15.767 -0.2238  0.5004 -0.3239
 1766TIP3    H129493   6.082   7.740  15.763 -1.6464 -1.0731 -0.1388
 1766TIP3    H229494   5.947   7.774  15.705 -1.7654  0.7493  1.1449
 1767TIP3   OH229495   0.070   3.416  15.211  0.3086  0.2090  0.1965
 1767TIP3    H129496  -0.022   3.426  15.188  0.4009 -0.5266 -0.5004
 1767TIP3    H229497   0.109   3.501  15.190 -0.5304  1.1409  2.1577
 1768TIP3   OH229498   8.061   1.306  14.257  0.0294  0.3294 -0.0315
 1768TIP3    H129499   7.990   1.248  14.284 -0.3282  0.1203 -1.3538
 1768TIP3    H229500   8.091   1.270  14.173 -0.0779  1.9425 -0.7935
 1769TIP3   OH229501   5.555   1.850  16.121 -0.1659 -0.0778 -0.1814
 1769TIP3    H129502   5.649   1.838  16.107 -0.5120 -0.2911 -3.0625
 1769TIP3    H229503   5.521   1.763  16.139  0.2045  0.0506  1.2100
 1770TIP3   OH229504   5.129   7.388  14.140  0.4355 -0.4039  0.4710
 1770TIP3    H129505   5.041   7.352  14.138  0.8716 -1.5257  0.4925
 1770TIP3    H229506   5.135   7.433  14.224  0.1884 -1.1617  0.9085
 1771TIP3   OH229507   7.370   8.065  14.235  0.0440  0.2620  0.1388
 1771TIP3    H129508   7.279   8.041  14.216  0.3693 -0.8411 -0.0718
 1771TIP3    H229509   7.373   8.160  14.222 -0.6535  0.0731 -1.5751
 1772TIP3   OH229510   6.835   0.281  15.039 -0.4476 -0.0445  0.6577
 1772TIP3    H129511   6.770   0.309  15.103  0.8311  1.0715  1.5265
 1772TIP3    H229512   6.901   0.235  15.091 -0.0240 -0.2477 -0.0487
 1773TIP3   OH229513   3.425   1.893  14.500 -0.3538 -0.2059  0.7891
 1773TIP3    H129514   3.494   1.958  14.489 -1.4951  0.7219 -1.3876
 1773TIP3    H229515   3.456   1.817  14.450 -1.0102  0.3399 -0.4951
 1774TIP3   OH229516   6.196   3.905  15.774  0.2822 -0.3099 -0.6884
 1774TIP3    H129517   6.289   3.892  15.756  0.3477 -0.8266 -0.0219
 1774TIP3    H229518   6.188   3.999  15.792  0.7671 -0.3444 -0.2580
 1775TIP3   OH229519   3.652   6.433  15.346  0.0343 -0.3938  0.2205
 1775TIP3    H129520   3.745   6.419  15.328  0.0117 -2.8325  1.5414
 1775TIP3    H229521   3.645   6.435  15.442 -1.2623 -0.3540  0.1531
 1776TIP3   OH229522   0.147   4.809  15.348 -0.2059 -0.0645  0.4519
 1776TIP3    H129523   0.074   4.782  15.404 -0.1740  0.4427  0.7444
 1776TIP3    H229524   0.218   4.830  15.408 -0.5348  1.5753  0.3079
 1777TIP3   OH229525   6.815   2.335  15.294  0.5348  0.0291  0.0745
 1777TIP3    H129526   6.813   2.240  15.279  3.5231 -0.2047  0.6193
 1777TIP3    H229527   6.815   2.344  15.389 -0.7997  0.6764  0.0360
 1778TIP3   OH229528   1.433   4.897  14.539  0.2058 -0.0254  0.0759
 1778TIP3    H129529   1.375   4.937  14.603  0.4671  0.5528 -0.0443
 1778TIP3    H229530   1.440   4.806  14.567 -1.0183 -0.1912 -0.0896
 1779TIP3   OH229531   5.581   0.298  16.116  0.1223 -0.3654 -0.3682
 1779TIP3    H129532   5.543   0.306  16.028 -0.9130 -0.7248  0.0240
 1779TIP3    H229533   5.657   0.241  16.104  0.8375  0.7215 -1.2542
 1780TIP3   OH229534   1.422   0.580  13.526 -0.1217  0.3628  0.0521
 1780TIP3    H129535   1.459   0.599  13.612 -2.0697  2.3189  0.5419
 1780TIP3    H229536   1.484   0.617  13.464  1.0645 -0.6497  0.5906
 1781TIP3   OH229537   5.735   8.351  14.139  0.0432  0.6920 -0.0218
 1781TIP3    H129538   5.733   8.447  14.146 -0.5256  0.7195 -0.4880
 1781TIP3    H229539   5.739   8.334  14.045  0.3451  0.2597  0.0689
 1782TIP3   OH229540   0.948   1.971  16.170  0.0145  0.2747  0.9945
 1782TIP3    H129541   0.928   1.930  16.254 -1.6374  1.7135  1.3753
 1782TIP3    H229542   0.949   1.899  16.108  0.4271 -0.7097  2.1094
 1783TIP3   OH229543   4.088   6.894  14.749  0.1728  0.3630 -0.2952
 1783TIP3    H129544   4.063   6.984  14.770  1.4136  1.3815 -2.7697
 1783TIP3    H229545   4.158   6.874  14.811  0.5217  1.4674 -0.3111
 1784TIP3   OH229546   0.363   5.046  16.019 -0.2770  0.3969 -0.6167
 1784TIP3    H129547   0.333   4.961  16.052  1.0081  0.8499  2.0422
 1784TIP3    H229548   0.318   5.110  16.075 -0.6253  1.4681 -2.0671
 1785TIP3   OH229549   7.122   5.093  15.682  0.0539 -0.0841 -0.3193
 1785TIP3    H129550   7.072   5.012  15.691  1.2183 -0.6697  1.1965
 1785TIP3    H229551   7.056   5.160  15.665 -0.9335 -1.3177 -1.5994
 1786TIP3   OH229552   1.438   2.438  14.057  0.6630 -0.0699  0.3877
 1786TIP3    H129553   1.462   2.478  13.974 -0.1085  0.2763  0.3216
 1786TIP3    H229554   1.391   2.359  14.033  1.1923 -0.4243  0.5076
 1787TIP3   OH229555   5.759   0.508  15.743  0.6339 -0.6554  0.1092
 1787TIP3    H129556   5.728   0.417  15.741  2.7457 -1.4519  0.6262
 1787TIP3    H229557   5.796   0.522  15.655  1.3380 -0.6999  0.3931
 1788TIP3   OH229558   5.728   2.203  14.505  0.5558  0.0686  0.0094
 1788TIP3    H129559   5.757   2.246  14.585  0.2436  0.9415 -0.3315
 1788TIP3    H229560   5.802   2.211  14.445  0.9081 -0.8675  0.3066
 1789TIP3   OH229561   3.659   0.018  14.713  0.0380 -0.1195  0.0750
 1789TIP3    H129562   3.637   0.071  14.637 -2.0853  1.7925  1.8756
 1789TIP3    H229563   3.596  -0.054  14.712  0.0445 -0.1248  0.0291
 1790TIP3   OH229564   7.169   5.462  14.779  0.2042  0.1493 -0.1697
 1790TIP3    H129565   7.169   5.374  14.741  0.5965  0.9384 -2.1242
 1790TIP3    H229566   7.262   5.483  14.789  0.1109  0.4025  0.1711
 1791TIP3   OH229567   5.811   8.112  15.494  0.6220 -0.2172 -0.1460
 1791TIP3    H129568   5.771   8.093  15.409  0.3579 -1.4001  0.2329
 1791TIP3    H229569   5.793   8.035  15.547  0.4267  0.6764  1.1308
 1792TIP3   OH229570   0.408   5.335  14.781  0.0923  0.6273 -0.1095
 1792TIP3    H129571   0.486   5.370  14.825 -0.1404  1.7142 -0.5232
 1792TIP3    H229572   0.386   5.257  14.831  0.6124  1.0915  0.8930
 1793TIP3   OH229573   6.207   0.256  15.190  0.1667  0.2092 -0.2336
 1793TIP3    H129574   6.190   0.303  15.109 -1.4165 -0.7014 -0.4676
 1793TIP3    H229575   6.221   0.165  15.163  1.9999  0.2791  0.3193
 1794TIP3   OH229576   0.966   0.947  16.362  0.5099 -0.0988 -0.6861
 1794TIP3    H129577   0.920   0.909  16.287  0.8948 -0.0392 -0.9530
 1794TIP3    H229578   0.933   1.037  16.368 -0.5104 -0.5020  0.0346
 1795TIP3   OH229579   6.475   5.600  14.993  0.0289  0.1439 -1.2999
 1795TIP3    H129580   6.528   5.523  14.972  2.0059  1.5052 -1.6526
 1795TIP3    H229581   6.429   5.620  14.912  1.9481  1.0909 -2.2380
 1796TIP3   OH229582   3.964   0.331  14.816 -0.3190  0.1240  0.1098
 1796TIP3    H129583   3.937   0.250  14.772  1.1267  0.5306 -1.6297
 1796TIP3    H229584   3.916   0.330  14.898 -3.1415 -0.7069 -1.4190
 1797TIP3   OH229585   1.785   0.082  15.878  0.3464 -0.2765  0.3326
 1797TIP3    H129586   1.715   0.018  15.865 -0.1341 -0.1716  2.1278
 1797TIP3    H229587   1.780   0.140  15.802 -0.3821 -1.2887 -0.4107
 1798TIP3   OH229588   1.950   8.012  14.427 -0.1963  0.0233  0.8561
 1798TIP3    H129589   1.989   8.094  14.457 -1.4665  0.6961  0.7531
 1798TIP3    H229590   1.931   8.028  14.334 -0.6131 -0.3212  0.8832
 1799TIP3   OH229591   5.098   4.381  14.369 -0.1814  0.4876  0.3219
 1799TIP3    H129592   5.117   4.471  14.343 -0.3363  0.1270 -1.1769
 1799TIP3    H229593   5.129   4.374  14.459  2.9603  1.0984 -0.5963
 1800TIP3   OH229594   1.376   3.122  15.396  0.3143 -0.1934  0.6135
 1800TIP3    H129595   1.281   3.127  15.386  0.2581 -1.2495  0.5323
 1800TIP3    H229596   1.410   3.187  15.334 -0.3150 -0.7301 -0.3277
 1801TIP3   OH229597   7.312   1.221  14.270  0.8150 -0.0793 -0.3459
 1801TIP3    H129598   7.344   1.145  14.220  0.9931 -0.6546  0.6218
 1801TIP3    H229599   7.386   1.282  14.271  0.3571  0.5613 -1.9570
 1802TIP3   OH229600   2.300   2.897  15.581  0.7072  0.4619 -0.4407
 1802TIP3    H129601   2.349   2.932  15.655  2.6251 -0.9410 -0.9831
 1802TIP3    H229602   2.213   2.877  15.617  1.0420  1.4000  0.9774
 1803TIP3   OH229603   0.426   5.871  15.396 -0.3658  0.5617 -0.2442
 1803TIP3    H129604   0.425   5.966  15.403 -2.1219  0.4831  1.4292
 1803TIP3    H229605   0.371   5.851  15.321 -1.1811  0.8604  0.2597
 1804TIP3   OH229606   2.428   4.538  13.808  0.3938 -0.4081  0.1022
 1804TIP3    H129607   2.382   4.457  13.832  0.3993  0.2245  2.6054
 1804TIP3    H229608   2.359   4.604  13.802  0.6823  0.0946  1.7120
 1805TIP3   OH229609   6.175   7.630  14.436  0.7420  0.5793  0.0332
 1805TIP3    H129610   6.106   7.577  14.396 -0.5690  1.0252  1.5804
 1805TIP3    H229611   6.254   7.576  14.429 -0.0851 -0.6109 -0.4081
 1806TIP3   OH229612   0.012   2.566  13.728  0.3346 -0.0759 -0.2538
 1806TIP3    H129613  -0.003   2.655  13.695 -0.4986 -0.4721 -0.9734
 1806TIP3    H229614   0.103   2.547  13.704 -0.4408 -0.6607 -3.2192
 1807TIP3   OH229615   4.808   5.854  14.110 -0.1799  0.2674 -0.5045
 1807TIP3    H129616   4.897   5.860  14.078  0.0802 -2.4418 -0.5129
 1807TIP3    H229617   4.756   5.826  14.035 -1.6496  4.2043 -1.2053
 1808TIP3   OH229618   7.488   8.266  14.713  1.0255  0.1416 -0.0253
 1808TIP3    H129619   7.460   8.296  14.626  0.6767 -0.4585 -0.1210
 1808TIP3    H229620   7.439   8.322  14.774  0.2713 -0.3155 -0.2018
 1809TIP3   OH229621   5.866   8.063  14.612 -0.0570  0.9267 -0.4184
 1809TIP3    H129622   5.876   8.076  14.518 -0.0386  0.7623 -0.4392
 1809TIP3    H229623   5.907   8.140  14.652  2.3244 -0.2355 -0.4508
 1810TIP3   OH229624   6.936   2.571  14.819  0.1600 -0.6741 -0.1565
 1810TIP3    H129625   6.851   2.615  14.830 -0.5354 -1.2027 -2.7161
 1810TIP3    H229626   6.995   2.640  14.791 -0.0188 -0.6982 -0.6068
 1811TIP3   OH229627   0.735   7.036  16.120  0.2619 -0.8404 -0.0633
 1811TIP3    H129628   0.762   7.105  16.060  0.8861 -0.7030  0.3651
 1811TIP3    H229629   0.645   7.059  16.144 -0.1160 -1.0823 -1.1910
 1812TIP3   OH229630   2.952   3.160  14.339  0.0987  0.7411  0.2664
 1812TIP3    H129631   3.033   3.134  14.296  0.9347  1.9020  1.0938
 1812TIP3    H229632   2.950   3.109  14.420 -2.1889 -2.5497 -1.6150
 1813TIP3   OH229633   4.688   5.332  15.550  0.7282  0.3564  0.9449
 1813TIP3    H129634   4.702   5.425  15.531 -0.7368  0.9588  2.5035
 1813TIP3    H229635   4.685   5.328  15.646  0.2920 -1.2277  0.8818
 1814TIP3   OH229636   0.363   0.691  13.937 -0.2687  0.3396 -0.2753
 1814TIP3    H129637   0.291   0.637  13.969 -0.0769  1.3282  2.0949
 1814TIP3    H229638   0.350   0.776  13.981  1.9365  0.7561 -0.2852
 1815TIP3   OH229639   1.213   2.057  16.191  0.0039  0.0361 -0.1920
 1815TIP3    H129640   1.126   2.021  16.209 -0.0362  1.0843  1.9528
 1815TIP3    H229641   1.272   2.007  16.248  0.7795 -0.3979 -1.3356
 1816TIP3   OH229642   4.256   7.838  14.643 -0.3618  0.4178  0.2636
 1816TIP3    H129643   4.185   7.854  14.581 -0.2967  0.4928  0.2073
 1816TIP3    H229644   4.325   7.899  14.616 -1.1444  2.0717  1.7490
 1817TIP3   OH229645   2.921   0.523  14.818  0.0856 -0.2387  0.3127
 1817TIP3    H129646   2.937   0.524  14.723 -0.0128 -0.6750  0.2897
 1817TIP3    H229647   2.953   0.438  14.847 -0.1762 -0.2331  0.6219
 1818TIP3   OH229648   4.371   2.843  16.185 -0.6216  0.6788  0.2368
 1818TIP3    H129649   4.445   2.783  16.185 -0.9844  0.2004 -1.1353
 1818TIP3    H229650   4.361   2.869  16.094 -2.1593  0.7233  0.4020
 1819TIP3   OH229651   2.188   0.248  15.808 -0.2084  0.3223  0.4902
 1819TIP3    H129652   2.115   0.301  15.839 -2.7576 -3.8905  2.5320
 1819TIP3    H229653   2.250   0.247  15.881 -1.2226 -1.1735  1.3678
 1820TIP3   OH229654   4.464   7.968  14.502 -0.1669  0.4458  0.1027
 1820TIP3    H129655   4.517   8.042  14.532  0.7381 -0.1205 -0.0538
 1820TIP3    H229656   4.449   7.985  14.409  1.0942 -0.1651 -0.2298
 1821TIP3   OH229657   4.663   6.656  14.735 -0.4235 -0.1092  0.0414
 1821TIP3    H129658   4.611   6.589  14.691  0.4971 -2.0906  1.8135
 1821TIP3    H229659   4.752   6.623  14.733  0.1131  1.2171  0.7255
 1822TIP3   OH229660   6.185   5.912  13.959  0.3977  0.0904 -0.1124
 1822TIP3    H129661   6.279   5.926  13.970  0.8787 -0.9794 -2.1638
 1822TIP3    H229662   6.159   5.978  13.894  0.4009 -1.3556 -1.6679
 1823TIP3   OH229663   5.572   7.773  15.285  0.0058 -0.3003 -0.2244
 1823TIP3    H129664   5.525   7.810  15.359 -1.4802  0.2436 -1.3843
 1823TIP3    H229665   5.643   7.722  15.324  0.8013  1.9647  1.4852
 1824TIP3   OH229666   3.689   5.260  14.077 -0.0942  0.6160 -0.0390
 1824TIP3    H129667   3.612   5.244  14.132  0.3330  0.2708  0.4687
 1824TIP3    H229668   3.679   5.199  14.004 -0.4961  0.8352 -0.1639
 1825TIP3   OH229669   4.634   6.013  13.843 -0.2101  0.2916  0.4096
 1825TIP3    H129670   4.570   6.026  13.773  0.5282  0.3076 -0.2697
 1825TIP3    H229671   4.596   5.944  13.898 -1.5724  1.4134  0.9416
 1826TIP3   OH229672   3.530   6.684  14.939  0.3719 -0.9833 -0.1857
 1826TIP3    H129673   3.562   6.685  14.849 -0.6736 -1.2838 -0.5766
 1826TIP3    H229674   3.489   6.598  14.948 -1.6764 -0.0716 -0.2212
 1827TIP3   OH229675   1.411   4.865  16.042 -0.0891 -0.1505 -0.0168
 1827TIP3    H129676   1.475   4.799  16.014  2.5173  1.8181  0.8428
 1827TIP3    H229677   1.399   4.921  15.964  1.9012  1.3668  0.6663
 1828TIP3   OH229678   6.870   0.786  15.049 -0.1967 -0.8579  0.1226
 1828TIP3    H129679   6.859   0.726  15.122 -0.8067  0.4556  1.1559
 1828TIP3    H229680   6.958   0.822  15.061  0.4471 -1.9932 -0.8902
 1829TIP3   OH229681   0.429   1.510  15.343 -0.0155 -0.5524  0.1543
 1829TIP3    H129682   0.406   1.603  15.339  0.3570 -0.4866 -1.4790
 1829TIP3    H229683   0.512   1.508  15.391 -0.0886 -0.0486  0.3086
 1830TIP3   OH229684   1.974   0.270  14.463 -0.1712  0.0048 -0.5813
 1830TIP3    H129685   1.926   0.191  14.439 -0.8073  0.3806 -0.5811
 1830TIP3    H229686   2.058   0.261  14.418 -0.9277  0.1790 -2.1061
 1831TIP3   OH229687   7.158   3.271  15.139  0.4671  0.6261  0.0870
 1831TIP3    H129688   7.080   3.259  15.084  0.5230 -0.6804  0.2555
 1831TIP3    H229689   7.158   3.195  15.197 -1.7009  3.6502  4.6258
 1832TIP3   OH229690   1.708   5.900  15.613  0.3604  0.8213 -0.4247
 1832TIP3    H129691   1.788   5.851  15.631  0.5493  1.3133  0.1263
 1832TIP3    H229692   1.647   5.872  15.682 -0.0575  0.2000 -1.0395
 1833TIP3   OH229693   5.783   6.385  14.498 -0.2109 -0.4725  0.0345
 1833TIP3    H129694   5.697   6.345  14.482 -0.0736 -1.7408  2.2376
 1833TIP3    H229695   5.841   6.312  14.515  0.7598  0.5107  1.0533
 1834TIP3   OH229696   2.285   4.695  15.132 -0.3499 -0.0900 -0.5157
 1834TIP3    H129697   2.245   4.779  15.154  0.7875 -0.1375  2.1988
 1834TIP3    H229698   2.233   4.630  15.180  1.1538 -0.4425  0.7258
 1835TIP3   OH229699   4.195   5.486  14.615  0.6005 -0.4309 -0.9049
 1835TIP3    H129700   4.212   5.551  14.547 -0.0467  0.1065 -0.5615
 1835TIP3    H229701   4.251   5.515  14.688 -1.4638  1.2013  0.1402
 1836TIP3   OH229702   7.089   8.205  14.631  0.3626 -0.3422 -0.3180
 1836TIP3    H129703   6.996   8.210  14.607  0.4903  0.1716 -0.7398
 1836TIP3    H229704   7.134   8.251  14.560  0.8199  0.6380  0.5707
 1837TIP3   OH229705   3.411   3.764  14.847 -0.3880  0.0871 -0.1695
 1837TIP3    H129706   3.452   3.724  14.924  0.9916  0.7237 -0.5357
 1837TIP3    H229707   3.409   3.858  14.867 -1.3468  0.1023 -0.3214
 1838TIP3   OH229708   8.224   4.538  15.210  0.3973 -0.2653  0.1071
 1838TIP3    H129709   8.227   4.627  15.175 -1.2757 -0.3289 -0.2788
 1838TIP3    H229710   8.316   4.515  15.224  0.8885  1.3642 -0.1546
 1839TIP3   OH229711   1.393   6.486  13.921 -0.1727  0.6185 -0.4786
 1839TIP3    H129712   1.347   6.544  13.981 -0.1760  0.5282 -0.3938
 1839TIP3    H229713   1.410   6.540  13.844  1.8631  1.4422  0.4681
 1840TIP3   OH229714   5.360   1.863  15.881 -0.1419  0.8842 -0.3149
 1840TIP3    H129715   5.357   1.817  15.797  1.8784  1.5686 -0.8200
 1840TIP3    H229716   5.366   1.793  15.946  2.0672  0.3379 -1.0167
 1841TIP3   OH229717   3.436   3.461  14.269  0.0870 -0.3509  0.0710
 1841TIP3    H129718   3.378   3.407  14.214 -1.3965  0.3500  0.8747
 1841TIP3    H229719   3.430   3.548  14.231  3.9637 -0.9412 -2.4025
 1842TIP3   OH229720   2.252   5.408  14.269  0.6522 -0.5957 -0.2295
 1842TIP3    H129721   2.266   5.397  14.175 -0.5508  1.2362 -0.6715
 1842TIP3    H229722   2.340   5.412  14.306  1.1774  0.0256 -1.4697
 1843TIP3   OH229723   4.796   6.695  16.015  0.2773  0.6167 -0.2890
 1843TIP3    H129724   4.873   6.724  16.063  1.1089 -0.9077 -0.6436
 1843TIP3    H229725   4.786   6.603  16.039 -0.7400  0.4762 -1.1628
 1844TIP3   OH229726   1.500   1.938  14.898 -0.4302  0.4837 -0.1090
 1844TIP3    H129727   1.436   1.872  14.926  0.7524 -1.0576 -0.8941
 1844TIP3    H229728   1.498   1.934  14.802 -0.5637  1.8604 -0.1886
 1845TIP3   OH229729   6.792   3.834  15.533  0.3564 -0.0916  0.0864
 1845TIP3    H129730   6.717   3.779  15.509 -0.7815  0.8131  1.3755
 1845TIP3    H229731   6.817   3.805  15.620  0.6977  0.4381  0.1713
 1846TIP3   OH229732   1.368   8.208  14.316 -0.1721  0.1697  0.1093
 1846TIP3    H129733   1.355   8.135  14.376  0.8262  0.5076  0.7597
 1846TIP3    H229734   1.419   8.171  14.244  1.1378  0.4114  0.8840
 1847TIP3   OH229735   5.891   4.200  16.189  0.3268 -0.2181 -0.1936
 1847TIP3    H129736   5.977   4.234  16.165 -0.3859  0.5748 -1.7508
 1847TIP3    H229737   5.851   4.175  16.106 -1.4031  0.5539  0.3569
 1848TIP3   OH229738   0.057   3.641  15.610  0.4240 -0.1929 -0.2122
 1848TIP3    H129739   0.123   3.573  15.592 -0.6269 -1.8949  1.9112
 1848TIP3    H229740   0.046   3.638  15.705 -2.2399  0.4856 -0.4347
 1849TIP3   OH229741   7.507   2.545  15.891  0.0215  0.7401  0.2088
 1849TIP3    H129742   7.464   2.528  15.808  0.4655  0.4475  0.0375
 1849TIP3    H229743   7.591   2.584  15.867  0.8487 -0.8069  0.4498
 1850TIP3   OH229744   0.992   2.916  15.145  0.0316 -0.0902 -0.0734
 1850TIP3    H129745   1.069   2.873  15.109  1.0969  1.7977 -0.1542
 1850TIP3    H229746   1.023   2.958  15.226 -0.6917  1.3310 -0.4987
 1851TIP3   OH229747   1.430   5.251  15.042  0.1909  0.1842 -0.4955
 1851TIP3    H129748   1.440   5.272  15.135  0.0864  0.7465 -0.6108
 1851TIP3    H229749   1.514   5.274  15.003 -0.3680  1.6956 -0.8608
 1852TIP3   OH229750   5.021   0.958  14.267 -0.4278 -0.2403 -0.6506
 1852TIP3    H129751   5.057   0.870  14.275 -0.6968 -0.2368  0.9324
 1852TIP3    H229752   5.097   1.015  14.258 -0.2457 -0.6098 -1.5291
 1853TIP3   OH229753   4.312   1.525  14.743 -0.1345 -0.2367  0.7875
 1853TIP3    H129754   4.372   1.591  14.776  0.1633 -1.2727  2.4356
 1853TIP3    H229755   4.238   1.527  14.804 -1.0120 -0.1427 -0.2434
 1854TIP3   OH229756   4.278   6.808  13.840  0.0659  0.2273 -0.0221
 1854TIP3    H129757   4.366   6.845  13.848  0.4709 -0.6735 -0.2179
 1854TIP3    H229758   4.292   6.716  13.822 -0.9327 -0.1761  1.1332
 1855TIP3   OH229759   1.465   6.551  13.621 -0.3058  0.0983 -0.1516
 1855TIP3    H129760   1.369   6.546  13.628 -0.3506  1.5875  0.8751
 1855TIP3    H229761   1.482   6.639  13.589  0.7237 -0.3783 -0.9736
 1856TIP3   OH229762   5.137   1.117  15.306  0.1009  0.1708 -0.3347
 1856TIP3    H129763   5.207   1.137  15.244 -0.5725 -0.8764 -1.4954
 1856TIP3    H229764   5.134   1.191  15.366  1.4314  0.7517 -0.9666
 1857TIP3   OH229765   7.659   6.556  14.653  0.0486  0.0210 -0.1982
 1857TIP3    H129766   7.685   6.646  14.631 -2.5061  0.5440 -1.5282
 1857TIP3    H229767   7.698   6.503  14.584 -0.2870  0.4320 -0.7154
 1858TIP3   OH229768   4.314   0.909  15.540 -0.1403 -0.5634  0.6281
 1858TIP3    H129769   4.308   0.974  15.470 -1.8075 -2.8435 -1.5297
 1858TIP3    H229770   4.383   0.849  15.512  0.7751 -0.2681  2.1471
 1859TIP3   OH229771   8.045   7.313  14.825  0.4881  0.6355  0.4642
 1859TIP3    H129772   8.090   7.232  14.800  0.7985  0.8945  0.1730
 1859TIP3    H229773   8.074   7.329  14.915 -0.2274 -0.0190  0.8309
 1860TIP3   OH229774   4.965   6.260  14.574 -0.0327 -0.5235 -0.6545
 1860TIP3    H129775   4.959   6.172  14.612 -1.7583 -0.7654 -1.3759
 1860TIP3    H229776   4.987   6.244  14.482 -1.4997 -0.2900 -1.0649
 1861TIP3   OH229777   2.882   2.416  14.708  0.7256  0.0246 -0.4438
 1861TIP3    H129778   2.943   2.485  14.733 -0.7753  0.7222  1.4778
 1861TIP3    H229779   2.810   2.461  14.664 -1.4398  0.1800  2.8984
 1862TIP3   OH229780   7.928   1.745  15.786  0.2300  0.4250 -0.2756
 1862TIP3    H129781   7.892   1.759  15.698 -0.7280 -0.5988 -0.0597
 1862TIP3    H229782   8.022   1.762  15.776  0.3340 -0.8054 -1.7694
 1863TIP3   OH229783   1.749   1.136  14.347  0.2883 -0.3724  0.3972
 1863TIP3    H129784   1.718   1.225  14.361  0.5580 -0.3590  0.9803
 1863TIP3    H229785   1.670   1.082  14.352 -0.0085 -0.0882 -0.8998
 1864TIP3   OH229786   8.436   6.438  15.015 -0.1915  0.0854 -0.2765
 1864TIP3    H129787   8.481   6.498  15.074  2.5075 -1.3851 -0.6658
 1864TIP3    H229788   8.410   6.492  14.940  1.4359  0.9522 -0.2609
 1865TIP3   OH229789   2.124   7.510  14.814 -0.3078  0.0941 -0.0249
 1865TIP3    H129790   2.188   7.457  14.766  0.5311  0.2000  0.9446
 1865TIP3    H229791   2.124   7.594  14.769 -1.4199 -0.5958 -1.3872
 1866TIP3   OH229792   7.063   1.300  15.843 -0.1008 -0.8620 -0.3133
 1866TIP3    H129793   7.100   1.296  15.755  2.3221  1.1963  0.4901
 1866TIP3    H229794   6.998   1.371  15.838  0.0863 -0.6976 -0.4114
 1867TIP3   OH229795   1.903   3.095  15.570 -0.1732 -0.0593 -0.3002
 1867TIP3    H129796   1.931   3.159  15.504 -0.9193  1.4545  0.7784
 1867TIP3    H229797   1.984   3.065  15.610  0.1972  0.1804 -0.8520
 1868TIP3   OH229798   6.875   6.925  14.143 -0.5550 -0.3811 -0.2611
 1868TIP3    H129799   6.824   7.006  14.147 -0.1781 -0.1785  1.1629
 1868TIP3    H229800   6.853   6.878  14.224  2.7273  0.5341  1.3651
 1869TIP3   OH229801   4.305   3.095  15.026 -0.5003 -0.0029  0.2737
 1869TIP3    H129802   4.215   3.085  14.995 -0.6560 -0.0224  0.7231
 1869TIP3    H229803   4.322   3.189  15.020 -0.2037 -0.1087 -0.7497
 1870TIP3   OH229804   5.248   7.065  15.747  0.5025  0.8761 -0.1252
 1870TIP3    H129805   5.225   7.157  15.758  0.2103  0.7470  0.4194
 1870TIP3    H229806   5.340   7.065  15.722  0.6210  1.3001  0.3057
 1871TIP3   OH229807   4.225   3.086  13.753  0.0515  0.2954 -0.5251
 1871TIP3    H129808   4.265   3.007  13.791  0.6452  0.5477 -0.6101
 1871TIP3    H229809   4.297   3.128  13.705 -0.3908  0.6187 -0.9084
 1872TIP3   OH229810   6.078   1.084  15.261  0.1028 -0.8190  0.2489
 1872TIP3    H129811   6.076   1.000  15.307 -0.0101 -2.1498 -2.0565
 1872TIP3    H229812   6.171   1.106  15.257  0.1633 -1.0102  0.5376
 1873TIP3   OH229813   4.283   2.458  15.950  0.6151 -0.1226 -0.6300
 1873TIP3    H129814   4.255   2.535  16.000  0.3439 -0.2120 -0.6423
 1873TIP3    H229815   4.205   2.433  15.900  0.6412 -0.5341 -0.4655
 1874TIP3   OH229816   8.129   0.455  14.965 -0.0658 -0.1000  0.7101
 1874TIP3    H129817   8.064   0.393  14.932  0.3548 -0.0317 -0.2696
 1874TIP3    H229818   8.129   0.441  15.060 -1.1308 -0.4582  0.6646
 1875TIP3   OH229819   2.315   6.878  14.898  0.1636  0.1681 -0.3637
 1875TIP3    H129820   2.399   6.866  14.941  0.0341  0.8467  0.0909
 1875TIP3    H229821   2.289   6.789  14.871  0.7886 -0.1066 -0.0763
 1876TIP3   OH229822   7.530   5.073  15.581  0.0252  0.0931 -0.3431
 1876TIP3    H129823   7.441   5.098  15.556  0.0453 -0.3169 -0.8423
 1876TIP3    H229824   7.580   5.074  15.499  0.9826  2.2866  0.2095
 1877TIP3   OH229825   8.407   2.374  14.617  0.5946  0.4573 -0.8059
 1877TIP3    H129826   8.317   2.393  14.592 -0.2863 -1.3641  0.7786
 1877TIP3    H229827   8.412   2.399  14.710  1.6352  0.2472 -0.7904
 1878TIP3   OH229828   2.771   4.340  15.745  0.2281  0.2888  0.0550
 1878TIP3    H129829   2.824   4.417  15.766 -0.1491  0.8252 -0.9291
 1878TIP3    H229830   2.694   4.375  15.701 -1.3878 -0.3979  2.1550
 1879TIP3   OH229831   5.237   6.630  14.646  0.2186  0.0741  0.3059
 1879TIP3    H129832   5.332   6.635  14.634  0.0421  2.2375 -0.5810
 1879TIP3    H229833   5.223   6.653  14.738  0.6029 -1.5876  0.8134
 1880TIP3   OH229834   0.797   1.622  14.683  0.4310  0.3637 -0.0862
 1880TIP3    H129835   0.839   1.574  14.612 -0.8904  1.5415 -1.7549
 1880TIP3    H229836   0.709   1.586  14.688  0.4892  0.3326  0.9332
 1881TIP3   OH229837   2.265   3.994  15.501 -0.0916 -0.1011 -0.0821
 1881TIP3    H129838   2.214   3.923  15.461 -4.1481  2.7723 -0.5944
 1881TIP3    H229839   2.305   3.954  15.578 -0.9650 -3.2565 -1.1098
 1882TIP3   OH229840   6.920   0.489  14.180 -0.4634 -0.7460  0.2662
 1882TIP3    H129841   6.838   0.521  14.217 -1.1286 -0.5441 -1.2974
 1882TIP3    H229842   6.893   0.419  14.121  0.2183  0.7999 -1.9951
 1883TIP3   OH229843   2.269   7.938  14.567 -0.6622 -0.5530  0.0229
 1883TIP3    H129844   2.243   7.919  14.477  0.5987 -0.3535 -0.4020
 1883TIP3    H229845   2.302   8.028  14.564 -1.7867 -0.0788  0.9584
 1884TIP3   OH229846   1.665   3.457  15.991  0.8718 -0.9555 -0.0147
 1884TIP3    H129847   1.699   3.437  15.903 -0.5474 -2.1334 -0.3527
 1884TIP3    H229848   1.570   3.450  15.981  0.6589 -0.4628  1.4823
 1885TIP3   OH229849   0.433   4.173  14.637 -0.8646 -0.0274  0.0578
 1885TIP3    H129850   0.421   4.125  14.719  0.4073 -1.1361 -0.3627
 1885TIP3    H229851   0.504   4.235  14.656 -1.6457  0.8324  0.2319
 1886TIP3   OH229852   4.377   8.267  14.167  0.6582 -0.1792 -0.1829
 1886TIP3    H129853   4.383   8.345  14.111 -1.3876 -0.6188 -1.0964
 1886TIP3    H229854   4.445   8.280  14.234 -0.4534  3.0561  0.4974
 1887TIP3   OH229855   2.123   0.558  13.714  0.0341  0.2298 -0.4481
 1887TIP3    H129856   2.058   0.489  13.730 -1.2427  1.5475  0.2375
 1887TIP3    H229857   2.206   0.517  13.735 -0.7359 -0.9925  0.3566
 1888TIP3   OH229858   0.817   6.493  15.509  0.1196  0.0136  0.2545
 1888TIP3    H129859   0.747   6.428  15.519  0.3893 -0.4743 -0.8446
 1888TIP3    H229860   0.881   6.450  15.452 -0.1999  1.6392 -1.4316
 1889TIP3   OH229861   0.594   1.605  16.198 -0.2959 -0.0184 -0.9817
 1889TIP3    H129862   0.649   1.543  16.151 -0.1112  1.2844 -2.5889
 1889TIP3    H229863   0.522   1.553  16.233  0.1349 -1.2002 -1.8107
 1890TIP3   OH229864   0.368   6.231  14.297 -0.4348 -0.5060 -0.0548
 1890TIP3    H129865   0.388   6.155  14.242  1.9974 -0.8051  1.1378
 1890TIP3    H229866   0.327   6.194  14.375 -1.2445 -0.3557 -0.3985
 1891TIP3   OH229867   0.629   1.767  14.202 -0.6911  0.4454 -0.5553
 1891TIP3    H129868   0.719   1.755  14.170 -0.4597  1.0793 -0.1772
 1891TIP3    H229869   0.580   1.794  14.124 -0.6238 -0.1870 -0.8246
 1892TIP3   OH229870   3.129   6.741  15.802  0.2635  0.2371 -0.2978
 1892TIP3    H129871   3.049   6.704  15.765 -0.0705 -0.3334  0.9397
 1892TIP3    H229872   3.113   6.835  15.807 -0.3247  0.1300 -0.0972
 1893TIP3   OH229873   1.062   2.149  15.759  0.4631 -0.2209  0.3448
 1893TIP3    H129874   1.134   2.137  15.696 -0.5182  0.0878 -0.8782
 1893TIP3    H229875   1.103   2.192  15.834  1.1270  2.3312 -1.3622
 1894TIP3   OH229876   6.740   6.723  15.624  0.1564  0.2473  0.4263
 1894TIP3    H129877   6.820   6.694  15.579  0.2205 -0.2498  0.8343
 1894TIP3    H229878   6.729   6.814  15.599  0.6617  0.2174  0.0833
 1895TIP3   OH229879   7.780   5.600  15.216  0.3683 -0.1965  0.1091
 1895TIP3    H129880   7.794   5.551  15.135  0.1719  0.9224 -0.6168
 1895TIP3    H229881   7.712   5.663  15.195  0.0469 -0.1347  1.2612
 1896TIP3   OH229882   8.065   7.304  15.467  0.0849  0.3542  0.3621
 1896TIP3    H129883   8.063   7.239  15.396 -0.2748  1.8416 -1.0466
 1896TIP3    H229884   8.047   7.253  15.546 -1.9062 -1.0549 -0.8788
 1897TIP3   OH229885   6.661   1.136  14.782 -0.1390  0.0740  0.4929
 1897TIP3    H129886   6.740   1.096  14.746 -0.6398 -0.0220 -0.5345
 1897TIP3    H229887   6.669   1.229  14.760 -0.4821  0.0021  0.0474
 1898TIP3   OH229888   4.092   5.361  15.166 -0.0161  0.2186  0.2139
 1898TIP3    H129889   4.037   5.432  15.200  0.2756  0.7839 -0.4862
 1898TIP3    H229890   4.166   5.405  15.125  0.0066 -0.4757 -0.5166
 1899TIP3   OH229891   2.511   0.524  13.431  0.3199  0.0330  0.2929
 1899TIP3    H129892   2.504   0.486  13.519 -2.9659  0.0113  0.1548
 1899TIP3    H229893   2.603   0.513  13.407  1.1205 -0.8143  3.3317
 1900TIP3   OH229894   0.228   6.295  13.773 -0.2223 -0.2597  0.3588
 1900TIP3    H129895   0.253   6.257  13.689 -0.1818 -0.0918  0.2954
 1900TIP3    H229896   0.290   6.257  13.836  2.6272  2.8527 -0.2980
 1901TIP3   OH229897   3.860   2.789  13.853 -0.3002  0.2916  0.7377
 1901TIP3    H129898   3.894   2.871  13.887  0.9110  0.2195 -0.1930
 1901TIP3    H229899   3.913   2.721  13.896 -0.4978  0.0705  0.6386
 1902TIP3   OH229900   3.350   3.225  15.887  0.2048 -0.2914  0.0990
 1902TIP3    H129901   3.381   3.210  15.798  0.0858 -0.3181  0.0609
 1902TIP3    H229902   3.411   3.289  15.924  1.8660 -2.2237  0.9093
 1903TIP3   OH229903   6.429   5.348  15.850 -0.0526  0.0334 -0.3297
 1903TIP3    H129904   6.452   5.321  15.761  0.2786  1.3805 -0.6643
 1903TIP3    H229905   6.335   5.363  15.847  0.1577  1.3922 -0.8329
 1904TIP3   OH229906   7.448   2.726  15.365 -0.0017  0.6436  0.6953
 1904TIP3    H129907   7.470   2.783  15.291 -1.2857 -0.3730 -0.5534
 1904TIP3    H229908   7.366   2.762  15.399  0.5584  1.0775  1.6329
 1905TIP3   OH229909   5.418   4.666  14.441  0.4290 -0.0674 -0.2646
 1905TIP3    H129910   5.394   4.700  14.527  1.0988 -0.8781  0.2675
 1905TIP3    H229911   5.423   4.743  14.385 -1.5208  0.3213  0.0253
 1906TIP3   OH229912   3.535   3.427  15.927  0.3638 -0.0986 -1.0761
 1906TIP3    H129913   3.622   3.425  15.889  0.3273  3.1404 -1.6345
 1906TIP3    H229914   3.523   3.519  15.954 -1.9595 -0.9462  1.1768
 1907TIP3   OH229915   0.217   1.464  14.479 -0.7212 -0.2316  0.3488
 1907TIP3    H129916   0.184   1.479  14.390 -0.8324 -0.5076  0.3422
 1907TIP3    H229917   0.296   1.412  14.466 -0.8191 -0.3979  0.4210
 1908TIP3   OH229918   7.195   5.787  15.062 -0.3314  0.2034  0.6223
 1908TIP3    H129919   7.136   5.721  15.098  0.2857 -0.1642  0.9832
 1908TIP3    H229920   7.139   5.845  15.010 -1.0123 -0.0855  1.0329
 1909TIP3   OH229921   2.544   6.832  13.789  0.0778 -0.4618  0.2918
 1909TIP3    H129922   2.503   6.855  13.872 -0.0834 -0.1739  0.1337
 1909TIP3    H229923   2.483   6.863  13.722  0.7748  0.4355  0.0436
 1910TIP3   OH229924   1.495   1.220  13.834  0.3321  0.6848 -0.0150
 1910TIP3    H129925   1.547   1.219  13.753 -0.8723  0.2351 -0.8006
 1910TIP3    H229926   1.405   1.205  13.805 -0.0747  0.1548  1.4517
 1911TIP3   OH229927   8.006   7.085  14.193 -0.6180 -0.1618  0.0174
 1911TIP3    H129928   8.086   7.041  14.166 -0.7736 -0.7329  0.4797
 1911TIP3    H229929   7.955   7.018  14.239 -0.5166  0.6790  1.4134
 1912TIP3   OH229930   0.586   2.110  14.902 -0.3768 -0.6324 -0.5639
 1912TIP3    H129931   0.515   2.068  14.950 -0.4149 -0.8549 -0.8117
 1912TIP3    H229932   0.566   2.204  14.907  0.0833 -0.5872  0.5786
 1913TIP3   OH229933   0.887   4.731  15.983  0.2937  0.7274  0.4497
 1913TIP3    H129934   0.934   4.731  16.066  0.7958  1.1311  0.1646
 1913TIP3    H229935   0.848   4.644  15.979  2.2348 -0.1745  0.0004
 1914TIP3   OH229936   6.245   1.597  15.675 -0.1483  0.8806  0.7507
 1914TIP3    H129937   6.223   1.689  15.662  1.4527  1.3243  0.9286
 1914TIP3    H229938   6.289   1.571  15.594  0.6821  0.6994  1.2502
 1915TIP3   OH229939   5.945   5.265  14.575 -0.5450 -0.2425  0.1141
 1915TIP3    H129940   6.015   5.210  14.541  0.4217  0.3433  1.0925
 1915TIP3    H229941   5.920   5.222  14.657  1.2864  1.5149  1.7032
 1916TIP3   OH229942   4.126   7.145  14.511  0.6842 -0.2549  0.2568
 1916TIP3    H129943   4.117   7.058  14.472 -2.8708  0.3942 -0.7817
 1916TIP3    H229944   4.074   7.140  14.592 -1.9046  1.4711 -1.1522
 1917TIP3   OH229945   3.821   3.324  14.906  0.0327  0.4268  0.0833
 1917TIP3    H129946   3.790   3.259  14.969 -0.7738 -0.4627 -1.1731
 1917TIP3    H229947   3.745   3.378  14.888 -0.0299  0.0302 -0.8811
 1918TIP3   OH229948   2.124   4.304  16.248 -0.0807  0.2235 -0.4994
 1918TIP3    H129949   2.101   4.388  16.287  1.8748  0.4956  0.1380
 1918TIP3    H229950   2.158   4.252  16.320  0.8417 -0.3007 -1.2896
 1919TIP3   OH229951   0.370   3.105  15.488  1.0144 -0.5245 -0.5544
 1919TIP3    H129952   0.284   3.078  15.457  0.7235 -1.4738  0.9863
 1919TIP3    H229953   0.368   3.201  15.483 -0.8815 -0.3992  1.1988
 1920TIP3   OH229954   3.050   5.943  15.355 -0.3989 -0.0015  0.0366
 1920TIP3    H129955   3.058   5.935  15.260 -0.8656 -0.7281  0.0488
 1920TIP3    H229956   3.093   5.865  15.389  0.1782  0.4864  0.4496
 1921TIP3   OH229957   4.062   8.398  15.026 -0.1732 -0.0672 -0.3038
 1921TIP3    H129958   4.114   8.453  15.085 -1.2078 -0.9287  1.4980
 1921TIP3    H229959   4.048   8.317  15.076 -3.6216  0.2951 -0.4594
 1922TIP3   OH229960   3.781   7.614  14.783 -0.1730 -0.2718 -0.4659
 1922TIP3    H129961   3.815   7.526  14.801  1.1724 -0.0048 -1.5103
 1922TIP3    H229962   3.839   7.672  14.832 -0.3317  0.0969 -0.7172
 1923TIP3   OH229963   2.150   1.901  13.552 -0.6544  0.0147  0.3513
 1923TIP3    H129964   2.237   1.861  13.549 -0.1561  0.8889  1.9472
 1923TIP3    H229965   2.092   1.829  13.578 -0.5444 -0.7311 -1.3872
 1924TIP3   OH229966   3.455   7.574  13.937  0.8084 -0.2605 -0.4646
 1924TIP3    H129967   3.359   7.577  13.929  0.6635  1.2494  1.3288
 1924TIP3    H229968   3.485   7.652  13.891  1.0723  0.0133  0.1698
 1925TIP3   OH229969   4.270   5.782  15.566  0.4206 -0.3204 -0.3802
 1925TIP3    H129970   4.197   5.795  15.507  0.9315  0.7064 -0.8164
 1925TIP3    H229971   4.269   5.859  15.623  2.2432  0.7013 -1.6033
 1926TIP3   OH229972   1.285   2.200  14.050 -0.3117  0.2276  1.0355
 1926TIP3    H129973   1.222   2.255  14.004  0.0224 -0.2029  0.0278
 1926TIP3    H229974   1.292   2.121  13.995  1.8510  0.6960  0.5448
 1927TIP3   OH229975   2.586   6.822  14.968 -0.1220  0.0424 -0.9255
 1927TIP3    H129976   2.618   6.817  15.059  0.4827  0.0193 -1.1324
 1927TIP3    H229977   2.547   6.736  14.952  1.2908 -0.5724 -1.2266
 1928TIP3   OH229978   3.662   3.815  15.127 -0.1773  0.1669 -0.6745
 1928TIP3    H129979   3.719   3.864  15.067  0.0022  0.4109 -0.3094
 1928TIP3    H229980   3.678   3.854  15.213  0.7928 -1.2444 -0.1763
 1929TIP3   OH229981   0.900   6.154  14.395 -0.1516 -0.1872  0.5698
 1929TIP3    H129982   0.898   6.202  14.478 -0.6961  0.3397  0.2568
 1929TIP3    H229983   0.992   6.156  14.368  0.2451 -1.3475  1.7162
 1930TIP3   OH229984   5.043   2.885  16.069 -0.1912 -0.0057  0.5214
 1930TIP3    H129985   5.093   2.804  16.060  0.3504  0.5247 -2.0183
 1930TIP3    H229986   5.088   2.948  16.012 -1.2549  1.7578  1.5373
 1931TIP3   OH229987   1.106   5.654  15.053 -0.5248  0.0694 -0.0711
 1931TIP3    H129988   1.138   5.699  14.975  0.0655  0.7279  0.5457
 1931TIP3    H229989   1.095   5.722  15.118  0.6619 -0.6794  0.9712
 1932TIP3   OH229990   3.104   8.059  15.191  0.1215  0.0077  0.1246
 1932TIP3    H129991   3.128   8.031  15.103  0.7311 -0.4515  0.4285
 1932TIP3    H229992   3.177   8.114  15.219 -0.7810  1.4635 -0.2323
 1933TIP3   OH229993   0.492   1.152  15.781 -1.0418 -0.4106  0.2508
 1933TIP3    H129994   0.409   1.104  15.788 -1.1868  0.0514  2.1948
 1933TIP3    H229995   0.528   1.150  15.870  2.7104 -3.4276 -1.0512
 1934TIP3   OH229996   1.455   5.333  15.465 -0.4868  0.3572 -0.5878
 1934TIP3    H129997   1.436   5.249  15.421 -2.4051  0.5939 -0.3182
 1934TIP3    H229998   1.443   5.398  15.396 -0.2903  0.4932 -0.4906
 1935TIP3   OH229999   3.293   3.491  15.080 -0.2306 -0.6359  0.6637
 1935TIP3    H130000   3.212   3.513  15.034  1.5326 -0.5531 -2.7521
 1935TIP3    H230001   3.329   3.576  15.107  0.2629 -0.3374 -0.8226
 1936TIP3   OH230002   8.412   4.649  15.428 -0.0302 -0.5491 -0.0178
 1936TIP3    H130003   8.422   4.614  15.517 -1.9012 -2.1051 -0.3582
 1936TIP3    H230004   8.420   4.572  15.372  1.7127  0.4980 -1.3028
 1937TIP3   OH230005   6.926   2.284  14.842 -0.1667 -0.4476 -0.1600
 1937TIP3    H130006   6.942   2.373  14.809 -1.1387 -0.2886 -0.2476
 1937TIP3    H230007   6.941   2.227  14.767 -0.5056 -0.2641 -0.3692
 1938TIP3   OH230008   0.255   5.570  14.052  0.2582  0.5601 -0.2446
 1938TIP3    H130009   0.207   5.651  14.037  1.2885  1.2050 -0.1062
 1938TIP3    H230010   0.347   5.593  14.042  0.7176 -0.1128  1.8151
 1939TIP3   OH230011   4.332   4.369  14.964 -0.0630 -0.5847  0.0347
 1939TIP3    H130012   4.386   4.439  15.001 -0.9047 -0.7466  1.6526
 1939TIP3    H230013   4.278   4.413  14.898  0.4479  0.0012 -0.0054
 1940TIP3   OH230014   1.297   3.329  14.996 -0.5906 -0.0445  0.6881
 1940TIP3    H130015   1.214   3.281  14.991  0.4884 -1.9115 -0.7026
 1940TIP3    H230016   1.332   3.327  14.907  1.0370  0.5198  1.2662
 1941TIP3   OH230017   1.547   5.484  14.503  0.0189  0.1821 -0.5927
 1941TIP3    H130018   1.500   5.401  14.509  0.0845  0.1645 -0.3117
 1941TIP3    H230019   1.592   5.480  14.418  0.3598 -0.2510 -0.3929
 1942TIP3   OH230020   6.767   4.655  13.891  0.0236  0.5196  0.1761
 1942TIP3    H130021   6.686   4.663  13.942  1.0164  0.8406  1.7914
 1942TIP3    H230022   6.752   4.707  13.813 -0.9572  1.4359  0.9416
 1943TIP3   OH230023   5.893   7.995  15.914 -0.0215 -0.1163 -0.2554
 1943TIP3    H130024   5.951   7.965  15.844  0.6904  0.8267 -0.0905
 1943TIP3    H230025   5.928   7.955  15.993 -1.7585 -2.4877 -0.5684
 1944TIP3   OH230026   4.014   8.430  15.306  0.5037  0.4821 -0.3179
 1944TIP3    H130027   4.094   8.413  15.356  0.6207 -1.2649 -1.0449
 1944TIP3    H230028   3.955   8.359  15.331  0.4879 -0.3230 -2.4546
 1945TIP3   OH230029   3.911   0.091  14.675  0.0775  0.2774  0.2228
 1945TIP3    H130030   3.826   0.048  14.676  0.3409 -0.2811 -0.4640
 1945TIP3    H230031   3.974   0.020  14.686  0.4823  0.5738 -0.1483
 1946TIP3   OH230032   8.136   2.745  14.512 -0.4224 -0.4600  0.2173
 1946TIP3    H130033   8.044   2.757  14.488 -0.3109  0.2876  0.1564
 1946TIP3    H230034   8.140   2.763  14.605 -0.1489  0.6534  0.0084
 1947TIP3   OH230035   0.942   4.561  14.737 -0.3871 -0.1076 -0.3654
 1947TIP3    H130036   0.953   4.547  14.831  0.5861 -2.0446 -0.7162
 1947TIP3    H230037   1.004   4.630  14.715 -0.7170  0.4517  0.4252
 1948TIP3   OH230038   3.081   4.596  14.750  0.3305 -0.1864  0.9665
 1948TIP3    H130039   3.044   4.685  14.748  1.5124  0.3138  0.5310
 1948TIP3    H230040   3.042   4.553  14.674 -0.6440 -0.2160  1.4683
 1949TIP3   OH230041   0.144   3.346  14.098 -0.2698 -0.2642 -0.3043
 1949TIP3    H130042   0.136   3.323  14.006 -0.4077  0.4091 -0.4656
 1949TIP3    H230043   0.237   3.336  14.118  0.3256  2.4292 -1.3105
 1950TIP3   OH230044   8.316   3.793  15.196 -0.0816 -0.0970  0.1401
 1950TIP3    H130045   8.309   3.883  15.164 -2.2498  0.2277  1.3332
 1950TIP3    H230046   8.372   3.800  15.273 -3.9806  1.2755  3.1970
 1951TIP3   OH230047   0.448   0.690  15.731 -0.2701  0.2221 -0.2739
 1951TIP3    H130048   0.418   0.772  15.769  1.9257  0.1531  1.8645
 1951TIP3    H230049   0.418   0.623  15.793  0.1688 -0.2947 -0.6081
 1952TIP3   OH230050   0.869   6.449  15.227  0.0832 -0.0044 -0.2867
 1952TIP3    H130051   0.957   6.450  15.264  0.9843 -0.2495 -2.3235
 1952TIP3    H230052   0.851   6.540  15.204 -0.5278  0.1671  0.7815
 1953TIP3   OH230053   1.133   5.464  15.350 -0.4874  0.6065  0.0850
 1953TIP3    H130054   1.147   5.376  15.316 -0.6327  0.1976  1.0578
 1953TIP3    H230055   1.052   5.493  15.309  0.1837  0.7741 -1.1731
 1954TIP3   OH230056   7.888   7.238  16.209  0.1719 -0.3487  0.0711
 1954TIP3    H130057   7.793   7.252  16.213 -0.3467 -3.3864  1.7622
 1954TIP3    H230058   7.924   7.304  16.268 -0.5345  2.4290 -2.4013
 1955TIP3   OH230059   0.820   6.738  15.561  0.0251  0.1272 -0.5849
 1955TIP3    H130060   0.904   6.755  15.604 -0.0571 -1.5948  0.3488
 1955TIP3    H230061   0.820   6.644  15.543 -1.4642  0.1935 -1.0905
 1956TIP3   OH230062   3.687   8.148  14.664 -0.0148 -0.0837 -0.0604
 1956TIP3    H130063   3.775   8.116  14.643  0.1993  1.1937 -1.2370
 1956TIP3    H230064   3.693   8.178  14.754  0.4643 -0.9408  0.2087
 1957TIP3   OH230065   6.290   7.555  15.424  0.4714 -0.0029  0.1349
 1957TIP3    H130066   6.267   7.497  15.351  1.9786  0.9852 -1.2090
 1957TIP3    H230067   6.238   7.634  15.409 -0.9724 -0.6565  1.5016
 1958TIP3   OH230068   1.749   4.740  15.773 -0.0293 -0.6506 -0.1516
 1958TIP3    H130069   1.742   4.835  15.767 -1.6133 -0.7361 -0.0815
 1958TIP3    H230070   1.841   4.721  15.752  0.0493  0.7953 -1.2579
 1959TIP3   OH230071   5.588   6.170  14.073 -0.4842  0.1143  0.3279
 1959TIP3    H130072   5.496   6.182  14.052 -0.6625 -1.2330  0.2409
 1959TIP3    H230073   5.599   6.207  14.160 -1.3050 -0.5270  0.7026
 1960TIP3   OH230074   3.502   5.225  13.830  0.1630 -0.3482 -0.6127
 1960TIP3    H130075   3.533   5.314  13.813  0.5088  0.6910  4.0120
 1960TIP3    H230076   3.409   5.237  13.851  0.4434 -0.8091  1.0383
 1961TIP3   OH230077   2.023   6.280  14.870  0.7272  0.0962 -0.5931
 1961TIP3    H130078   2.041   6.238  14.954 -1.3123  1.6178  0.7075
 1961TIP3    H230079   1.992   6.210  14.814  0.6879 -0.7166  0.4175
 1962TIP3   OH230080   4.813   6.287  14.839 -0.2446 -0.0196 -0.3043
 1962TIP3    H130081   4.754   6.213  14.827  3.2513 -3.3406  0.7364
 1962TIP3    H230082   4.863   6.291  14.757 -0.3446  1.1721 -0.3208
 1963TIP3   OH230083   4.058   6.559  14.803  0.4856  0.0095 -0.4299
 1963TIP3    H130084   4.089   6.599  14.884  0.1243  0.9090 -0.7254
 1963TIP3    H230085   4.138   6.528  14.759  0.8437  1.0366 -0.5208
 1964TIP3   OH230086   7.479   5.887  14.956  0.3392  0.0072  0.5200
 1964TIP3    H130087   7.397   5.937  14.964  0.0316 -0.7346  3.2050
 1964TIP3    H230088   7.542   5.951  14.923 -1.1841  0.7312 -1.1417
 1965TIP3   OH230089   0.149   7.306  15.392 -0.1074 -0.1110  0.2144
 1965TIP3    H130090   0.163   7.307  15.487  0.5116 -0.6123  0.1358
 1965TIP3    H230091   0.054   7.310  15.382 -0.2432 -1.1906  0.8944
 1966TIP3   OH230092   6.459   8.387  15.569 -0.0060 -0.0007  0.4890
 1966TIP3    H130093   6.511   8.316  15.532 -2.0011  0.6327 -4.1768
 1966TIP3    H230094   6.522   8.457  15.588  1.4469 -1.3736  0.8948
 1967TIP3   OH230095   1.166   5.940  14.579 -0.4160 -0.1504  0.6050
 1967TIP3    H130096   1.219   5.863  14.601  0.2345  0.5060  1.3854
 1967TIP3    H230097   1.094   5.905  14.527  0.2075 -1.2067  0.4254
 1968TIP3   OH230098   6.568   1.954  16.195 -0.5501 -0.3759 -0.0724
 1968TIP3    H130099   6.621   1.875  16.193  0.5597  0.3042  1.3494
 1968TIP3    H230100   6.480   1.922  16.217 -0.2479 -1.2586 -0.0828
 1969TIP3   OH230101   5.630   3.652  14.778  0.2364  0.7334  0.8944
 1969TIP3    H130102   5.575   3.611  14.844 -2.1647  0.2552 -1.2429
 1969TIP3    H230103   5.684   3.581  14.744  0.2947  0.6191  1.2319
 1970TIP3   OH230104   1.381   6.166  14.620  0.6422 -0.2538  0.5127
 1970TIP3    H130105   1.300   6.134  14.580  0.2699 -0.7212  1.5963
 1970TIP3    H230106   1.442   6.173  14.547 -0.6239  0.9908 -0.4947
 1971TIP3   OH230107   7.909   5.544  13.980 -0.4819 -0.6322 -0.0536
 1971TIP3    H130108   7.975   5.596  14.026  0.4541 -0.9632 -0.9827
 1971TIP3    H230109   7.908   5.459  14.025  0.6656 -1.0683 -0.8146
 1972TIP3   OH230110   6.883   1.039  14.158 -0.3183 -0.4589 -0.0121
 1972TIP3    H130111   6.944   1.107  14.129  1.7498 -3.0943 -2.5379
 1972TIP3    H230112   6.806   1.050  14.101 -0.7734  0.7451  0.7918
 1973TIP3   OH230113   2.271   2.505  15.265 -0.4122 -0.5387  0.0013
 1973TIP3    H130114   2.304   2.577  15.318 -1.9521  0.2644 -0.0723
 1973TIP3    H230115   2.238   2.442  15.329 -0.1055 -0.6613  0.0407
 1974TIP3   OH230116   6.604   4.766  16.380 -0.1927  0.7808 -0.0932
 1974TIP3    H130117   6.587   4.837  16.319 -0.1038  1.3417  0.5232
 1974TIP3    H230118   6.535   4.773  16.446 -0.7153 -0.2597 -0.5063
 1975TIP3   OH230119   2.816   7.012  15.537 -0.0116  0.5757  0.8714
 1975TIP3    H130120   2.840   6.985  15.449 -0.1168  0.0315  1.0035
 1975TIP3    H230121   2.780   6.933  15.577  0.8391  0.5798  1.6868
 1976TIP3   OH230122   0.521   7.030  15.810  0.6268 -0.6819 -0.3395
 1976TIP3    H130123   0.579   7.053  15.737  0.5205 -2.3168 -0.9603
 1976TIP3    H230124   0.534   7.101  15.873  0.3955  1.0172 -2.0995
 1977TIP3   OH230125   6.593   4.484  14.677  0.4069  0.2879 -0.5124
 1977TIP3    H130126   6.540   4.443  14.609  0.1597 -0.9134  0.3667
 1977TIP3    H230127   6.578   4.430  14.755  2.7758  0.0092 -0.1825
 1978TIP3   OH230128   7.210   6.923  16.052  0.4823 -0.1993  0.2071
 1978TIP3    H130129   7.302   6.907  16.029  0.1282 -0.0237 -1.5291
 1978TIP3    H230130   7.176   6.838  16.079  1.7359  0.1760  3.4015
 1979TIP3   OH230131   6.049   7.337  15.671 -0.3320  0.2827  0.0897
 1979TIP3    H130132   5.974   7.333  15.730 -1.5947  0.8777 -1.4029
 1979TIP3    H230133   6.099   7.413  15.700 -2.0211  1.7993 -0.7683
 1980TIP3   OH230134   5.512   2.479  14.683 -0.1316 -0.0137 -0.0298
 1980TIP3    H130135   5.598   2.482  14.641 -0.3682 -1.1773 -0.6193
 1980TIP3    H230136   5.527   2.518  14.770  0.6591  1.1111 -0.6459
 1981TIP3   OH230137   4.863   7.634  15.091 -0.0448 -0.6964  0.2705
 1981TIP3    H130138   4.925   7.704  15.070 -0.8740 -0.5863 -2.1112
 1981TIP3    H230139   4.897   7.558  15.045 -1.4546 -0.7150 -0.7884
 1982TIP3   OH230140   1.810   7.271  13.926 -0.2770 -0.3045 -0.0841
 1982TIP3    H130141   1.739   7.223  13.969 -0.0944 -0.6647 -0.1818
 1982TIP3    H230142   1.889   7.223  13.948 -0.1595 -0.3970 -0.6789
 1983TIP3   OH230143   0.753   0.975  14.834  0.2950 -0.1611  0.0985
 1983TIP3    H130144   0.717   0.886  14.830  0.5517 -0.2536 -0.1629
 1983TIP3    H230145   0.840   0.968  14.793 -0.4218  0.5987 -1.6429
 1984TIP3   OH230146   7.261   2.033  14.447 -0.0726  0.5978 -0.0210
 1984TIP3    H130147   7.250   1.954  14.500 -2.7999  1.1679  0.4003
 1984TIP3    H230148   7.219   2.012  14.363  2.0299  0.5660 -1.1458
 1985TIP3   OH230149   2.738   6.158  15.554 -0.3182 -0.4885 -0.2801
 1985TIP3    H130150   2.643   6.148  15.547 -0.1804 -0.7559 -3.0958
 1985TIP3    H230151   2.772   6.069  15.548  0.1343 -0.5664  2.3379
 1986TIP3   OH230152   0.025   3.593  15.879  0.0989 -0.1519  0.3628
 1986TIP3    H130153   0.019   3.648  15.956 -0.0041 -0.5811  0.6637
 1986TIP3    H230154   0.119   3.577  15.867  0.1055 -0.2044  0.4859
 1987TIP3   OH230155   0.962   6.023  13.978 -0.1688 -0.6519 -0.0413
 1987TIP3    H130156   1.015   6.061  14.048  2.1059  0.0965 -2.0278
 1987TIP3    H230157   1.010   5.944  13.952 -0.2237 -0.2182 -1.5730
 1988TIP3   OH230158   2.547   2.676  16.075 -0.1350  0.5457  0.0278
 1988TIP3    H130159   2.551   2.583  16.096  0.0580  0.2582 -1.2341
 1988TIP3    H230160   2.487   2.682  16.002  0.3229  1.3336 -0.2959
 1989TIP3   OH230161   6.060   2.229  15.355  0.7302 -0.2814  0.0624
 1989TIP3    H130162   6.118   2.243  15.280 -0.1088  1.4420 -0.3292
 1989TIP3    H230163   6.117   2.239  15.431  1.1078  0.6356 -0.3211
 1990TIP3   OH230164   6.748   2.061  14.370 -0.0045  0.1831  0.2390
 1990TIP3    H130165   6.792   2.036  14.289  2.8995 -0.5895  1.9093
 1990TIP3    H230166   6.677   2.118  14.342  1.6993  1.0686 -2.7477
 1991TIP3   OH230167   8.061   5.842  14.755 -0.5643 -0.2065  0.3319
 1991TIP3    H130168   8.154   5.843  14.733 -0.9018 -0.1261 -1.2405
 1991TIP3    H230169   8.050   5.914  14.816  0.5574 -0.8191  1.3099
 1992TIP3   OH230170   2.847   1.393  16.016 -0.4403 -0.3553  0.1752
 1992TIP3    H130171   2.923   1.342  16.045  0.5500  0.3202 -1.1174
 1992TIP3    H230172   2.868   1.418  15.926 -2.9492 -1.5949 -0.8531
 1993TIP3   OH230173   3.515   7.687  14.507 -0.3626  0.3336  0.0016
 1993TIP3    H130174   3.474   7.649  14.429  1.0647  0.6550 -0.9537
 1993TIP3    H230175   3.589   7.629  14.526  1.3952  2.1044 -1.0277
 1994TIP3   OH230176   7.501   6.263  14.119  0.1012  0.1199 -0.4604
 1994TIP3    H130177   7.503   6.175  14.080 -0.8957 -0.6897  1.2165
 1994TIP3    H230178   7.583   6.269  14.168 -0.3358 -0.3412  0.3467
 1995TIP3   OH230179   2.781   0.346  15.981 -0.4929 -0.3787  0.2799
 1995TIP3    H130180   2.808   0.318  16.069  3.0387  0.5363 -0.3538
 1995TIP3    H230181   2.816   0.278  15.923 -0.0120  0.5994 -0.6092
 1996TIP3   OH230182   0.506   7.894  15.085  0.7184 -0.3062 -0.2037
 1996TIP3    H130183   0.545   7.807  15.073  1.7177  0.0067  0.6269
 1996TIP3    H230184   0.529   7.942  15.006 -0.2501 -0.9187 -0.8910
 1997TIP3   OH230185   0.795   7.186  15.917  0.1680 -0.0233  0.2217
 1997TIP3    H130186   0.745   7.255  15.874 -2.4793 -1.3552  0.9543
 1997TIP3    H230187   0.871   7.172  15.861 -1.4521  0.5630 -2.2386
 1998TIP3   OH230188   2.446   0.414  14.030  0.0692  0.2985  0.9519
 1998TIP3    H130189   2.359   0.407  13.989 -0.0423 -2.1040  1.4634
 1998TIP3    H230190   2.458   0.508  14.043 -2.2562  0.7460  0.4524
 1999TIP3   OH230191   1.586   2.961  15.461 -0.1767  0.6223  0.1617
 1999TIP3    H130192   1.509   3.017  15.460 -1.2891 -0.7931  1.5346
 1999TIP3    H230193   1.647   3.004  15.522 -0.0740  1.4736 -0.5267
 2000TIP3   OH230194   0.445   0.193  16.233  0.7465 -0.0553 -0.7222
 2000TIP3    H130195   0.358   0.156  16.218  0.5805  0.5212 -1.2201
 2000TIP3    H230196   0.504   0.130  16.191  0.4034  0.6513 -2.3554
 2001TIP3   OH230197   0.488   6.807  14.499  0.0146  0.0522  0.2976
 2001TIP3    H130198   0.571   6.781  14.458 -1.0167 -0.0825 -1.8664
 2001TIP3    H230199   0.493   6.773  14.588  1.2956 -2.0895 -0.5168
 2002TIP3   OH230200   2.107   3.397  16.121 -0.1233  0.0700  0.1017
 2002TIP3    H130201   2.019   3.362  16.131 -0.4221  0.2022 -1.6513
 2002TIP3    H230202   2.095   3.479  16.072  0.9970 -0.2476 -0.7651
 2003TIP3   OH230203   4.021   1.634  13.999  0.0223  0.5327 -0.2329
 2003TIP3    H130204   3.963   1.571  13.956  1.0821 -0.5532 -0.1347
 2003TIP3    H230205   3.963   1.699  14.038 -1.2926 -1.7334  1.8392
 2004TIP3   OH230206   5.440   1.191  14.382 -0.1417  0.0189 -0.2095
 2004TIP3    H130207   5.353   1.217  14.350 -0.9388 -0.3644  1.4994
 2004TIP3    H230208   5.501   1.236  14.325 -1.4750  0.7491 -1.1178
 2005TIP3   OH230209   4.798   7.333  15.013  0.5761  0.5648 -0.7467
 2005TIP3    H130210   4.768   7.332  14.922 -0.5584  2.0384 -0.4358
 2005TIP3    H230211   4.892   7.348  15.007  0.5701  0.2997 -1.6862
 2006TIP3   OH230212   7.188   4.321  13.890  0.4339 -0.3750 -0.1828
 2006TIP3    H130213   7.238   4.241  13.876 -0.1331 -0.8429  0.3923
 2006TIP3    H230214   7.105   4.291  13.927 -0.0054  0.4373 -0.4818
 2007TIP3   OH230215   6.448   5.931  13.931  0.0293 -0.3979 -0.4434
 2007TIP3    H130216   6.447   5.837  13.950  0.0015 -0.5578 -1.1882
 2007TIP3    H230217   6.474   5.936  13.839 -1.3797  0.2526 -0.8281
 2008TIP3   OH230218   7.400   3.846  15.234 -0.2522 -0.0634  0.1880
 2008TIP3    H130219   7.423   3.764  15.189 -0.5889  0.3369 -0.7449
 2008TIP3    H230220   7.323   3.824  15.286  0.4224 -0.6555  0.9754
 2009TIP3   OH230221   8.009   8.025  13.971 -0.0539  0.1803 -0.1549
 2009TIP3    H130222   8.013   7.939  13.930 -2.2185 -1.0098  1.8628
 2009TIP3    H230223   8.094   8.035  14.014  0.3015 -0.8606 -0.5761
 2010TIP3   OH230224   0.022   6.862  15.877  0.3952 -0.8175  0.2181
 2010TIP3    H130225  -0.037   6.800  15.920  0.1897  0.3078  1.6433
 2010TIP3    H230226   0.081   6.891  15.947 -0.5270  1.7681  0.0185
 2011TIP3   OH230227   2.721   3.008  15.981  0.6040 -0.0659  0.0497
 2011TIP3    H130228   2.797   3.065  15.969  0.9345 -0.1751  1.3820
 2011TIP3    H230229   2.758   2.923  16.008  0.0183  0.1985  1.8571
 2012TIP3   OH230230   0.705   1.397  16.014  0.1195  0.5995 -0.1455
 2012TIP3    H130231   0.711   1.304  15.992  0.4711  0.0188  2.1299
 2012TIP3    H230232   0.787   1.434  15.982 -0.5229  0.4209 -2.1294
 2013TIP3   OH230233   0.635   7.653  15.005 -0.6678 -0.0068  0.5764
 2013TIP3    H130234   0.566   7.625  14.945  0.3359  0.6808 -0.9498
 2013TIP3    H230235   0.715   7.648  14.954  0.2144  0.7152  1.8274
 2014TIP3   OH230236   8.211   3.989  14.927 -0.1306  0.1289  0.0407
 2014TIP3    H130237   8.281   4.036  14.882 -1.2943  2.0122  0.0590
 2014TIP3    H230238   8.167   4.056  14.978 -1.9359 -0.9947  0.0466
 2015TIP3   OH230239   0.464   1.562  14.593 -0.1029  0.0762  0.0548
 2015TIP3    H130240   0.497   1.650  14.577 -1.5066  0.4362 -0.9745
 2015TIP3    H230241   0.376   1.561  14.556 -0.2915 -1.6285  0.4410
 2016TIP3   OH230242   7.400   5.025  14.756  0.2421  0.0162 -0.4263
 2016TIP3    H130243   7.480   4.993  14.715  0.2066 -0.2917 -0.2617
 2016TIP3    H230244   7.426   5.046  14.846  0.7484  2.4115 -1.0698
 2017TIP3   OH230245   2.954   6.141  14.591  0.1565 -0.3977  0.5449
 2017TIP3    H130246   2.917   6.225  14.565  0.8266 -0.0727  0.6258
 2017TIP3    H230247   3.026   6.126  14.529 -0.5238 -1.3401 -0.0346
 2018TIP3   OH230248   7.871   5.270  14.116 -0.2448 -0.0925  0.5260
 2018TIP3    H130249   7.821   5.192  14.094 -0.6166  0.1445  0.5340
 2018TIP3    H230250   7.962   5.244  14.102 -0.4512  0.0848 -1.4986
 2019TIP3   OH230251   1.676   3.965  16.122  0.1203 -0.2259  0.5013
 2019TIP3    H130252   1.616   4.026  16.165 -0.4464  0.9555 -1.8054
 2019TIP3    H230253   1.630   3.882  16.121 -2.1615  0.9110 -2.2879
 2020TIP3   OH230254   5.208   3.799  15.039 -0.3461 -0.8274  0.3072
 2020TIP3    H130255   5.139   3.845  14.992  0.7781  0.5283 -0.0746
 2020TIP3    H230256   5.285   3.807  14.982  0.3525 -1.5385  1.1238
 2021TIP3   OH230257   3.625   4.299  15.681  0.0436 -0.4091  0.1386
 2021TIP3    H130258   3.590   4.363  15.620 -0.6284  0.4812  1.4229
 2021TIP3    H230259   3.719   4.298  15.664 -0.1086 -0.0243 -0.7563
 2022TIP3   OH230260   0.756   8.277  15.998  0.0847  0.1225  0.1683
 2022TIP3    H130261   0.818   8.227  16.053 -0.7057 -0.9023  0.1550
 2022TIP3    H230262   0.741   8.220  15.923  1.7079  1.7988 -1.5463
 2023TIP3   OH230263   6.748   7.173  13.777 -0.2211 -0.1820  0.0595
 2023TIP3    H130264   6.695   7.247  13.807  0.0098 -0.4712  1.2415
 2023TIP3    H230265   6.702   7.139  13.701 -1.7573 -0.4398  1.0651
 2024TIP3   OH230266   0.242   6.002  15.656  0.4692 -0.2166  0.0601
 2024TIP3    H130267   0.221   6.006  15.563  1.9682  1.4209 -0.2510
 2024TIP3    H230268   0.158   5.987  15.699 -0.3701 -0.1127 -1.4811
 2025TIP3   OH230269   6.113   3.050  15.999 -0.5792 -0.3635 -0.8449
 2025TIP3    H130270   6.129   3.144  15.989  0.3138 -0.3712  0.3622
 2025TIP3    H230271   6.048   3.030  15.931 -0.2404  0.9738 -1.6065
 2026TIP3   OH230272   7.497   3.342  14.415 -0.4514  0.5640  0.3197
 2026TIP3    H130273   7.470   3.281  14.484 -0.7781  1.4367  0.9754
 2026TIP3    H230274   7.415   3.377  14.381 -0.2888  0.1777 -0.4929
 2027TIP3   OH230275   8.040   1.405  14.651  0.3226  0.0379  0.6877
 2027TIP3    H130276   8.050   1.403  14.746 -0.0210 -1.4003  0.7196
 2027TIP3    H230277   8.064   1.317  14.622 -1.5438 -0.1899 -0.3268
 2028TIP3   OH230278   4.508   7.929  15.398  0.4361 -0.7288 -0.0753
 2028TIP3    H130279   4.535   7.958  15.311  0.8312 -1.6453 -0.2696
 2028TIP3    H230280   4.584   7.885  15.434  0.3058 -0.2740  0.7859
 2029TIP3   OH230281   4.663   3.071  14.470 -0.5233  0.4494  0.1157
 2029TIP3    H130282   4.724   3.046  14.401 -0.4321 -1.2774  0.7869
 2029TIP3    H230283   4.696   3.027  14.548 -1.1201  1.6652  1.0857
 2030TIP3   OH230284   4.779   1.534  15.955  0.1228 -0.1400  0.6775
 2030TIP3    H130285   4.816   1.510  16.040 -2.8926 -0.2275  2.0759
 2030TIP3    H230286   4.750   1.625  15.967  0.6276  0.2278 -0.6677
 2031TIP3   OH230287   6.963   4.884  15.284  0.1242  0.7702  0.0386
 2031TIP3    H130288   6.919   4.823  15.224 -1.3101  0.6156  1.2047
 2031TIP3    H230289   7.043   4.839  15.309 -0.2478 -0.0391 -0.1935
 2032TIP3   OH230290   2.938   6.501  14.790 -0.2886  0.3590 -0.2266
 2032TIP3    H130291   2.937   6.516  14.885 -0.5727 -1.9950  0.2048
 2032TIP3    H230292   2.846   6.493  14.766 -0.1626 -0.5246 -0.4273
 2033TIP3   OH230293   4.079   3.727  15.555 -0.6489  0.3684 -0.9611
 2033TIP3    H130294   4.172   3.703  15.557 -0.5506  0.4765  2.4796
 2033TIP3    H230295   4.073   3.793  15.485  1.7340 -0.0227 -1.6430
 2034TIP3   OH230296   4.597   4.288  15.832 -0.8884  0.5051 -0.5548
 2034TIP3    H130297   4.649   4.360  15.796 -1.0551  0.8461 -0.1233
 2034TIP3    H230298   4.511   4.299  15.792 -0.8125  0.3340 -0.7639
 2035TIP3   OH230299   6.285   0.339  15.794 -0.0248 -0.7760  0.0503
 2035TIP3    H130300   6.304   0.271  15.859 -0.3540  0.5062  1.5551
 2035TIP3    H230301   6.281   0.420  15.845 -0.4312  0.2684 -1.5720
 2036TIP3   OH230302   4.200   1.471  14.416  0.1310  0.1464  0.5612
 2036TIP3    H130303   4.207   1.511  14.329 -0.1460  0.0209  0.4804
 2036TIP3    H230304   4.283   1.426  14.429  0.5528  0.9590  0.7582
 2037TIP3   OH230305   2.944   5.222  14.605 -0.0275 -0.2321 -0.3468
 2037TIP3    H130306   2.954   5.262  14.692 -0.0905 -1.3265  0.1908
 2037TIP3    H230307   2.892   5.285  14.555  0.3019  0.5750  0.2976
 2038TIP3   OH230308   6.599   2.514  14.559  0.5141 -0.0051 -0.2346
 2038TIP3    H130309   6.606   2.516  14.463  0.1540  1.6939 -0.2575
 2038TIP3    H230310   6.645   2.434  14.584  0.1412 -0.7824 -1.8525
 2039TIP3   OH230311   8.107   2.911  15.960  0.5483  0.0594 -0.5086
 2039TIP3    H130312   8.173   2.976  15.984  0.5990 -0.3894  0.6307
 2039TIP3    H230313   8.108   2.848  16.033 -0.9602 -0.0785 -0.5815
 2040TIP3   OH230314   3.950   1.743  15.285 -0.0620  0.2456 -0.1898
 2040TIP3    H130315   4.005   1.811  15.322 -0.9232  0.5378  0.5804
 2040TIP3    H230316   3.894   1.788  15.222  0.3763 -0.0011 -0.7612
 2041TIP3   OH230317   2.880   3.750  13.972 -0.4706 -0.2231  0.2244
 2041TIP3    H130318   2.877   3.842  13.946  0.1505  0.1594  1.4408
 2041TIP3    H230319   2.970   3.735  13.998 -0.4565 -1.3176 -0.3699
 2042TIP3   OH230320   5.910   2.773  14.302 -0.0888 -0.0014 -0.3815
 2042TIP3    H130321   5.927   2.680  14.318  0.3163 -0.1565 -1.6220
 2042TIP3    H230322   5.831   2.773  14.247 -0.1466  0.3900 -0.2965
 2043TIP3   OH230323   6.350   5.053  15.714 -0.5259 -0.1680  0.5216
 2043TIP3    H130324   6.272   5.109  15.717 -0.0058  0.6402 -0.6744
 2043TIP3    H230325   6.319   4.971  15.677 -0.7590  0.2505 -0.2220
 2044TIP3   OH230326   1.458   2.567  15.542  0.3828 -0.3747  0.4935
 2044TIP3    H130327   1.536   2.604  15.583  1.8955 -1.7128 -1.0166
 2044TIP3    H230328   1.487   2.543  15.454 -1.5079 -1.7449  0.1953
 2045TIP3   OH230329   8.380   3.758  16.144  0.1350  0.4100  0.3842
 2045TIP3    H130330   8.297   3.719  16.116  0.0790  0.7501  0.0666
 2045TIP3    H230331   8.375   3.849  16.115  0.6501  0.4122  0.2900
 2046TIP3   OH230332   1.169   6.575  15.049 -0.1023  0.0787  0.2750
 2046TIP3    H130333   1.124   6.641  14.996  2.0069 -0.1022 -1.9140
 2046TIP3    H230334   1.161   6.608  15.139 -1.3519  1.9331 -0.4429
 2047TIP3   OH230335   3.308   1.095  15.089  0.1363 -0.0476  0.5637
 2047TIP3    H130336   3.292   1.186  15.062  1.8999  0.5259  1.2700
 2047TIP3    H230337   3.234   1.073  15.145  1.4150  2.3318  3.4640
 2048TIP3   OH230338   2.726   8.028  14.912  0.2356  0.2731  0.5361
 2048TIP3    H130339   2.718   8.097  14.978 -0.3906 -1.2041  2.0993
 2048TIP3    H230340   2.673   7.956  14.947 -0.7652 -0.3208 -1.9859
 2049TIP3   OH230341   3.220   6.267  15.026  0.3751  0.4288 -0.2063
 2049TIP3    H130342   3.275   6.302  15.096  1.2932  1.3133 -1.3321
 2049TIP3    H230343   3.280   6.223  14.967 -0.6397 -2.4501  0.6851
 2050TIP3   OH230344   7.763   0.031  14.842  0.0772  0.1191  0.3714
 2050TIP3    H130345   7.762  -0.043  14.904  2.4463 -0.4863 -0.2238
 2050TIP3    H230346   7.812  -0.001  14.767  0.4222  2.0328 -0.2743
 2051TIP3   OH230347   6.772   0.997  15.439  0.0080 -0.1465 -0.1474
 2051TIP3    H130348   6.860   1.034  15.445  0.7932 -2.0818  1.4048
 2051TIP3    H230349   6.770   0.955  15.353 -0.1044  1.4903 -0.9755
 2052TIP3   OH230350   8.270   5.489  14.519 -0.1806 -0.5795 -0.7485
 2052TIP3    H130351   8.211   5.475  14.445 -1.1997  0.7630 -0.2234
 2052TIP3    H230352   8.228   5.443  14.592  0.4300 -1.2506 -0.8069
 2053TIP3   OH230353   8.198   2.698  14.101 -0.0139 -0.2115 -0.3615
 2053TIP3    H130354   8.137   2.702  14.175  0.6651  4.2680  0.2401
 2053TIP3    H230355   8.266   2.636  14.130  0.0635  1.1497  2.7206
 2054TIP3   OH230356   7.341   2.960  15.887 -0.2944 -0.0035 -0.5274
 2054TIP3    H130357   7.320   2.883  15.835 -0.0576 -0.4911  0.0963
 2054TIP3    H230358   7.306   2.941  15.974  2.2204 -0.6202  0.4038
 2055TIP3   OH230359   2.299   5.390  15.431  0.6644 -0.6301 -0.2785
 2055TIP3    H130360   2.305   5.365  15.338  0.7568 -3.2389  0.3404
 2055TIP3    H230361   2.291   5.485  15.430  0.5894 -0.5855 -2.9655
 2056TIP3   OH230362   6.747   6.379  15.015 -0.9030  0.1163 -0.2064
 2056TIP3    H130363   6.829   6.418  14.987 -1.5970  1.4223 -0.4808
 2056TIP3    H230364   6.734   6.411  15.105 -0.2543 -1.5150  0.5069
 2057TIP3   OH230365   2.622   6.384  14.955 -0.2083  0.3262 -0.1363
 2057TIP3    H130366   2.564   6.458  14.972  1.1094  1.6417 -1.0364
 2057TIP3    H230367   2.685   6.387  15.027 -0.4217 -0.2039  0.0713
 2058TIP3   OH230368   2.990   5.396  15.695 -0.0157  0.8589  0.2764
 2058TIP3    H130369   3.073   5.397  15.741  0.1547  2.8055  0.0307
 2058TIP3    H230370   2.926   5.363  15.759  0.6329  1.1436  1.0823
 2059TIP3   OH230371   1.500   6.800  15.865 -0.2640 -0.7383 -0.0260
 2059TIP3    H130372   1.423   6.763  15.910  0.1877 -0.5747  0.8920
 2059TIP3    H230373   1.501   6.892  15.890 -0.0550 -0.6165 -0.4622
 2060TIP3   OH230374   5.922   5.300  15.242  0.1330  0.6044 -0.2782
 2060TIP3    H130375   5.933   5.237  15.312 -0.7804  2.3944  1.5856
 2060TIP3    H230376   5.874   5.253  15.174 -0.2962 -0.7590  0.9246
 2061TIP3   OH230377   2.654   7.571  14.129 -0.5576  0.3365 -0.2197
 2061TIP3    H130378   2.674   7.542  14.040  2.9818 -0.8682  0.8080
 2061TIP3    H230379   2.574   7.523  14.152  0.0520 -1.5698 -1.7810
 2062TIP3   OH230380   2.869   6.352  15.384 -0.0247 -0.5501 -0.2637
 2062TIP3    H130381   2.874   6.317  15.295 -1.1276 -0.6745 -0.2919
 2062TIP3    H230382   2.841   6.278  15.437  1.7433 -0.7862  0.4078
 2063TIP3   OH230383   6.710   5.498  15.672 -0.4472 -0.1761 -0.2631
 2063TIP3    H130384   6.680   5.467  15.587 -1.3612 -1.0571  0.3587
 2063TIP3    H230385   6.653   5.573  15.692 -0.1945  0.0663 -0.4505
 2064TIP3   OH230386   5.379   1.800  14.541  0.3160 -0.3512 -0.6032
 2064TIP3    H130387   5.442   1.872  14.542 -1.0176  0.8388 -0.4508
 2064TIP3    H230388   5.296   1.839  14.567 -0.7936 -1.6264 -2.0297
 2065TIP3   OH230389   2.045   1.320  15.508 -0.0564 -0.4511 -0.1850
 2065TIP3    H130390   1.970   1.266  15.483 -0.0602 -1.7188  2.2713
 2065TIP3    H230391   2.011   1.410  15.509 -1.0378 -0.8017 -0.8437
 2066TIP3   OH230392   1.103   1.612  15.344 -0.1644  0.0882 -0.3831
 2066TIP3    H130393   1.106   1.520  15.319  4.8644 -0.1105 -0.1351
 2066TIP3    H230394   1.174   1.653  15.294 -0.4313  3.2299  1.5064
 2067TIP3   OH230395   8.093   0.929  14.908  0.7397 -0.0302 -0.0620
 2067TIP3    H130396   8.077   0.884  14.991  0.4042 -0.0343 -0.1266
 2067TIP3    H230397   8.013   0.979  14.893 -0.6339 -2.6247 -2.0687
 2068TIP3   OH230398   7.515   7.430  15.255  0.1454 -0.1124 -0.1820
 2068TIP3    H130399   7.563   7.489  15.312 -0.2013 -0.1063  0.1061
 2068TIP3    H230400   7.522   7.469  15.168  0.4387  0.0262 -0.0953
 2069TIP3   OH230401   5.752   6.350  13.945 -0.1888 -0.3587  0.3349
 2069TIP3    H130402   5.672   6.305  13.971 -0.3364 -0.8737 -0.9440
 2069TIP3    H230403   5.722   6.436  13.914 -0.1799 -0.3555  0.3360
 2070TIP3   OH230404   0.077   6.280  15.255 -0.6766 -0.2847  0.2845
 2070TIP3    H130405   0.108   6.309  15.169  0.3500  1.5801  1.2358
 2070TIP3    H230406   0.124   6.335  15.318 -1.1799 -1.7932  2.0755
 2071TIP3   OH230407   1.914   5.482  15.115  0.7431 -0.0601 -0.3977
 2071TIP3    H130408   1.906   5.552  15.050 -2.3673  1.5356  1.4042
 2071TIP3    H230409   1.834   5.431  15.105  0.1602  0.2305  2.0330
 2072TIP3   OH230410   1.711   6.917  15.588 -0.8233 -0.4348  0.1800
 2072TIP3    H130411   1.724   6.824  15.571 -1.1016 -0.3721 -0.4055
 2072TIP3    H230412   1.733   6.960  15.505 -0.7040  0.0207  0.4436
 2073TIP3   OH230413   7.992   2.259  15.961 -0.0125 -0.3517  0.2612
 2073TIP3    H130414   7.939   2.297  15.891  0.1937  0.6698  0.6519
 2073TIP3    H230415   8.051   2.329  15.989  2.2801 -1.7084 -0.8295
 2074TIP3   OH230416   2.767   3.502  14.904 -0.4870 -0.4286  0.2138
 2074TIP3    H130417   2.817   3.441  14.959  1.3026 -0.6102 -1.4991
 2074TIP3    H230418   2.694   3.449  14.871 -0.2489 -0.9913  0.5683
 2075TIP3   OH230419   0.003   5.936  15.776  0.4803  0.2278  0.1597
 2075TIP3    H130420  -0.007   5.850  15.816 -1.3342  0.3097 -0.0660
 2075TIP3    H230421  -0.032   5.998  15.840 -0.8684  0.5163 -0.8196
 2076TIP3   OH230422   4.053   0.835  15.331  0.2059  0.2694  1.0156
 2076TIP3    H130423   4.127   0.894  15.344  0.5988 -0.2535  1.1759
 2076TIP3    H230424   3.983   0.892  15.297  0.9562  0.6085 -0.0101
 2077TIP3   OH230425   2.381   3.130  14.899  0.0021 -0.5449 -0.4451
 2077TIP3    H130426   2.409   3.106  14.810 -0.3953 -1.2397 -0.3893
 2077TIP3    H230427   2.462   3.129  14.950 -0.0700 -2.5224 -0.2881
 2078TIP3   OH230428   6.100   1.831  15.311 -0.1437  0.1477  0.1965
 2078TIP3    H130429   6.117   1.846  15.404 -2.4971 -0.3325  0.7697
 2078TIP3    H230430   6.025   1.771  15.310 -0.0980  0.0688 -2.0104
 2079TIP3   OH230431   8.047   1.100  15.162 -0.1126  0.0626 -0.5150
 2079TIP3    H130432   7.958   1.132  15.177 -0.7142 -0.6408 -2.2721
 2079TIP3    H230433   8.047   1.011  15.198  0.0493  0.2555 -0.0351
 2080TIP3   OH230434   0.628   4.339  14.102  0.2534 -0.0834 -0.8121
 2080TIP3    H130435   0.603   4.397  14.031 -2.3053  1.0051  0.8287
 2080TIP3    H230436   0.562   4.270  14.101  1.0192 -0.8470 -0.3621
 2081TIP3   OH230437   4.125   8.022  14.452 -0.2964 -0.2370  0.0014
 2081TIP3    H130438   4.132   8.011  14.357 -2.9568 -0.1112 -0.2633
 2081TIP3    H230439   4.190   8.090  14.472  3.2557 -3.0477 -1.0134
 2082TIP3   OH230440   4.404   2.292  15.773 -0.4776 -0.1515  0.2646
 2082TIP3    H130441   4.351   2.345  15.713  0.0522 -0.1314 -0.1981
 2082TIP3    H230442   4.408   2.344  15.853 -0.7932  0.0510  0.1528
 2083TIP3   OH230443   6.734   2.433  14.001  0.2246  0.0602  0.0651
 2083TIP3    H130444   6.803   2.460  13.941 -0.0592 -0.4368 -0.4968
 2083TIP3    H230445   6.697   2.354  13.961  0.2044 -0.4313  1.0252
 2084TIP3   OH230446   4.249   5.788  15.016 -0.0987  0.0963  0.6645
 2084TIP3    H130447   4.232   5.742  15.098  0.3633 -0.8125  0.2605
 2084TIP3    H230448   4.329   5.838  15.033 -0.0810  0.0183  0.8131
 2085TIP3   OH230449   3.533   4.829  15.372 -0.3352 -0.7287 -0.0834
 2085TIP3    H130450   3.551   4.760  15.308  0.1972 -0.5386 -0.1432
 2085TIP3    H230451   3.456   4.874  15.338 -0.0030 -0.5720 -0.6470
 2086TIP3   OH230452   5.518   6.644  14.551 -0.0231 -0.2215 -0.0091
 2086TIP3    H130453   5.536   6.724  14.602  1.3754 -0.4911 -0.0427
 2086TIP3    H230454   5.567   6.576  14.597  0.7190 -0.5988 -1.3263
 2087TIP3   OH230455   1.733   0.967  15.885 -0.1087 -0.2252  0.7756
 2087TIP3    H130456   1.651   0.937  15.924 -0.4646 -0.0974  0.1258
 2087TIP3    H230457   1.799   0.951  15.953 -0.4183 -1.6941  0.7471
 2088TIP3   OH230458   5.393   1.330  16.220 -0.2422  0.0569  0.3047
 2088TIP3    H130459   5.484   1.313  16.244 -0.2465  1.4899  1.5296
 2088TIP3    H230460   5.348   1.246  16.232  0.9515 -0.7400 -0.6134
 2089TIP3   OH230461   4.919   7.575  15.357  0.3671 -0.3172  0.4716
 2089TIP3    H130462   4.907   7.573  15.262  0.7708  1.2103  0.3544
 2089TIP3    H230463   4.862   7.506  15.390 -0.8355  0.0170 -0.7995
 2090TIP3   OH230464   4.230   3.335  13.945  0.5038 -0.2186  0.7679
 2090TIP3    H130465   4.302   3.286  13.985  1.6458  0.7487 -0.0082
 2090TIP3    H230466   4.251   3.337  13.852  0.3576  1.4655  0.7366
 2091TIP3   OH230467   4.586   6.237  14.582  0.0510 -0.0396  0.0270
 2091TIP3    H130468   4.623   6.151  14.605  0.4720  0.2894  0.6260
 2091TIP3    H230469   4.663   6.290  14.559  0.1513  1.0260  2.4737
 2092TIP3   OH230470   5.959   2.005  15.575 -0.0606  0.1841  0.1766
 2092TIP3    H130471   6.019   1.992  15.649  1.1306  1.2141 -0.5760
 2092TIP3    H230472   6.011   2.051  15.509 -1.3902  0.1827 -0.9241
 2093TIP3   OH230473   7.192   2.752  16.038  0.1146  0.7269 -1.0599
 2093TIP3    H130474   7.203   2.665  16.078 -0.6623  1.0316 -0.1623
 2093TIP3    H230475   7.119   2.741  15.978  0.3403  0.6333 -1.3180
 2094TIP3   OH230476   2.587   2.413  16.077  0.4344  0.4405  0.6295
 2094TIP3    H130477   2.596   2.384  15.986  0.2700  0.6187  0.5559
 2094TIP3    H230478   2.569   2.332  16.126 -2.2188  0.6352  0.1159
 2095TIP3   OH230479   2.720   2.608  15.492  0.7904 -0.4849  0.5019
 2095TIP3    H130480   2.727   2.687  15.440  0.7747 -1.3605 -0.8778
 2095TIP3    H230481   2.649   2.626  15.554  1.6040  1.0020  1.0483
 2096TIP3   OH230482   0.385   3.753  15.656 -0.3131 -0.0238  0.2156
 2096TIP3    H130483   0.361   3.744  15.564 -1.0450 -0.6157  0.4530
 2096TIP3    H230484   0.387   3.847  15.671  0.0394  0.0821 -0.4600
 2097TIP3   OH230485   0.148   4.855  16.049 -0.2619  0.0998 -0.4501
 2097TIP3    H130486   0.056   4.879  16.035 -0.0762 -0.2388 -2.5120
 2097TIP3    H230487   0.145   4.789  16.118 -1.4334  0.9728  0.3849
 2098TIP3   OH230488   7.496   4.704  14.848  0.4263  1.0552 -0.3610
 2098TIP3    H130489   7.484   4.748  14.932 -1.1771 -0.4517  0.2286
 2098TIP3    H230490   7.415   4.719  14.800 -0.1188 -1.1108 -0.1958
 2099TIP3   OH230491   7.465   0.018  15.053  0.3959 -0.0582 -0.4179
 2099TIP3    H130492   7.548  -0.029  15.043  0.2134 -0.2046 -1.3403
 2099TIP3    H230493   7.414  -0.006  14.976 -1.6151 -2.1263  1.4097
 2100TIP3   OH230494   0.112   4.564  15.977 -0.0143  0.2369 -0.2432
 2100TIP3    H130495   0.140   4.654  15.959 -0.0725 -0.1328 -2.4475
 2100TIP3    H230496   0.194   4.516  15.988  0.0789  0.2677 -0.7548
 2101TIP3   OH230497   4.266   0.664  14.305  0.2516  0.3063 -0.2060
 2101TIP3    H130498   4.259   0.591  14.243  1.1646  0.4593 -0.4941
 2101TIP3    H230499   4.308   0.734  14.256 -1.0264  1.2078 -0.0713
 2102TIP3   OH230500   0.245   5.152  14.955  0.0139  0.0014  0.0299
 2102TIP3    H130501   0.196   5.219  15.001  1.4312  0.4573  0.9392
 2102TIP3    H230502   0.234   5.073  15.008  1.3536  0.4397  1.0074
 2103TIP3   OH230503   5.005   6.644  14.999  0.6090  0.6598 -0.6627
 2103TIP3    H130504   4.973   6.624  14.911 -0.0905 -0.3565 -0.2038
 2103TIP3    H230505   5.047   6.730  14.990 -3.8361  3.1123 -0.9786
 2104TIP3   OH230506   0.555   0.571  14.468  0.0660 -0.0748 -0.1524
 2104TIP3    H130507   0.516   0.569  14.381  1.8477 -0.4262 -0.9716
 2104TIP3    H230508   0.606   0.490  14.473 -0.0069 -0.0596  1.2292
 2105TIP3   OH230509   4.089   7.053  15.115  0.1954  0.4760  0.4617
 2105TIP3    H130510   4.083   6.981  15.177 -2.1450 -1.1944 -1.5407
 2105TIP3    H230511   4.152   7.024  15.049  0.6077  1.0593  0.5857
 2106TIP3   OH230512   7.620   3.001  15.833 -0.2327  0.2702 -0.2953
 2106TIP3    H130513   7.697   2.965  15.790  0.6488  0.7044  0.8751
 2106TIP3    H230514   7.546   2.963  15.786  0.6934 -0.2684 -1.3386
 2107TIP3   OH230515   4.233   1.094  15.096 -0.3200  0.6093 -0.0526
 2107TIP3    H130516   4.303   1.055  15.043 -1.4684 -0.8248 -0.5948
 2107TIP3    H230517   4.216   1.178  15.054  0.1734  0.3895 -0.7193
 2108TIP3   OH230518   7.271   7.722  14.925  0.5637  0.2771  0.4571
 2108TIP3    H130519   7.281   7.628  14.907  2.3496  0.4658  0.2673
 2108TIP3    H230520   7.281   7.729  15.020 -1.5605  0.0990  0.7488
 2109TIP3   OH230521   1.107   6.162  15.284 -0.6782 -0.1008 -0.5828
 2109TIP3    H130522   1.029   6.188  15.234 -0.2651  2.3321 -0.0745
 2109TIP3    H230523   1.092   6.198  15.371  0.3555 -0.9213 -0.0446
 2110TIP3   OH230524   4.014   2.427  15.107  0.3824  0.3738  0.4682
 2110TIP3    H130525   3.962   2.507  15.108  0.5534  0.4792  1.0247
 2110TIP3    H230526   4.039   2.413  15.198 -1.4380 -1.5067  0.7478
 2111TIP3   OH230527   7.727   2.628  14.505  0.1969 -0.4330  0.7497
 2111TIP3    H130528   7.747   2.657  14.416 -0.8084  1.7612  1.1820
 2111TIP3    H230529   7.637   2.657  14.520  0.3045 -0.8763  2.4401
 2112TIP3   OH230530   0.499   5.752  15.868  0.5716 -0.3573  0.2995
 2112TIP3    H130531   0.576   5.698  15.884 -0.0037 -1.3733 -0.2268
 2112TIP3    H230532   0.532   5.831  15.826  1.3628 -0.5968  0.4676
 2113TIP3   OH230533   6.346   1.792  16.035 -0.3523 -0.3337  0.3776
 2113TIP3    H130534   6.437   1.775  16.061  0.5889 -0.8077 -2.8022
 2113TIP3    H230535   6.297   1.720  16.074  0.8996 -0.9610  0.8799
 2114TIP3   OH230536   7.627   7.573  14.698  0.2966 -0.0995  0.3904
 2114TIP3    H130537   7.676   7.600  14.776 -3.6892 -0.4934  3.2963
 2114TIP3    H230538   7.651   7.481  14.687  1.9792  0.3199  0.1455
 2115TIP3   OH230539   8.029   1.133  15.509  0.4201  0.3413  0.5878
 2115TIP3    H130540   7.940   1.164  15.525  0.2164  0.6121 -0.9272
 2115TIP3    H230541   8.069   1.129  15.596 -0.0564  3.2502  1.0239
 2116TIP3   OH230542   0.497   8.361  14.685 -0.3881 -0.3302  0.7228
 2116TIP3    H130543   0.587   8.369  14.717 -0.6411 -2.0692  2.0159
 2116TIP3    H230544   0.451   8.434  14.726  0.4957  0.8533 -0.3211
 2117TIP3   OH230545   8.112   8.404  14.339  0.0923  0.0320  0.1462
 2117TIP3    H130546   8.030   8.426  14.383 -0.0777 -1.0705  0.3968
 2117TIP3    H230547   8.086   8.379  14.251  0.3102  0.9725 -0.2043
 2118TIP3   OH230548   5.268   1.970  15.525  0.3600 -0.6561 -0.2583
 2118TIP3    H130549   5.186   1.969  15.573  0.3729  1.5544 -0.0525
 2118TIP3    H230550   5.261   1.899  15.462 -0.8146 -1.8299  1.1378
 2119TIP3   OH230551   4.396   3.115  15.916 -0.4173 -0.5806  0.4842
 2119TIP3    H130552   4.407   3.172  15.992 -0.0431  2.2832 -1.5427
 2119TIP3    H230553   4.485   3.095  15.888 -0.4423  1.1139 -0.9934
 2120TIP3   OH230554   8.120   2.909  13.951 -0.2285 -0.2197 -0.2419
 2120TIP3    H130555   8.152   2.828  13.991 -1.9039 -0.0628  1.5361
 2120TIP3    H230556   8.180   2.977  13.981 -0.7849 -0.2971  1.1365
 2121TIP3   OH230557   4.732   5.621  15.498 -0.3801  0.6330  0.7304
 2121TIP3    H130558   4.664   5.688  15.498  0.7710  1.9177 -1.0945
 2121TIP3    H230559   4.782   5.638  15.418  2.8844  0.6113  2.5545
 2122TIP3   OH230560   0.229   2.453  13.928 -0.2961  0.1247  0.0882
 2122TIP3    H130561   0.267   2.444  13.840 -0.7392 -0.2466 -0.0695
 2122TIP3    H230562   0.137   2.431  13.916 -0.4340  0.4355  0.5806
 2123TIP3   OH230563   2.105   7.561  14.379  0.1693 -0.4740 -0.1089
 2123TIP3    H130564   2.063   7.477  14.362 -0.9914 -0.6507  3.0135
 2123TIP3    H230565   2.165   7.544  14.452  0.0393  1.3317  0.4865
 2124TIP3   OH230566   7.157   8.067  15.485  0.0451  0.8794 -0.4841
 2124TIP3    H130567   7.083   8.045  15.541  1.9693 -0.7542  1.6118
 2124TIP3    H230568   7.140   8.019  15.404 -0.8363 -0.0558  0.2261
 2125TIP3   OH230569   7.614   5.695  14.784 -0.2170 -0.0356  0.0256
 2125TIP3    H130570   7.590   5.783  14.814 -0.9594 -0.0625 -0.4509
 2125TIP3    H230571   7.708   5.701  14.765 -0.6020  1.2222 -1.8076
 2126TIP3   OH230572   3.157   4.286  15.071 -0.2582 -0.7609 -0.2725
 2126TIP3    H130573   3.114   4.280  15.156  2.1896 -1.8459  1.0254
 2126TIP3    H230574   3.242   4.243  15.085  1.9048  2.4488 -2.1546
 2127TIP3   OH230575   2.863   1.980  14.169 -0.1324  0.4979  0.2354
 2127TIP3    H130576   2.860   2.058  14.224 -1.1815  0.6341  0.0230
 2127TIP3    H230577   2.814   2.005  14.090 -0.5865 -0.4044  0.2136
 2128TIP3   OH230578   2.047   2.873  15.722  0.0522  0.0051  0.1859
 2128TIP3    H130579   1.974   2.813  15.739  0.9209 -0.9636  0.6459
 2128TIP3    H230580   2.048   2.932  15.798  1.1413 -1.4574  1.3853
 2129TIP3   OH230581   2.471   0.770  14.273  0.5723  0.0594 -0.1086
 2129TIP3    H130582   2.403   0.803  14.332  0.3094  0.6041 -0.7028
 2129TIP3    H230583   2.438   0.686  14.244  0.1651  0.3010 -0.3599
 2130TIP3   OH230584   0.307   1.022  15.461 -0.3718  0.9777 -0.5489
 2130TIP3    H130585   0.267   1.109  15.467 -0.1850  1.1240 -1.2817
 2130TIP3    H230586   0.249   0.973  15.402 -0.1106  0.8157 -0.6712
 2131TIP3   OH230587   0.127   4.601  15.174  0.7103  0.3891 -0.5012
 2131TIP3    H130588   0.120   4.682  15.225 -1.1377 -0.1071  0.1038
 2131TIP3    H230589   0.219   4.597  15.148  1.1765  1.8772  0.7829
 2132TIP3   OH230590   5.328   7.598  16.016 -0.2732 -0.2848  0.2124
 2132TIP3    H130591   5.303   7.683  15.979  0.6170  0.0983  0.4659
 2132TIP3    H230592   5.383   7.620  16.091 -1.1540 -1.0795  1.1186
 2133TIP3   OH230593   0.171   0.021  16.504 -0.4340  0.3331  0.4103
 2133TIP3    H130594   0.245  -0.028  16.466  0.9297  2.4223  0.2391
 2133TIP3    H230595   0.151  -0.026  16.585  1.4773  0.0411  0.7658
 2134TIP3   OH230596   0.008   1.522  15.473 -0.1253 -0.3823 -0.3799
 2134TIP3    H130597   0.016   1.611  15.507 -0.0048 -0.7946  0.7276
 2134TIP3    H230598  -0.014   1.533  15.381 -0.1382  0.7912 -0.2514
 2135TIP3   OH230599   1.302   3.925  15.349 -0.3476  0.4887  0.0533
 2135TIP3    H130600   1.381   3.873  15.363  0.2314  1.1400 -0.6502
 2135TIP3    H230601   1.231   3.861  15.347  0.2855 -0.2268 -0.3081
 2136TIP3   OH230602   3.920   2.257  16.119 -0.1596 -0.4786  0.5250
 2136TIP3    H130603   3.958   2.281  16.035  0.0814 -1.3019  0.3985
 2136TIP3    H230604   3.995   2.237  16.175 -0.3307 -0.1906  0.8648
 2137TIP3   OH230605   0.832   0.233  16.238  0.0197 -0.2153  0.1790
 2137TIP3    H130606   0.766   0.191  16.184  0.8119 -0.6180 -0.5102
 2137TIP3    H230607   0.830   0.185  16.321 -0.9385  0.1561  0.3779
 2138TIP3   OH230608   4.729   1.065  14.311 -0.0245  0.3128  0.8449
 2138TIP3    H130609   4.814   1.041  14.275 -1.5560 -0.7587 -2.4597
 2138TIP3    H230610   4.674   0.988  14.294 -1.9136  1.3504  1.9543
 2139TIP3   OH230611   5.522   2.072  15.830 -0.6805  0.2745 -0.3140
 2139TIP3    H130612   5.469   1.994  15.815 -0.3162 -0.0683  0.1845
 2139TIP3    H230613   5.538   2.107  15.742 -0.9230 -0.1545 -0.5327
 2140TIP3   OH230614   2.483   5.366  14.407  0.6028 -0.1905 -0.5873
 2140TIP3    H130615   2.547   5.437  14.396  0.9085 -0.1120  1.3128
 2140TIP3    H230616   2.537   5.287  14.408  0.3140 -0.4370 -2.1631
 2141TIP3   OH230617   0.739   5.461  14.011 -0.8467 -0.0153  0.5855
 2141TIP3    H130618   0.673   5.449  14.078 -1.3309  1.8426  0.4939
 2141TIP3    H230619   0.777   5.547  14.029 -0.2191  0.0461 -0.8547
 2142TIP3   OH230620   8.055   0.790  15.153 -0.0540  0.9019 -0.0666
 2142TIP3    H130621   8.138   0.784  15.200  0.4921  0.5735 -1.0388
 2142TIP3    H230622   8.001   0.721  15.190  1.0943 -0.7355 -1.2879
 2143TIP3   OH230623   1.632   6.097  14.015  0.1678  0.4909 -0.2133
 2143TIP3    H130624   1.700   6.082  13.949  1.2276 -0.0813  0.9836
 2143TIP3    H230625   1.677   6.089  14.099 -1.4234 -0.2038  0.6212
 2144TIP3   OH230626   5.536   5.098  14.394 -0.1841 -0.2403  0.9249
 2144TIP3    H130627   5.601   5.124  14.460  1.2017 -1.7065  0.2024
 2144TIP3    H230628   5.482   5.033  14.438 -3.2119  2.9830  2.5049
 2145TIP3   OH230629   7.875   6.766  15.220 -0.3343  0.0778  0.0141
 2145TIP3    H130630   7.923   6.694  15.262 -1.9084 -0.5454  0.8362
 2145TIP3    H230631   7.831   6.725  15.145  0.3764  0.6407 -0.7291
 2146TIP3   OH230632   6.859   3.525  15.529 -0.5935  0.3018  0.2748
 2146TIP3    H130633   6.823   3.484  15.450  0.6427  0.2331 -0.2811
 2146TIP3    H230634   6.953   3.527  15.514 -0.3880  0.8409  1.5034
 2147TIP3   OH230635   0.766   1.698  15.724 -0.4494  0.2614 -0.7912
 2147TIP3    H130636   0.812   1.628  15.677 -0.9954 -0.2634 -0.5665
 2147TIP3    H230637   0.834   1.740  15.777 -0.3998 -1.2763  0.4494
 2148TIP3   OH230638   2.387   5.168  15.801 -0.1030 -0.2597 -0.2766
 2148TIP3    H130639   2.311   5.185  15.746  0.1489 -1.8034 -1.1744
 2148TIP3    H230640   2.457   5.223  15.764 -0.5883  0.6682  0.1501
 2149TIP3   OH230641   6.665   5.790  14.962 -0.3000 -0.4108  0.8728
 2149TIP3    H130642   6.599   5.853  14.932 -0.1726 -1.4662 -1.9275
 2149TIP3    H230643   6.615   5.711  14.982  0.0424 -2.0072 -3.4752
 2150TIP3   OH230644   5.960   1.908  16.320 -0.0160  0.0582 -0.2063
 2150TIP3    H130645   6.002   1.878  16.401  0.1574 -0.2885 -0.4258
 2150TIP3    H230646   5.980   2.002  16.316  0.3911 -0.0241 -0.1020
 2151TIP3   OH230647   2.198   6.946  14.612  0.2933 -0.0290 -0.1018
 2151TIP3    H130648   2.202   6.957  14.707 -1.8234 -0.6082  0.1124
 2151TIP3    H230649   2.277   6.989  14.580  2.1123 -1.5285  2.0300
 2152TIP3   OH230650   6.473   7.301  14.710 -0.2967  0.3851 -0.6891
 2152TIP3    H130651   6.380   7.309  14.732 -0.0813 -0.2857  0.5613
 2152TIP3    H230652   6.477   7.225  14.652 -0.2440 -1.4732  1.5675
 2153TIP3   OH230653   5.410   7.522  15.570 -0.5360  0.3094 -0.6379
 2153TIP3    H130654   5.423   7.600  15.624  0.9999  0.3750 -1.0526
 2153TIP3    H230655   5.354   7.551  15.498  0.3635  1.1784 -1.0220
 2154TIP3   OH230656   1.194   6.508  13.623 -0.3821  0.2143 -0.2437
 2154TIP3    H130657   1.116   6.563  13.615 -1.8490 -1.6589  0.5099
 2154TIP3    H230658   1.165   6.432  13.672  1.7242 -0.9616 -0.7021
 2155TIP3   OH230659   6.742   3.240  14.106  0.8211  0.1629  0.2881
 2155TIP3    H130660   6.813   3.222  14.167  0.6139  0.8625  0.7481
 2155TIP3    H230661   6.691   3.159  14.103  0.4269  0.3468  1.5930
 2156TIP3   OH230662   6.238   0.605  15.872 -0.3997 -0.0728 -0.1461
 2156TIP3    H130663   6.273   0.634  15.787 -0.7152 -3.0471 -1.4020
 2156TIP3    H230664   6.260   0.676  15.932  0.8889  1.6270 -2.4597
 2157TIP3   OH230665   8.110   3.618  14.230 -0.4559  0.0498  0.5285
 2157TIP3    H130666   8.144   3.664  14.153 -3.1844  0.2690 -0.6974
 2157TIP3    H230667   8.041   3.676  14.263 -1.0869 -1.2461  1.5552
 2158TIP3   OH230668   8.173   6.487  14.690  0.2565  0.3049 -0.1288
 2158TIP3    H130669   8.157   6.481  14.596  1.4999  1.8756 -0.4831
 2158TIP3    H230670   8.267   6.470  14.700  0.2330  0.6352  0.7704
 2159TIP3   OH230671   3.283   8.132  14.073  0.2132  0.3458  0.9522
 2159TIP3    H130672   3.305   8.087  14.155  1.2223  0.3716  0.7088
 2159TIP3    H230673   3.222   8.201  14.099  0.8522  0.6300  1.7531
 2160TIP3   OH230674   4.625   3.783  15.994 -0.1722  0.0672  0.1441
 2160TIP3    H130675   4.686   3.798  15.922  1.3649 -0.3997  1.2936
 2160TIP3    H230676   4.609   3.870  16.031 -1.9750  0.4872 -1.4824
 2161TIP3   OH230677   6.988   5.011  16.050  0.1476  0.3956 -0.0027
 2161TIP3    H130678   7.054   5.010  15.981 -1.1094  2.6297 -1.3410
 2161TIP3    H230679   7.031   4.969  16.125  1.7296 -1.6421 -1.9152
 2162TIP3   OH230680   7.614   6.645  15.506  0.2507 -0.2293  0.0402
 2162TIP3    H130681   7.579   6.653  15.418  0.0836 -0.0949  0.1196
 2162TIP3    H230682   7.605   6.552  15.528 -4.4459  0.3825  1.8624
 2163TIP3   OH230683   5.931   0.056  15.009  0.3908 -0.0084  0.2158
 2163TIP3    H130684   5.890   0.142  15.014  0.7599  0.2381 -0.8637
 2163TIP3    H230685   5.972   0.044  15.095 -0.6288  0.3921  0.7671
 2164TIP3   OH230686   6.378   5.917  13.616  0.4451  0.1885 -0.2198
 2164TIP3    H130687   6.296   5.868  13.610  0.6414 -0.1514 -0.1522
 2164TIP3    H230688   6.360   6.000  13.571  0.0134  0.1864 -0.0594
 2165TIP3   OH230689   8.207   8.127  15.991 -0.1066  0.3150  0.0705
 2165TIP3    H130690   8.184   8.176  15.912 -2.1102 -0.8155 -0.1050
 2165TIP3    H230691   8.248   8.047  15.959  2.5788  1.4655  0.3480
 2166TIP3   OH230692   0.563   4.332  14.434  0.3247 -0.1962 -0.2857
 2166TIP3    H130693   0.529   4.409  14.387 -0.0870 -0.3588 -0.2569
 2166TIP3    H230694   0.501   4.262  14.412 -1.5635  0.3302  2.7255
 2167TIP3   OH230695   1.742   8.366  14.735  0.0605 -0.0723 -0.2821
 2167TIP3    H130696   1.819   8.394  14.685 -0.6018  0.4509 -1.0446
 2167TIP3    H230697   1.761   8.275  14.759  1.3343  0.3481  0.4129
 2168TIP3   OH230698   4.377   1.227  14.901 -0.1328 -0.2732 -0.5460
 2168TIP3    H130699   4.438   1.272  14.959 -0.2156  2.0113 -2.1019
 2168TIP3    H230700   4.296   1.278  14.908 -0.4644 -0.5915 -1.8502
 2169TIP3   OH230701   2.950   3.230  13.814  0.1603 -0.3416 -0.0868
 2169TIP3    H130702   2.878   3.273  13.768  0.4415  0.7709  0.4754
 2169TIP3    H230703   3.002   3.302  13.849  0.6047 -1.1446  0.9638
 2170TIP3   OH230704   1.485   8.286  15.227  0.2125 -0.4503 -0.3151
 2170TIP3    H130705   1.565   8.258  15.270  0.3554 -0.3391 -0.5066
 2170TIP3    H230706   1.500   8.269  15.134 -0.3631 -1.3376 -0.2525
 2171TIP3   OH230707   4.135   0.325  14.389  0.0786 -0.4209  0.0258
 2171TIP3    H130708   4.116   0.377  14.466  1.4123  0.4519 -0.2121
 2171TIP3    H230709   4.079   0.362  14.320  0.6197  0.3655 -0.0051
 2172TIP3   OH230710   8.317   5.135  16.200  0.0480 -0.0150 -0.5418
 2172TIP3    H130711   8.317   5.053  16.151  1.3187 -0.8813  0.8106
 2172TIP3    H230712   8.399   5.178  16.175  0.6582 -0.4176  0.6563
 2173TIP3   OH230713   5.743   3.266  14.983  0.0650  0.5859  0.5993
 2173TIP3    H130714   5.683   3.201  14.947  2.2570 -0.9767 -0.4528
 2173TIP3    H230715   5.773   3.316  14.907 -1.3457  2.7272  1.3515
 2174TIP3   OH230716   6.839   3.315  13.849  0.0684 -0.3837 -0.0720
 2174TIP3    H130717   6.754   3.340  13.814  0.2787  0.8825  0.2780
 2174TIP3    H230718   6.821   3.286  13.938 -0.1967 -1.7214 -0.5313
 2175TIP3   OH230719   2.315   0.342  13.701  0.2279 -0.1728  0.3403
 2175TIP3    H130720   2.410   0.352  13.693  0.2154  0.7361  1.1168
 2175TIP3    H230721   2.293   0.271  13.642  1.3271 -0.0427 -0.2478
 2176TIP3   OH230722   1.605   7.126  14.091  0.1367  0.1411  0.2579
 2176TIP3    H130723   1.567   7.039  14.105 -0.0496 -0.2631 -2.3610
 2176TIP3    H230724   1.604   7.166  14.178 -1.2428 -1.8688  1.2551
 2177TIP3   OH230725   6.403   4.791  14.963  0.0011  0.3476 -0.1177
 2177TIP3    H130726   6.471   4.827  14.907 -0.2292  1.0057  0.0175
 2177TIP3    H230727   6.353   4.867  14.992 -0.0203  0.0007  0.7978
 2178TIP3   OH230728   3.814   5.844  14.755  0.1371 -0.0509 -0.0877
 2178TIP3    H130729   3.906   5.849  14.783  0.4855 -1.7456 -0.8312
 2178TIP3    H230730   3.778   5.770  14.804 -0.4001 -0.3809 -0.9638
 2179TIP3   OH230731   4.401   7.460  13.859 -0.5416 -0.4696  0.0021
 2179TIP3    H130732   4.408   7.553  13.836 -0.3776 -0.6868 -0.8832
 2179TIP3    H230733   4.310   7.448  13.886 -1.0601 -0.4041 -1.5996
 2180TIP3   OH230734   6.018   6.973  14.441  0.4520 -1.0575  0.2300
 2180TIP3    H130735   6.090   7.035  14.450  0.9669 -1.4705 -0.9178
 2180TIP3    H230736   5.943   7.026  14.415  1.1492 -0.9975 -1.8606
 2181TIP3   OH230737   5.644   0.618  15.253 -0.2695 -0.4421 -0.0693
 2181TIP3    H130738   5.647   0.698  15.306 -0.7972 -1.3854  1.4307
 2181TIP3    H230739   5.687   0.643  15.171 -0.2685  1.3317  0.4177
 2182TIP3   OH230740   6.683   1.980  14.006  0.4595 -0.5597 -0.0342
 2182TIP3    H130741   6.642   1.893  14.005  0.6950 -0.6740 -0.5560
 2182TIP3    H230742   6.735   1.981  14.086  0.9520 -1.1482 -0.3361
 2183TIP3   OH230743   5.520   6.821  13.434  0.8964  0.3720  0.1555
 2183TIP3    H130744   5.514   6.780  13.348  0.0414 -1.7961  1.1772
 2183TIP3    H230745   5.494   6.912  13.418  1.3267  0.1885 -1.9493
 2184TIP3   OH230746   2.144   3.314  14.766  0.4310 -0.0034  0.4128
 2184TIP3    H130747   2.177   3.247  14.825  1.9491 -0.9585 -1.4206
 2184TIP3    H230748   2.189   3.394  14.792 -0.1543 -0.0249  1.5558
 2185TIP3   OH230749   4.353   0.564  15.611  0.3085  0.0156  0.2652
 2185TIP3    H130750   4.353   0.469  15.622  1.1656  0.0687  0.7804
 2185TIP3    H230751   4.416   0.596  15.675 -1.8249  1.1610  1.9093
 2186TIP3   OH230752   1.189   4.069  14.094  0.3529  0.0104 -0.1116
 2186TIP3    H130753   1.131   4.029  14.029  0.8754  1.5621 -1.6018
 2186TIP3    H230754   1.266   4.012  14.096 -0.0045 -0.4831 -0.2517
 2187TIP3   OH230755   4.281   7.379  14.313 -0.4705  0.1713 -0.1576
 2187TIP3    H130756   4.193   7.353  14.286 -0.4134 -0.8468  0.5451
 2187TIP3    H230757   4.313   7.434  14.242 -0.8439 -1.2540 -1.4763
 2188TIP3   OH230758   4.934   1.450  16.155  0.0000 -0.1865  0.2899
 2188TIP3    H130759   4.983   1.532  16.163 -2.0282  1.2985 -1.2677
 2188TIP3    H230760   4.999   1.384  16.131  1.1788  1.8677 -2.7324
 2189TIP3   OH230761   7.273   4.722  14.666 -0.2260  0.1009 -0.4430
 2189TIP3    H130762   7.320   4.780  14.607  1.4638 -1.0394 -0.2875
 2189TIP3    H230763   7.187   4.711  14.626 -0.0098  1.3884 -1.3079
 2190TIP3   OH230764   1.730   4.542  14.415  0.2414  0.0500  0.4561
 2190TIP3    H130765   1.784   4.469  14.388  2.2465  2.9168 -4.6638
 2190TIP3    H230766   1.641   4.519  14.387  0.6343 -0.8019 -0.0984
 2191TIP3   OH230767   6.281   8.348  13.808  0.2705  0.1007 -0.6050
 2191TIP3    H130768   6.370   8.313  13.820 -0.1746 -0.9946 -0.3924
 2191TIP3    H230769   6.238   8.333  13.892 -0.1835  0.4337 -0.7758
 2192TIP3   OH230770   1.037   4.178  13.814  0.7096  0.1205 -0.1649
 2192TIP3    H130771   0.944   4.157  13.826  1.1984 -1.0075  2.1900
 2192TIP3    H230772   1.082   4.095  13.825  2.1000  0.8671 -0.0009
 2193TIP3   OH230773   6.279   1.647  14.481  0.1189  0.3522  0.0924
 2193TIP3    H130774   6.206   1.675  14.537 -0.1153  0.3772 -0.2266
 2193TIP3    H230775   6.254   1.560  14.451  0.1542  0.4213 -0.1366
 2194TIP3   OH230776   0.457   8.241  15.113  0.2285  0.1200  0.0459
 2194TIP3    H130777   0.396   8.313  15.127  0.7139  0.7369 -0.8581
 2194TIP3    H230778   0.423   8.196  15.036  0.9729  0.5511 -0.5474
 2195TIP3   OH230779   1.877   4.738  13.972  0.1347 -0.1006  0.3812
 2195TIP3    H130780   1.804   4.781  13.928  1.2366  1.3813 -0.0838
 2195TIP3    H230781   1.861   4.644  13.960 -1.5385  0.1973  0.0949
 2196TIP3   OH230782   7.279   1.497  15.902 -0.5079 -0.8107  0.0122
 2196TIP3    H130783   7.270   1.483  15.808 -0.5621  0.1828 -0.1439
 2196TIP3    H230784   7.355   1.445  15.928  1.1595  0.9323 -1.0751
 2197TIP3   OH230785   7.658   7.130  15.924 -0.4434  0.0445  0.0892
 2197TIP3    H130786   7.753   7.120  15.926 -0.4706 -0.4664 -0.5786
 2197TIP3    H230787   7.641   7.214  15.966 -0.0563 -1.8664  4.6177
 2198TIP3   OH230788   5.355   3.441  14.823 -0.1724 -0.1725  0.1209
 2198TIP3    H130789   5.412   3.489  14.884 -1.4853 -0.7551  1.8889
 2198TIP3    H230790   5.276   3.494  14.818 -0.5613 -0.7646 -0.0917
 2199TIP3   OH230791   0.484   4.317  16.178  0.2290 -0.4172 -0.2145
 2199TIP3    H130792   0.440   4.252  16.232  3.2214 -1.1758  1.5344
 2199TIP3    H230793   0.564   4.274  16.148  0.1881  1.0438 -2.7613
 2200TIP3   OH230794   1.080   5.403  13.686 -0.2037 -0.1164  0.1380
 2200TIP3    H130795   1.000   5.369  13.725  0.3116 -0.6412  0.7687
 2200TIP3    H230796   1.080   5.496  13.707  0.2857 -0.4699  1.8217
 2201TIP3   OH230797   5.932   1.788  15.860  0.4062 -0.0793  0.2419
 2201TIP3    H130798   5.922   1.695  15.838 -0.9565  0.0532  0.2037
 2201TIP3    H230799   5.850   1.828  15.831  0.4177  0.8951  1.4745
 2202TIP3   OH230800   5.676   8.189  15.940 -0.3061 -0.2374  0.2551
 2202TIP3    H130801   5.759   8.144  15.927 -0.3172 -0.0436 -0.5096
 2202TIP3    H230802   5.699   8.282  15.945 -0.6050 -0.0426 -1.4099
 2203TIP3   OH230803   1.756   5.043  14.334  0.2728 -0.2567 -0.6074
 2203TIP3    H130804   1.730   5.111  14.273 -1.4368  0.3478  0.7169
 2203TIP3    H230805   1.725   4.961  14.294  1.9011 -0.2516 -1.9652
 2204TIP3   OH230806   5.235   6.546  14.357 -0.2598  0.1609  0.1888
 2204TIP3    H130807   5.329   6.539  14.345 -0.2455 -1.7507  1.0589
 2204TIP3    H230808   5.222   6.541  14.452 -1.2954 -0.5038  0.0285
 2205TIP3   OH230809   8.077   4.202  16.147  0.5643  0.0037 -0.0957
 2205TIP3    H130810   8.071   4.119  16.100 -0.1381 -0.5250  0.8967
 2205TIP3    H230811   8.137   4.184  16.219 -0.8039 -0.1057  1.0404
 2206TIP3   OH230812   6.506   1.387  16.167  0.7577 -0.2925  0.3052
 2206TIP3    H130813   6.577   1.324  16.175  1.5421  0.4393 -0.5112
 2206TIP3    H230814   6.426   1.336  16.175  1.3775 -1.1457  1.1597
 2207TIP3   OH230815   4.901   3.217  15.161  0.3184  0.2590  0.0121
 2207TIP3    H130816   4.994   3.198  15.154  0.0099 -1.1772 -0.6321
 2207TIP3    H230817   4.878   3.260  15.078  0.0007 -1.4367 -0.8327
 2208TIP3   OH230818   5.968   6.186  14.577 -0.2115  0.0770  0.5984
 2208TIP3    H130819   6.052   6.193  14.533  0.0046 -0.4640  0.9131
 2208TIP3    H230820   5.966   6.096  14.610 -0.9840  0.0298  0.4413
 2209TIP3   OH230821   4.566   3.267  15.428 -0.3292  0.3378 -0.6329
 2209TIP3    H130822   4.653   3.302  15.410 -0.0538 -0.1045 -0.1957
 2209TIP3    H230823   4.582   3.181  15.466 -0.9814 -0.0781 -1.2738
 2210TIP3   OH230824   3.089   2.529  14.120 -0.1224  0.1964 -0.1573
 2210TIP3    H130825   3.058   2.440  14.103 -0.9396  0.1398  1.4158
 2210TIP3    H230826   3.129   2.524  14.208  0.2615  1.2774 -0.2566
 2211TIP3   OH230827   3.375   7.207  13.947 -0.1107  0.3270 -0.2064
 2211TIP3    H130828   3.355   7.183  13.856 -0.6266  0.1594 -0.0538
 2211TIP3    H230829   3.295   7.249  13.979  0.6364  1.9161 -0.3386
 2212TIP3   OH230830   3.428   8.294  14.744 -0.0836  0.0733 -0.3126
 2212TIP3    H130831   3.375   8.268  14.669  0.0707  0.0249 -0.4051
 2212TIP3    H230832   3.369   8.346  14.799 -0.5019 -0.7527  0.0421
 2213TIP3   OH230833   6.329   5.021  13.891 -0.4994  0.6057  1.0325
 2213TIP3    H130834   6.274   4.986  13.961 -0.0653 -0.9218  0.6694
 2213TIP3    H230835   6.416   5.026  13.930 -0.3220  0.0689  0.7169
 2214TIP3   OH230836   2.346   4.346  14.746  0.4587 -0.1231  0.6364
 2214TIP3    H130837   2.378   4.429  14.709 -0.3110 -0.7745 -1.6944
 2214TIP3    H230838   2.424   4.301  14.776  1.2667  0.1330 -1.0007
 2215TIP3   OH230839   1.725   2.710  15.522 -0.1049  0.4790 -0.3017
 2215TIP3    H130840   1.711   2.786  15.466  2.4920  2.2960  1.2924
 2215TIP3    H230841   1.751   2.640  15.461 -0.4609  1.4437 -1.6069
 2216TIP3   OH230842   5.907   6.329  14.852 -0.4634  0.2762  0.1805
 2216TIP3    H130843   5.928   6.280  14.772 -1.0189  0.6314 -0.1863
 2216TIP3    H230844   5.823   6.371  14.834 -0.7650  0.0861  1.0816
 2217TIP3   OH230845   2.571   5.124  14.937  0.0090  0.3858  0.6376
 2217TIP3    H130846   2.577   5.178  14.858  0.3758 -1.1086 -0.4182
 2217TIP3    H230847   2.490   5.150  14.979 -0.2710  1.1053 -0.3364
 2218TIP3   OH230848   6.270   7.728  13.879 -0.5547  0.0014 -0.0116
 2218TIP3    H130849   6.301   7.690  13.962 -0.8362  1.3658  0.7473
 2218TIP3    H230850   6.221   7.657  13.837 -1.1010 -0.4853  1.3803
 2219TIP3   OH230851   8.288   0.826  14.732 -0.0960  0.2761 -0.0679
 2219TIP3    H130852   8.205   0.870  14.754  0.5706  1.5375  0.0305
 2219TIP3    H230853   8.336   0.891  14.680  0.8083 -0.4571 -0.1655
 2220TIP3   OH230854   0.274   1.241  14.725 -0.2849  0.7327  0.3811
 2220TIP3    H130855   0.326   1.180  14.778 -0.4758 -0.0109 -0.2579
 2220TIP3    H230856   0.310   1.232  14.637  0.3113  2.2703  0.4511
 2221TIP3   OH230857   1.827   5.328  14.071  0.0945  0.0317  0.2095
 2221TIP3    H130858   1.759   5.262  14.087  1.5841 -1.9502 -1.0432
 2221TIP3    H230859   1.909   5.281  14.085  1.2452  2.0583  0.6261
 2222TIP3   OH230860   3.740   7.833  15.115  0.0738  0.2018  0.0888
 2222TIP3    H130861   3.827   7.795  15.124 -0.4518 -1.0119  0.3851
 2222TIP3    H230862   3.724   7.835  15.020  0.5454  0.7490  0.0176
 2223TIP3   OH230863   3.463   6.386  15.143  0.2866  0.4639 -0.1604
 2223TIP3    H130864   3.516   6.381  15.223 -1.5714 -0.8785  1.0476
 2223TIP3    H230865   3.394   6.449  15.163  0.0907  0.5037 -0.9119
 2224TIP3   OH230866   2.652   6.510  14.695 -0.0278  0.1842 -0.4761
 2224TIP3    H130867   2.632   6.474  14.782 -1.5874 -0.0735 -0.8986
 2224TIP3    H230868   2.604   6.592  14.692  1.2120  0.9171 -0.5715
 2225TIP3   OH230869   5.172   0.227  15.198 -0.5850 -0.7678 -0.0574
 2225TIP3    H130870   5.156   0.231  15.103  0.3483 -1.0800 -0.2461
 2225TIP3    H230871   5.213   0.311  15.218 -2.7700  0.2090  0.4983
 2226TIP3   OH230872   6.726   1.986  14.868 -0.1167  0.2530  0.4930
 2226TIP3    H130873   6.769   2.012  14.950 -0.1191  0.6199  0.3779
 2226TIP3    H230874   6.796   1.951  14.814  0.1646  1.4941  0.0382
 2227TIP3   OH230875   6.631   8.291  15.968  0.4159  0.2826 -0.1308
 2227TIP3    H130876   6.634   8.387  15.960  0.0251  0.4539  1.3782
 2227TIP3    H230877   6.658   8.274  16.058  0.9169 -1.0772 -0.5125
 2228TIP3   OH230878   4.231   1.782  15.636 -0.1433 -0.0486 -0.3026
 2228TIP3    H130879   4.231   1.850  15.703 -0.4373 -0.4979  0.1656
 2228TIP3    H230880   4.307   1.802  15.581 -1.7433  2.2593 -1.8517
 2229TIP3   OH230881   7.785   6.628  15.015  0.2000  0.3843  0.0850
 2229TIP3    H130882   7.835   6.575  14.953  1.8949  0.9012  0.9436
 2229TIP3    H230883   7.697   6.592  15.012  0.8302 -1.1868 -0.7963
 2230TIP3   OH230884   8.362   2.010  15.019  0.6112 -0.2218  0.5187
 2230TIP3    H130885   8.454   2.031  15.005  0.2137  0.8678 -0.6814
 2230TIP3    H230886   8.351   1.924  14.980  1.4481 -1.0888  2.1048
 2231TIP3   OH230887   7.983   4.833  15.707  0.5043 -0.6864 -0.0492
 2231TIP3    H130888   8.077   4.828  15.722  0.4854 -1.1235 -0.0513
 2231TIP3    H230889   7.959   4.924  15.728  0.9260 -0.5726 -0.0659
 2232TIP3   OH230890   3.117   1.775  15.449 -0.4497  0.2578 -0.0144
 2232TIP3    H130891   3.195   1.752  15.499 -0.7340  1.5735  1.0792
 2232TIP3    H230892   3.068   1.834  15.506 -1.8884  0.0381 -0.9723
 2233TIP3   OH230893   1.204   3.443  14.401  0.0212 -0.2549  0.0300
 2233TIP3    H130894   1.298   3.432  14.394  0.0184  0.2576 -0.9228
 2233TIP3    H230895   1.174   3.458  14.312 -0.8967  0.0774  0.3767
 2234TIP3   OH230896   1.213   4.384  14.999 -0.1040 -0.3477  0.2101
 2234TIP3    H130897   1.216   4.369  14.904 -0.4122  0.7895  0.0063
 2234TIP3    H230898   1.140   4.330  15.029  1.9696 -3.3457  0.3648
 2235TIP3   OH230899   4.307   8.244  14.482 -0.6800 -0.4762  0.2423
 2235TIP3    H130900   4.389   8.227  14.436 -0.0054 -1.3781  1.6773
 2235TIP3    H230901   4.285   8.335  14.461  0.2672 -0.4661 -0.7856
 2236TIP3   OH230902   4.514   2.865  14.079  0.1448  0.2592  0.2610
 2236TIP3    H130903   4.458   2.847  14.155  0.9114 -2.3349  0.3307
 2236TIP3    H230904   4.453   2.868  14.005 -0.5786  2.5449  0.8596
 2237TIP3   OH230905   8.347   0.642  15.354 -0.0625 -0.6697 -0.6274
 2237TIP3    H130906   8.385   0.680  15.433  1.0400 -2.0851 -0.4256
 2237TIP3    H230907   8.253   0.641  15.371  0.0923 -0.1898  0.3269
 2238TIP3   OH230908   5.455   1.596  16.135  0.1816 -0.1778 -0.1603
 2238TIP3    H130909   5.430   1.570  16.046  3.0276 -0.5203 -0.9538
 2238TIP3    H230910   5.409   1.534  16.192  1.8912 -3.0676 -1.7032
 2239TIP3   OH230911   3.837   2.664  15.122 -0.2350 -0.0546  0.8506
 2239TIP3    H130912   3.775   2.727  15.085 -0.3244 -0.7305 -0.1961
 2239TIP3    H230913   3.921   2.709  15.121 -0.6806  0.8628  2.2552
 2240TIP3   OH230914   3.115   1.384  15.405  0.1521 -0.2912 -0.6456
 2240TIP3    H130915   3.192   1.328  15.402  0.7888  0.5050  0.2880
 2240TIP3    H230916   3.080   1.373  15.493 -0.9821 -0.8521 -1.1403
 2241TIP3   OH230917   4.347   3.654  15.562  0.6276  0.0421  0.2920
 2241TIP3    H130918   4.362   3.593  15.634 -2.2506  0.8975  1.7525
 2241TIP3    H230919   4.355   3.600  15.483  1.8263 -1.3626  1.3146
 2242TIP3   OH230920   4.250   1.779  14.137  0.0520 -0.0991  0.5301
 2242TIP3    H130921   4.291   1.701  14.174  0.1449 -0.5434 -0.4869
 2242TIP3    H230922   4.196   1.747  14.066 -0.2714  0.7215  0.3946
 2243TIP3   OH230923   0.142   1.041  15.060  0.4588 -0.2337 -0.0136
 2243TIP3    H130924   0.091   0.997  14.992  1.8356 -3.7533  0.9945
 2243TIP3    H230925   0.077   1.074  15.122 -0.7092 -0.6226 -0.9982
 2244TIP3   OH230926   6.249   8.150  15.326 -0.1677 -0.3831 -0.4926
 2244TIP3    H130927   6.282   8.237  15.347  2.1325 -0.9732 -1.3965
 2244TIP3    H230928   6.200   8.123  15.404  1.5657  0.5597  0.9857
 2245TIP3   OH230929   1.275   2.013  15.557  0.7425  0.0421 -0.2960
 2245TIP3    H130930   1.285   1.918  15.558 -0.4088 -0.0974  0.2998
 2245TIP3    H230931   1.287   2.037  15.465 -0.8192 -0.9216 -0.7920
 2246TIP3   OH230932   1.795   2.864  14.707 -0.5507 -0.2680  0.3150
 2246TIP3    H130933   1.845   2.940  14.676 -0.3384 -0.6588 -0.3330
 2246TIP3    H230934   1.858   2.812  14.755 -0.1698 -1.0267 -0.9519
 2247TIP3   OH230935   2.198   0.100  15.316  0.2150 -0.2220  0.6571
 2247TIP3    H130936   2.284   0.132  15.286 -0.8947  0.0670 -2.6507
 2247TIP3    H230937   2.206   0.097  15.411  3.7353  0.2199  0.5361
 2248TIP3   OH230938   5.430   0.329  15.009 -0.1337 -0.4268 -0.1804
 2248TIP3    H130939   5.345   0.316  14.969 -1.3321  0.8899  1.7414
 2248TIP3    H230940   5.443   0.251  15.063 -0.9868  0.1345  0.8803
 2249TIP3   OH230941   4.358   7.183  13.771  0.5346  0.3586 -0.1213
 2249TIP3    H130942   4.418   7.252  13.798  1.8519 -0.9898  0.5060
 2249TIP3    H230943   4.276   7.204  13.815  1.0224  1.3193  0.3566
 2250TIP3   OH230944   5.000   4.583  14.737  0.0790  0.5021 -0.0667
 2250TIP3    H130945   4.969   4.511  14.681  0.0950  0.5998 -0.2021
 2250TIP3    H230946   5.057   4.541  14.801 -1.1813  0.1430  0.8775
 2251TIP3   OH230947   7.000   7.072  14.624 -0.3335 -0.0924 -0.1754
 2251TIP3    H130948   7.070   7.010  14.607  0.4655  0.7865 -0.1746
 2251TIP3    H230949   7.030   7.123  14.700 -0.7347  0.6191 -0.4784
 2252TIP3   OH230950   5.089   3.542  15.816  1.1445 -0.3731 -0.3761
 2252TIP3    H130951   5.057   3.559  15.905  0.3299 -1.5646 -0.4156
 2252TIP3    H230952   5.076   3.625  15.770  0.3465 -0.1135  0.2732
 2253TIP3   OH230953   1.421   6.961  14.679 -0.1448 -0.4975 -0.3921
 2253TIP3    H130954   1.383   6.885  14.722  1.7437 -1.6520 -0.6735
 2253TIP3    H230955   1.402   6.948  14.586 -0.1876 -0.3945 -0.3986
 2254TIP3   OH230956   2.354   0.540  14.677  0.9546  0.2749  0.0502
 2254TIP3    H130957   2.286   0.535  14.609  1.9313  0.1079 -0.9305
 2254TIP3    H230958   2.307   0.521  14.759 -0.1035 -0.2071 -0.6469
 2255TIP3   OH230959   1.688   6.691  14.774  0.0613 -0.5097 -0.3385
 2255TIP3    H130960   1.746   6.746  14.722 -0.0015  0.2404  0.3558
 2255TIP3    H230961   1.734   6.608  14.783  1.2520  0.2138  0.5638
 2256TIP3   OH230962   0.484   8.053  16.124  0.4035  0.0076 -0.8081
 2256TIP3    H130963   0.407   8.057  16.066  0.9860  1.5432 -1.5241
 2256TIP3    H230964   0.557   8.031  16.066  0.8931  0.9234 -0.5451
 2257TIP3   OH230965   5.794   6.484  14.190  0.6846  0.5026 -0.3682
 2257TIP3    H130966   5.787   6.444  14.103 -1.7322 -0.8466  0.3413
 2257TIP3    H230967   5.850   6.424  14.239 -2.9539 -2.4697  0.7035
 2258TIP3   OH230968   2.062   6.743  14.790  0.1688  0.2303  0.0396
 2258TIP3    H130969   2.093   6.793  14.715  0.6832 -1.1372 -0.6924
 2258TIP3    H230970   2.020   6.666  14.752 -2.5812  1.1045  1.0542
 2259TIP3   OH230971   4.901   5.814  13.788  0.0185  0.4289  0.7034
 2259TIP3    H130972   4.924   5.903  13.813 -2.0053  1.9434 -2.2443
 2259TIP3    H230973   4.967   5.789  13.724 -0.1203  0.2912  0.6143
 2260TIP3   OH230974   8.257   0.045  14.722 -0.4636  0.3772  0.0830
 2260TIP3    H130975   8.323  -0.015  14.759 -0.1782  0.0228 -0.9574
 2260TIP3    H230976   8.181   0.035  14.779 -1.4930 -3.2042 -1.5782
 2261TIP3   OH230977   6.804   3.487  16.009  0.0981  0.4312  0.1067
 2261TIP3    H130978   6.726   3.507  15.958 -0.1379  0.2745  0.4050
 2261TIP3    H230979   6.777   3.416  16.068  0.3524  0.6458  0.4843
 2262TIP3   OH230980   7.072   3.956  15.618 -0.1526 -0.1368  0.1960
 2262TIP3    H130981   7.022   3.893  15.670  0.0749 -1.7996 -1.5256
 2262TIP3    H230982   7.123   3.903  15.558  2.4217  1.5565  0.7024
 2263TIP3   OH230983   2.273   0.055  13.622 -0.2600 -0.0237  0.2282
 2263TIP3    H130984   2.203   0.018  13.569 -0.4868  0.3036  0.2968
 2263TIP3    H230985   2.263   0.014  13.708 -0.3869  0.0485  0.2478
 2264TIP3   OH230986   8.128   0.218  15.981  0.0279  0.6456  0.1096
 2264TIP3    H130987   8.122   0.272  16.060  0.8003  0.8421  0.0477
 2264TIP3    H230988   8.045   0.170  15.978 -0.3227  1.2042  0.6229
 2265TIP3   OH230989   3.546   4.523  15.461 -0.2726 -0.2991 -0.6332
 2265TIP3    H130990   3.557   4.577  15.540  0.9677 -1.7620  0.2405
 2265TIP3    H230991   3.609   4.559  15.399  0.8335 -0.9424  0.0841
 2266TIP3   OH230992   7.839   7.124  15.381  0.1734 -0.0653  0.5867
 2266TIP3    H130993   7.774   7.056  15.361 -1.5961  0.4644  3.7190
 2266TIP3    H230994   7.787   7.204  15.392  1.8927  1.2794 -0.4500
 2267TIP3   OH230995   4.803   5.730  14.759 -0.0800  0.1775  0.3092
 2267TIP3    H130996   4.882   5.685  14.728 -0.8528 -1.0933  0.1183
 2267TIP3    H230997   4.731   5.683  14.718 -0.9407  1.8738 -0.2420
 2268TIP3   OH230998   2.735   1.548  15.135 -0.3978  0.6734 -0.0227
 2268TIP3    H130999   2.810   1.558  15.194  0.1986 -0.0194 -0.6343
 2268TIP3    H231000   2.663   1.591  15.180 -0.3503 -1.1449  1.9472
 2269TIP3   OH231001   8.158   8.404  16.126 -0.6250 -0.7129  0.0667
 2269TIP3    H131002   8.240   8.430  16.084 -0.2367  1.0774  1.8042
 2269TIP3    H231003   8.171   8.311  16.148  0.6966 -0.6152 -0.2452
 2270TIP3   OH231004   3.294   0.119  15.328 -0.3587 -0.3044  0.0637
 2270TIP3    H131005   3.298   0.029  15.296  1.8479 -1.2955  2.7410
 2270TIP3    H231006   3.235   0.115  15.403  1.7148 -0.2117  1.8078
 2271TIP3   OH231007   3.239   7.918  15.970 -0.6011  0.3591 -0.0775
 2271TIP3    H131008   3.193   7.870  16.039 -0.5697  0.4227 -0.0129
 2271TIP3    H231009   3.230   8.010  15.995 -0.5233  0.3773 -0.1172
 2272TIP3   OH231010   0.086   8.174  15.220  0.4140  0.0245  0.3722
 2272TIP3    H131011   0.162   8.116  15.230  0.3604  0.0375  0.8987
 2272TIP3    H231012   0.095   8.237  15.292  0.7293  0.9722 -0.4772
 2273TIP3   OH231013   5.647   4.369  14.664  0.4246  0.1802  0.0637
 2273TIP3    H131014   5.734   4.369  14.622 -0.3849  1.2424 -1.7215
 2273TIP3    H231015   5.586   4.387  14.593 -1.3415 -0.9493  1.2122
 2274TIP3   OH231016   5.647   4.826  14.920  0.2985  0.6821 -0.0356
 2274TIP3    H131017   5.661   4.784  14.835 -0.5169 -1.4876  0.8351
 2274TIP3    H231018   5.728   4.809  14.969  0.2087  0.6794  0.1114
 2275TIP3   OH231019   0.693   0.119  14.410  0.1722  0.3974  0.3373
 2275TIP3    H131020   0.722   0.030  14.428  1.5347  0.8264  0.3815
 2275TIP3    H231021   0.767   0.159  14.364 -1.8658  0.3601 -3.3461
 2276TIP3   OH231022   6.320   3.378  15.642  0.3315  0.3642 -0.0136
 2276TIP3    H131023   6.360   3.333  15.716  0.3726  0.7401  0.1892
 2276TIP3    H231024   6.372   3.457  15.630  0.4857  0.1872 -0.6035
 2277TIP3   OH231025   0.075   4.225  16.013 -0.3026 -0.1860  0.4886
 2277TIP3    H131026   0.064   4.307  16.062 -1.1634 -0.3193  0.5301
 2277TIP3    H231027   0.052   4.248  15.923  0.5259 -0.1298  0.2786
 2278TIP3   OH231028   6.753   7.907  15.400  0.0199  0.1110 -0.1355
 2278TIP3    H131029   6.816   7.852  15.353 -1.5583  0.2727 -2.6584
 2278TIP3    H231030   6.681   7.848  15.423 -0.2448  0.4894  0.0241
 2279TIP3   OH231031   3.871   4.144  15.399  0.1058  0.0579  0.0019
 2279TIP3    H131032   3.891   4.201  15.474  1.3237  1.4406 -1.2857
 2279TIP3    H231033   3.804   4.193  15.350  0.4595 -0.0768 -0.6162
 2280TIP3   OH231034   1.102   7.032  14.691 -0.4885  0.5076  0.4432
 2280TIP3    H131035   1.131   6.955  14.643 -0.8926  0.5577  0.1179
 2280TIP3    H231036   1.105   7.103  14.627 -0.2775  0.7342  0.6972
 2281TIP3   OH231037   4.283   6.626  14.472 -0.1939  0.1084 -0.1641
 2281TIP3    H131038   4.272   6.534  14.498 -2.0924 -0.6505 -3.2285
 2281TIP3    H231039   4.373   6.632  14.443  0.0309 -0.6930  0.3313
 2282TIP3   OH231040   8.212   1.336  13.887  0.8674  0.3695  0.4791
 2282TIP3    H131041   8.146   1.271  13.907 -0.3802  2.2186  2.8630
 2282TIP3    H231042   8.265   1.342  13.966 -0.1274  3.3713  1.0354
 2283TIP3   OH231043   1.188   2.945  14.732  0.1405  0.1758  0.2751
 2283TIP3    H131044   1.198   3.037  14.707 -0.3189  0.0675 -0.3170
 2283TIP3    H231045   1.277   2.910  14.726  0.7663  1.1341  2.8403
 2284TIP3   OH231046   3.022   2.919  15.095 -0.9107  0.3256  0.3993
 2284TIP3    H131047   3.103   2.968  15.111 -1.3194  0.8800  0.8195
 2284TIP3    H231048   3.011   2.864  15.172 -0.9790  0.3213  0.3865
 2285TIP3   OH231049   0.583   4.209  15.198 -0.4006  0.7848 -0.8408
 2285TIP3    H131050   0.641   4.284  15.206 -1.0217  1.4673 -2.3189
 2285TIP3    H231051   0.500   4.239  15.236  0.3543 -0.4864  2.1184
 2286TIP3   OH231052   4.468   4.232  15.216 -0.1522 -0.5317 -0.0015
 2286TIP3    H131053   4.482   4.270  15.303  0.2148  0.3913 -0.4495
 2286TIP3    H231054   4.399   4.286  15.177  1.4798  0.7596 -1.2589
 2287TIP3   OH231055   7.717   3.334  13.813 -0.2183  0.1225 -0.2902
 2287TIP3    H131056   7.643   3.298  13.764  0.3018  0.0666 -1.0500
 2287TIP3    H231057   7.793   3.290  13.776  0.2088  0.2349  0.4376
 2288TIP3   OH231058   6.719   4.732  14.668  0.1751  0.6151 -0.0042
 2288TIP3    H131059   6.643   4.788  14.655  0.1481  0.2524 -1.5788
 2288TIP3    H231060   6.683   4.644  14.673  0.5128  0.4097 -1.1033
 2289TIP3   OH231061   5.340   5.314  15.363  0.4181  0.8325  0.4177
 2289TIP3    H131062   5.245   5.303  15.364  0.6968 -2.9268  0.8776
 2289TIP3    H231063   5.359   5.366  15.442 -1.1307 -1.1984  2.2474
 2290TIP3   OH231064   4.458   1.347  15.282 -0.6358 -0.2622  0.1003
 2290TIP3    H131065   4.366   1.368  15.266 -1.0343 -0.5694  1.7696
 2290TIP3    H231066   4.455   1.260  15.323  0.4913 -0.7596 -0.8387
 2291TIP3   OH231067   8.371   7.714  15.711  0.3101  0.0120 -0.1766
 2291TIP3    H131068   8.430   7.706  15.636 -0.2038 -0.5434 -0.5288
 2291TIP3    H231069   8.305   7.646  15.697  0.0373  0.1052  0.6223
 2292TIP3   OH231070   7.987   0.056  15.659 -0.3261  0.4600 -0.5400
 2292TIP3    H131071   7.928   0.096  15.594 -0.0734  0.1938 -0.9357
 2292TIP3    H231072   8.008  -0.030  15.622 -2.2260 -0.7893  1.1059
 2293TIP3   OH231073   6.909   7.735  15.572 -0.0131 -0.2612 -0.5375
 2293TIP3    H131074   6.889   7.717  15.664 -0.7712  0.8905 -0.4482
 2293TIP3    H231075   6.847   7.805  15.548  1.4086  0.7587 -1.3757
 2294TIP3   OH231076   5.397   4.605  15.684 -0.3980  0.4975 -0.1000
 2294TIP3    H131077   5.465   4.652  15.636 -0.3342 -0.0055 -0.5115
 2294TIP3    H231078   5.322   4.664  15.683 -0.4692  0.4148 -1.0175
 2295TIP3   OH231079   5.592   6.714  15.519  0.2348 -0.3346  0.7525
 2295TIP3    H131080   5.605   6.784  15.455  1.7912  0.0303  1.3991
 2295TIP3    H231081   5.630   6.636  15.478  0.7863 -0.2115  1.0167
 2296TIP3   OH231082   2.673   2.555  13.921 -0.5504  0.6567 -0.0207
 2296TIP3    H131083   2.593   2.516  13.884 -0.3059 -0.4184  0.5338
 2296TIP3    H231084   2.669   2.534  14.014  0.1113  1.0750  0.1100
 2297TIP3   OH231085   7.560   4.429  15.458 -0.2344 -0.0785  0.2956
 2297TIP3    H131086   7.592   4.339  15.448  0.5038  0.2618 -0.5426
 2297TIP3    H231087   7.465   4.420  15.465 -0.0753 -1.0193  1.5464
 2298TIP3   OH231088   4.246   3.363  14.959 -0.3076 -0.3928  0.4425
 2298TIP3    H131089   4.209   3.440  14.916  0.4452  0.1154  0.6887
 2298TIP3    H231090   4.190   3.350  15.036 -0.7369 -0.3954  0.1355
 2299TIP3   OH231091   1.089   1.713  15.675 -0.5589  0.4723  0.3658
 2299TIP3    H131092   1.116   1.744  15.761  1.4528 -0.5276  0.1577
 2299TIP3    H231093   1.031   1.782  15.642  0.0521  1.7377  1.7908
 2300TIP3   OH231094   6.538   4.370  14.912  0.8708  0.2856 -0.3479
 2300TIP3    H131095   6.473   4.400  14.976  1.3610 -0.9535  0.7721
 2300TIP3    H231096   6.497   4.293  14.872  0.2950  1.4264 -2.0365
 2301TIP3   OH231097   4.586   7.576  15.392  0.1141 -0.0459  0.4094
 2301TIP3    H131098   4.659   7.627  15.426  0.2051  0.1268 -0.0426
 2301TIP3    H231099   4.509   7.608  15.440  0.1769  0.4799  0.1591
 2302TIP3   OH231100   7.722   2.216  15.489 -0.2809  0.0894  0.0216
 2302TIP3    H131101   7.799   2.273  15.488  0.7185 -1.2175 -0.9792
 2302TIP3    H231102   7.651   2.273  15.518  0.8466  1.6107 -0.0644
 2303TIP3   OH231103   2.971   4.417  15.518  0.1384 -0.5868 -0.2625
 2303TIP3    H131104   2.928   4.370  15.591 -0.9705  1.5514  0.5405
 2303TIP3    H231105   3.046   4.460  15.558 -0.3013  0.3552 -0.4353
 2304TIP3   OH231106   8.390   1.066  15.415 -0.2209  0.5078  0.3994
 2304TIP3    H131107   8.393   1.104  15.327 -0.8523  0.8143  0.5089
 2304TIP3    H231108   8.406   1.139  15.474 -0.6773  0.4691  0.5767
 2305TIP3   OH231109   8.439   2.290  15.109  0.1405 -0.2824 -0.1447
 2305TIP3    H131110   8.385   2.239  15.048 -2.8951  1.0134  1.2725
 2305TIP3    H231111   8.468   2.365  15.057 -1.6620  0.3467 -0.3111
 2306TIP3   OH231112   4.301   2.622  15.046  0.0297  0.1321  0.4373
 2306TIP3    H131113   4.382   2.669  15.064 -0.3559  0.7841  0.4954
 2306TIP3    H231114   4.311   2.539  15.094 -0.8306  1.6501  3.5586
 2307TIP3   OH231115   2.703   8.248  15.487 -0.2714 -0.4139  0.2501
 2307TIP3    H131116   2.690   8.228  15.580 -0.5693 -1.0315  0.0833
 2307TIP3    H231117   2.622   8.217  15.445  0.5236 -1.6420 -0.4323
 2308TIP3   OH231118   0.632   5.312  15.567 -0.4460 -0.2976  0.5433
 2308TIP3    H131119   0.608   5.405  15.565 -0.6576 -0.2141  3.4084
 2308TIP3    H231120   0.548   5.266  15.559 -0.3296 -0.2928 -1.0024
 2309TIP3   OH231121   6.887   0.789  14.625 -0.4092 -0.4491  0.2733
 2309TIP3    H131122   6.820   0.782  14.558  1.6839 -0.8490 -1.9119
 2309TIP3    H231123   6.897   0.883  14.640  0.3797 -0.2400 -1.3957
 2310TIP3   OH231124   1.328   2.398  14.904 -0.2553  0.0551  0.4802
 2310TIP3    H131125   1.236   2.423  14.914 -0.3436  0.0672 -0.3084
 2310TIP3    H231126   1.377   2.479  14.924 -0.4416  0.2193  0.2710
 2311TIP3   OH231127   2.391   4.687  14.195 -0.0869 -0.3232  0.4570
 2311TIP3    H131128   2.329   4.752  14.228 -0.6946 -0.4165 -0.4552
 2311TIP3    H231129   2.338   4.608  14.180  0.3750 -0.6073  0.2874
 2312TIP3   OH231130   6.743   3.186  15.832  0.1143  0.0320  0.5229
 2312TIP3    H131131   6.810   3.124  15.860  0.2054  0.0739  0.3988
 2312TIP3    H231132   6.787   3.243  15.769  0.0269  0.2099  0.6209
 2313TIP3   OH231133   4.991   3.915  14.907 -0.2332 -0.4332  0.3430
 2313TIP3    H131134   4.923   3.893  14.970 -1.1286  0.8148 -0.1689
 2313TIP3    H231135   4.974   3.858  14.832 -0.2377 -0.6658  0.5198
 2314TIP3   OH231136   8.121   3.666  16.047 -0.4611 -0.4764  0.0607
 2314TIP3    H131137   8.036   3.634  16.079 -0.1892 -1.2084  0.0694
 2314TIP3    H231138   8.145   3.605  15.978  0.2150 -0.4729  0.2820
 2315TIP3   OH231139   1.133   7.292  14.155  0.4332 -0.2294 -0.0233
 2315TIP3    H131140   1.114   7.377  14.194 -0.5623 -0.5531  0.2425
 2315TIP3    H231141   1.052   7.268  14.109  0.5254 -1.2266  0.2984
 2316TIP3   OH231142   6.418   1.639  16.299 -0.0132 -0.1391  0.8371
 2316TIP3    H131143   6.342   1.625  16.355  0.8601 -0.0682  2.0792
 2316TIP3    H231144   6.445   1.551  16.272 -1.0106 -0.1227 -0.3070
 2317TIP3   OH231145   3.397   4.203  15.145  0.1239  0.7787 -0.3531
 2317TIP3    H131146   3.447   4.268  15.195  1.1391 -0.3231  0.1038
 2317TIP3    H231147   3.458   4.173  15.078  0.4266 -1.2274  0.7535
 2318TIP3   OH231148   8.013   2.607  15.878  0.0237  0.0290  0.4235
 2318TIP3    H131149   8.061   2.567  15.951  0.4615  2.3736  1.5122
 2318TIP3    H231150   7.943   2.657  15.920 -0.7090  0.1554 -0.9010
 2319TIP3   OH231151   5.393   0.348  15.393  0.7665  0.1763  0.6452
 2319TIP3    H131152   5.410   0.265  15.347 -1.2902 -0.1576  0.3781
 2319TIP3    H231153   5.406   0.415  15.326  1.5538  0.0192  0.6226
 2320TIP3   OH231154   7.278   2.464  16.003  0.0659  0.9311  0.0587
 2320TIP3    H131155   7.313   2.390  16.052 -0.7748 -0.3890 -1.2309
 2320TIP3    H231156   7.356   2.507  15.967  0.5336 -0.2586 -0.4305
 2321TIP3   OH231157   0.511   0.956  13.661 -0.5702 -0.2904 -0.7865
 2321TIP3    H131158   0.480   1.032  13.710 -2.3290  0.3699 -2.7769
 2321TIP3    H231159   0.601   0.979  13.637 -0.2433  0.0643  0.6845
 2322TIP3   OH231160   0.039   4.349  16.274  0.2569  0.0032  0.1564
 2322TIP3    H131161   0.038   4.438  16.309  0.6890 -0.0872  0.4054
 2322TIP3    H231162  -0.053   4.322  16.274  0.1825  0.2482  0.5988
 2323TIP3   OH231163   6.954   4.479  14.858 -0.1087 -0.4484  0.0090
 2323TIP3    H131164   6.904   4.442  14.931  1.8448 -1.0675  1.1216
 2323TIP3    H231165   6.975   4.405  14.802  0.9158 -0.5034  0.4351
 2324TIP3   OH231166   4.662   1.942  15.425  0.0710 -0.0740  0.0948
 2324TIP3    H131167   4.753   1.916  15.413  0.2575  1.0851 -1.3116
 2324TIP3    H231168   4.656   1.965  15.518  1.2456 -0.0659  0.1843
 2325TIP3   OH231169   3.901   2.538  15.640  0.1104 -0.0541 -0.1023
 2325TIP3    H131170   3.887   2.629  15.666 -1.2933 -0.4868  0.7495
 2325TIP3    H231171   3.858   2.530  15.556 -0.4327 -0.1157  0.1780
 2326TIP3   OH231172   6.456   0.201  14.619 -0.3080 -0.2851 -0.4173
 2326TIP3    H131173   6.546   0.224  14.641 -0.4551  0.5954 -0.6986
 2326TIP3    H231174   6.459   0.177  14.526  0.1036 -2.8940  0.1894
 2327TIP3   OH231175   0.501   0.432  16.392  0.0414 -0.0927  0.2805
 2327TIP3    H131176   0.459   0.351  16.362 -2.9023  1.0053  1.0105
 2327TIP3    H231177   0.552   0.406  16.468 -0.4125 -1.3594  0.1800
 2328TIP3   OH231178   7.092   2.795  14.444  0.2325  0.0575  0.2625
 2328TIP3    H131179   7.069   2.743  14.521  0.8733 -0.6454 -0.0044
 2328TIP3    H231180   7.180   2.766  14.421  0.4574  1.0062 -0.1214
 2329TIP3   OH231181   4.236   2.601  16.180  0.1764  0.3064  0.0644
 2329TIP3    H131182   4.269   2.682  16.218  0.4723 -0.4738  1.5378
 2329TIP3    H231183   4.161   2.628  16.127 -1.0233  1.3670  2.1704
 2330TIP3   OH231184   6.062   8.223  13.990  0.0659 -0.4877  0.4181
 2330TIP3    H131185   5.978   8.209  13.946  0.1058 -1.5681  0.6663
 2330TIP3    H231186   6.099   8.135  14.000  1.4577  0.0086 -0.1295
 2331TIP3   OH231187   3.551   6.874  13.857  0.0755 -0.2891 -0.0514
 2331TIP3    H131188   3.471   6.893  13.808  0.5628 -1.2201 -1.2487
 2331TIP3    H231189   3.620   6.918  13.809  0.2604  0.9085  1.2440
 2332TIP3   OH231190   0.229   1.640  15.734  0.2448 -0.2479  0.2748
 2332TIP3    H131191   0.303   1.699  15.742  1.8933 -2.0931 -0.5121
 2332TIP3    H231192   0.173   1.679  15.667  2.9988 -1.1336 -2.7766
 2333TIP3   OH231193   2.839   1.315  14.349 -0.0424 -0.8974 -0.3892
 2333TIP3    H131194   2.744   1.307  14.339 -0.4616  0.7601  1.6387
 2333TIP3    H231195   2.864   1.384  14.289 -0.5740  0.4389  0.8679
 2334TIP3   OH231196   2.748   8.289  15.088  0.2408 -0.1269  0.6120
 2334TIP3    H131197   2.788   8.313  15.172  0.3942  0.4902  0.3681
 2334TIP3    H231198   2.819   8.299  15.024 -0.1672  0.5181  0.2450
 2335TIP3   OH231199   2.051   0.844  15.099  0.2903  0.5102 -0.4231
 2335TIP3    H131200   2.143   0.871  15.108  0.4487 -0.3414  0.7077
 2335TIP3    H231201   2.047   0.803  15.013  0.5686  2.0322 -1.1989
 2336TIP3   OH231202   4.931   8.237  14.893  0.1044  0.1706  0.1065
 2336TIP3    H131203   4.895   8.321  14.922 -0.9755  0.6110 -2.2111
 2336TIP3    H231204   4.954   8.252  14.801  0.5381 -1.8715 -0.1590
 2337TIP3   OH231205   0.079   7.907  14.127  0.5532 -0.1764  0.7110
 2337TIP3    H131206   0.091   7.842  14.197 -1.5534 -0.8045  0.5581
 2337TIP3    H231207   0.167   7.919  14.090  1.8137  0.3589  3.5590
 2338TIP3   OH231208   8.032   3.747  15.118  0.0519 -0.1242 -0.0734
 2338TIP3    H131209   7.984   3.828  15.133  0.1721 -0.1436  0.4296
 2338TIP3    H231210   8.118   3.761  15.158  0.0723 -0.4931  0.0244
 2339TIP3   OH231211   4.686   3.519  15.862 -0.3845  0.5340  0.3198
 2339TIP3    H131212   4.731   3.505  15.946 -0.2110  1.2344  0.3487
 2339TIP3    H231213   4.699   3.612  15.843 -0.2149  0.3284 -0.6069
 2340TIP3   OH231214   4.188   2.738  15.543  0.2773 -0.0792  0.0556
 2340TIP3    H131215   4.227   2.817  15.506  0.8727  0.3246  1.4927
 2340TIP3    H231216   4.123   2.770  15.606  1.9031 -0.6650  2.1168
 2341TIP3   OH231217   3.243   6.578  14.351  0.3104 -0.5216 -0.0080
 2341TIP3    H131218   3.155   6.591  14.386  0.2415 -0.7651 -0.0928
 2341TIP3    H231219   3.300   6.580  14.428  0.1607 -1.0433  0.1212
 2342TIP3   OH231220   6.796   3.689  15.088 -0.3218 -0.2052  0.2131
 2342TIP3    H131221   6.822   3.616  15.031 -0.3689  0.1024 -0.2075
 2342TIP3    H231222   6.869   3.700  15.148  0.3952  0.4325 -0.7392
 2343TIP3   OH231223   4.214   3.081  14.465  0.6785 -0.4695  0.7684
 2343TIP3    H131224   4.168   3.125  14.536  0.5181 -0.1285  0.4552
 2343TIP3    H231225   4.176   2.994  14.461 -0.8558  0.2138 -0.3248
 2344TIP3   OH231226   4.228   7.607  15.390 -0.1653 -0.3671 -0.2212
 2344TIP3    H131227   4.171   7.581  15.318 -0.2949 -1.5432  0.2908
 2344TIP3    H231228   4.182   7.679  15.432 -0.6851 -0.5068 -0.5429
 2345TIP3   OH231229   5.976   6.381  15.286  0.0390  0.3492 -0.1509
 2345TIP3    H131230   5.919   6.304  15.285  1.0827 -0.4837 -1.9394
 2345TIP3    H231231   6.044   6.360  15.350  0.1735 -0.1149 -0.4421
 2346TIP3   OH231232   5.783   0.198  14.109  0.0350  0.1618  0.6376
 2346TIP3    H131233   5.709   0.258  14.114  0.0414  0.1874  0.4423
 2346TIP3    H231234   5.845   0.241  14.050 -0.4082 -0.5065 -0.3427
 2347TIP3   OH231235   4.394   7.059  14.578 -0.0968  0.0644 -0.0570
 2347TIP3    H131236   4.319   7.118  14.587 -1.4668 -1.4828 -0.8730
 2347TIP3    H231237   4.378   6.989  14.642  2.7583  1.6645  2.7461
 2348TIP3   OH231238   7.812   6.268  14.674  0.7052 -0.8357  0.4706
 2348TIP3    H131239   7.846   6.338  14.730 -1.0555 -0.0934  0.6752
 2348TIP3    H231240   7.853   6.283  14.589  1.1507 -0.2078  0.7899
 2349TIP3   OH231241   6.058   6.506  15.023  0.1564  0.0210 -0.6800
 2349TIP3    H131242   6.018   6.464  15.099 -1.1638  0.3877 -1.1555
 2349TIP3    H231243   6.012   6.469  14.948  1.1146  0.0286 -1.2879
 2350TIP3   OH231244   4.156   1.453  15.302 -0.1124 -0.3301  0.4992
 2350TIP3    H131245   4.152   1.455  15.398 -0.1065 -0.6527  0.5083
 2350TIP3    H231246   4.169   1.544  15.276 -1.2348 -0.0859  0.7553
 2351TIP3   OH231247   4.553   7.636  15.113  0.5379 -0.1090  0.4884
 2351TIP3    H131248   4.552   7.601  15.202 -1.7782  1.5455  1.1957
 2351TIP3    H231249   4.645   7.633  15.088  0.8836 -4.0082  1.4708
 2352TIP3   OH231250   4.593   7.126  14.758  0.4727  0.1461  0.0752
 2352TIP3    H131251   4.536   7.114  14.682  0.3627  1.9254 -0.1512
 2352TIP3    H231252   4.640   7.207  14.741  0.4916  0.5658  1.8839
 2353TIP3   OH231253   4.533   5.782  15.471  0.3589  0.1723 -0.4990
 2353TIP3    H131254   4.535   5.868  15.429  1.8579  0.2516 -0.3210
 2353TIP3    H231255   4.441   5.768  15.494 -0.0868  1.2257 -1.5337
 2354TIP3   OH231256   5.791   1.856  14.046  0.0928  0.6049  0.4026
 2354TIP3    H131257   5.841   1.834  13.968  1.4590 -0.6174  1.5687
 2354TIP3    H231258   5.807   1.950  14.058 -0.5081  0.9107 -1.0126
 2355TIP3   OH231259   7.760   4.804  15.139 -0.1969  0.1950  0.3879
 2355TIP3    H131260   7.854   4.802  15.158 -0.2313 -0.1789  0.5187
 2355TIP3    H231261   7.718   4.769  15.217 -0.4254  0.0167  0.1879
 2356TIP3   OH231262   6.428   2.874  14.787 -0.2126 -0.7693  0.0286
 2356TIP3    H131263   6.349   2.925  14.767 -0.3498 -0.7096  0.6955
 2356TIP3    H231264   6.500   2.934  14.770 -0.4119  0.3143  2.4929
 2357TIP3   OH231265   4.353   1.054  14.449 -0.3569  0.0924  0.0286
 2357TIP3    H131266   4.282   1.080  14.509 -1.1490 -0.1300 -0.7858
 2357TIP3    H231267   4.359   0.959  14.459 -0.6587  0.0238 -0.4136
 2358TIP3   OH231268   0.090   5.689  15.259  0.1889 -0.2942  0.1930
 2358TIP3    H131269   0.049   5.667  15.175 -2.4687  1.4609  0.8960
 2358TIP3    H231270   0.166   5.741  15.235  0.0404 -0.6365 -1.1327
 2359TIP3   OH231271   8.053   8.257  14.890 -0.0592  0.3872  0.6158
 2359TIP3    H131272   8.115   8.191  14.858  0.0382  1.1567 -0.8577
 2359TIP3    H231273   8.006   8.286  14.812 -0.9193  1.2208  1.4204
 2360TIP3   OH231274   0.852   0.323  14.235 -0.5295 -0.0487  0.4194
 2360TIP3    H131275   0.887   0.322  14.147 -0.9440 -2.3806  0.2187
 2360TIP3    H231276   0.914   0.376  14.286 -0.7802  2.1186 -1.3963
 2361TIP3   OH231277   6.597   0.470  14.446  0.6366  0.0451 -0.2561
 2361TIP3    H131278   6.673   0.441  14.495 -0.6774 -1.6917  0.8902
 2361TIP3    H231279   6.571   0.393  14.395  0.0267  0.8093 -1.1324
 2362TIP3   OH231280   1.623   0.044  14.922 -0.6006 -0.5516  0.1027
 2362TIP3    H131281   1.674   0.009  14.849 -0.4278 -1.6663  0.7232
 2362TIP3    H231282   1.532   0.028  14.898 -0.5166 -1.8446  0.5389
 2363TIP3   OH231283   3.404   7.904  14.645 -0.6846  0.1785 -0.7946
 2363TIP3    H131284   3.436   7.986  14.608  2.5325 -0.8144 -0.5669
 2363TIP3    H231285   3.444   7.836  14.589  0.6319 -1.2595  1.6908
 2364TIP3   OH231286   0.942   1.477  14.913 -0.2939  0.4406  0.4595
 2364TIP3    H131287   0.895   1.504  14.835 -0.7328 -0.2364  0.4748
 2364TIP3    H231288   0.873   1.468  14.980 -0.4472 -2.1043  0.0758
 2365TIP3   OH231289   2.068   2.385  13.711 -0.0633 -0.5780 -0.0289
 2365TIP3    H131290   1.992   2.358  13.660  0.8905 -1.1705 -1.2067
 2365TIP3    H231291   2.065   2.481  13.710 -1.3349 -0.5925  0.8191
 2366TIP3   OH231292   7.737   7.446  13.924 -0.3779 -0.2059 -0.1726
 2366TIP3    H131293   7.702   7.465  13.837 -0.5592 -1.6532 -0.4483
 2366TIP3    H231294   7.688   7.503  13.983 -0.8771  0.1521 -0.9213
 2367TIP3   OH231295   4.570   7.950  14.825 -0.5018 -0.0341  0.3887
 2367TIP3    H131296   4.662   7.960  14.851 -0.4459 -1.0440  0.6584
 2367TIP3    H231297   4.573   7.931  14.731 -0.1444 -3.0716  0.8972
 2368TIP3   OH231298   6.027   5.724  15.048  0.2694 -0.3554  0.6851
 2368TIP3    H131299   6.085   5.707  15.122 -0.1843 -0.3830  1.0391
 2368TIP3    H231300   5.982   5.642  15.034  0.2446 -0.3054  0.4721
 2369TIP3   OH231301   4.818   7.339  15.443 -0.3660 -0.0547  0.2991
 2369TIP3    H131302   4.813   7.266  15.381 -0.8641  1.1885 -1.1926
 2369TIP3    H231303   4.906   7.332  15.481  0.0078 -0.7711 -0.6582
 2370TIP3   OH231304   6.833   4.133  14.985 -0.3949 -0.4255  0.3739
 2370TIP3    H131305   6.804   4.050  14.947 -1.3966  0.5845 -1.1797
 2370TIP3    H231306   6.755   4.169  15.028 -0.5192  0.6254 -0.6959
 2371TIP3   OH231307   4.272   6.196  13.833  0.1827 -0.3395 -0.0672
 2371TIP3    H131308   4.317   6.123  13.789 -0.6243 -0.5308 -0.6089
 2371TIP3    H231309   4.227   6.155  13.907  0.2103 -0.2994 -0.0289
 2372TIP3   OH231310   1.474   3.301  15.591 -0.3311  0.6014 -0.2100
 2372TIP3    H131311   1.427   3.265  15.516 -0.1266  0.4773 -0.2798
 2372TIP3    H231312   1.548   3.347  15.553  0.5296 -0.5753 -0.0326
 2373TIP3   OH231313   4.698   8.136  14.623 -0.2324  0.7813  0.0182
 2373TIP3    H131314   4.691   8.229  14.603 -0.9238  0.4384 -1.5089
 2373TIP3    H231315   4.741   8.098  14.546  0.6870 -0.0692  0.9212
 2374TIP3   OH231316   4.923   6.572  14.716 -0.1991  0.2248  0.0056
 2374TIP3    H131317   4.915   6.542  14.626 -1.3293  1.1057 -0.2118
 2374TIP3    H231318   5.017   6.569  14.734  0.0462  0.0647 -1.2133
 2375TIP3   OH231319   7.645   7.229  15.589  0.3813 -0.3590  0.3577
 2375TIP3    H131320   7.644   7.178  15.670 -0.1648 -0.5751  0.2241
 2375TIP3    H231321   7.559   7.211  15.549 -0.1771  1.3372  0.7173
 2376TIP3   OH231322   5.796   4.071  15.907  0.2175 -0.0856 -0.2797
 2376TIP3    H131323   5.797   4.167  15.899  0.4060  0.0580  1.2270
 2376TIP3    H231324   5.728   4.043  15.845  0.2333  1.0060 -0.8251
 2377TIP3   OH231325   7.481   5.092  14.388  0.1221 -0.4412  0.0997
 2377TIP3    H131326   7.417   5.160  14.370  0.8720  0.6257  1.3137
 2377TIP3    H231327   7.506   5.059  14.301 -0.7150  0.3792 -0.4683
 2378TIP3   OH231328   0.027   2.928  15.886 -0.3267 -0.0597  0.2517
 2378TIP3    H131329  -0.019   2.977  15.954 -0.2696  0.8189 -0.3339
 2378TIP3    H231330   0.071   2.857  15.933  0.0295  0.7661  1.1849
 2379TIP3   OH231331   3.987   6.996  16.053 -0.1009  0.3618  0.3016
 2379TIP3    H131332   3.945   6.934  15.994 -1.2714  0.5743  0.8579
 2379TIP3    H231333   3.920   7.013  16.120  1.0023  0.5119  1.3912
 2380TIP3   OH231334   2.548   3.068  14.685  0.3310 -0.7924  0.4532
 2380TIP3    H131335   2.573   3.007  14.615 -0.2606  1.8975 -2.3605
 2380TIP3    H231336   2.631   3.099  14.720  0.7235 -0.7024 -0.5095
 2381TIP3   OH231337   7.286   2.563  14.092 -0.7085 -0.5669  0.1563
 2381TIP3    H131338   7.311   2.595  14.006  1.0378 -0.6015  0.6026
 2381TIP3    H231339   7.251   2.475  14.077  1.6699 -1.4912 -0.3403
 2382TIP3   OH231340   6.483   7.317  16.059 -0.0138 -0.1041 -0.4265
 2382TIP3    H131341   6.441   7.319  16.145  0.0062  0.2873 -0.4224
 2382TIP3    H231342   6.574   7.294  16.077 -0.0869 -0.3648 -0.3785
 2383TIP3   OH231343   0.769   6.076  15.470  0.3748  0.0425 -0.3065
 2383TIP3    H131344   0.834   6.121  15.523 -0.0894  1.1727 -0.6554
 2383TIP3    H231345   0.703   6.143  15.451 -0.5163 -0.8757 -0.5762
 2384TIP3   OH231346   6.754   2.758  13.838  0.4433 -0.0888  0.3144
 2384TIP3    H131347   6.665   2.732  13.863 -0.4278 -0.5564 -2.7894
 2384TIP3    H231348   6.793   2.677  13.803  1.9655  0.2126  1.2268
 2385TIP3   OH231349   6.192   1.903  14.860 -0.1732  0.5704 -0.9912
 2385TIP3    H131350   6.107   1.947  14.870  0.2825  1.2367  0.2930
 2385TIP3    H231351   6.254   1.974  14.844  0.3489  0.2508 -0.4503
 2386TIP3   OH231352   2.176   4.172  14.621  0.5900 -0.3946  0.6223
 2386TIP3    H131353   2.222   4.201  14.701  1.3209  2.9813 -0.8315
 2386TIP3    H231354   2.084   4.185  14.641  0.6396 -1.2153  1.4623
 2387TIP3   OH231355   3.940   6.445  15.656  0.5970  0.0539 -0.1819
 2387TIP3    H131356   4.028   6.462  15.692 -0.4360  1.1422  2.0348
 2387TIP3    H231357   3.919   6.524  15.607  0.3793  0.3085  0.3198
 2388TIP3   OH231358   6.510   5.554  15.288 -0.6635  1.0446 -0.5372
 2388TIP3    H131359   6.466   5.552  15.203  0.7520  0.1782 -1.2812
 2388TIP3    H231360   6.551   5.468  15.295 -2.0178  0.5142  1.7335
 2389TIP3   OH231361   2.647   7.080  15.779  0.4991 -0.6266  0.2674
 2389TIP3    H131362   2.698   7.096  15.859 -0.3798  0.1031  0.6962
 2389TIP3    H231363   2.712   7.052  15.715  1.7562  2.0026  0.2608
 2390TIP3   OH231364   4.876   0.674  15.030 -0.0615  0.1148 -0.1310
 2390TIP3    H131365   4.831   0.636  15.105 -1.0527  0.1991 -0.6659
 2390TIP3    H231366   4.807   0.687  14.964  0.1286  3.1184  0.1147
 2391TIP3   OH231367   0.591   1.529  13.927 -0.2659  0.3922 -0.4584
 2391TIP3    H131368   0.643   1.505  13.850  0.8360  2.4599 -0.4412
 2391TIP3    H231369   0.555   1.615  13.904 -1.3463  0.2576  0.6794
 2392TIP3   OH231370   4.198   4.098  15.579  0.5554  0.5219  0.3314
 2392TIP3    H131371   4.202   4.182  15.534  0.8170  0.2511 -0.1559
 2392TIP3    H231372   4.157   4.039  15.516 -1.1358  0.6519  1.2483
 2393TIP3   OH231373   0.897   7.077  14.904 -0.4398  0.3673  0.1640
 2393TIP3    H131374   0.907   7.117  14.990  0.3340 -0.5791  0.5459
 2393TIP3    H231375   0.955   7.128  14.847 -1.3953  1.3611  0.0581
 2394TIP3   OH231376   6.093   4.729  15.684  0.0755  0.1391 -0.1421
 2394TIP3    H131377   6.068   4.811  15.726  0.5041 -0.0958  0.5935
 2394TIP3    H231378   6.081   4.662  15.752  0.6587 -0.2699 -0.4261
 2395TIP3   OH231379   5.459   2.149  15.559  0.3303 -0.3789  0.2062
 2395TIP3    H131380   5.532   2.090  15.541  0.9199  0.3725  0.0687
 2395TIP3    H231381   5.382   2.093  15.558  0.6779 -0.8882 -1.5915
 2396TIP3   OH231382   0.131   0.569  16.208  0.0454 -0.0119  0.5707
 2396TIP3    H131383   0.224   0.558  16.189 -0.2204  0.1325 -0.8831
 2396TIP3    H231384   0.129   0.611  16.294  1.2691 -2.3516  1.8633
 2397TIP3   OH231385   1.917   1.719  15.283  0.4376  1.0177  0.2906
 2397TIP3    H131386   1.903   1.814  15.281  2.0611  1.3302  1.4287
 2397TIP3    H231387   1.911   1.696  15.376  1.4056  0.2400  0.1756
 2398TIP3   OH231388   4.313   4.341  15.794 -0.1715 -0.4566  0.0482
 2398TIP3    H131389   4.277   4.379  15.714  0.3549  0.8453  0.4015
 2398TIP3    H231390   4.252   4.272  15.817 -0.5796 -0.5498 -1.2292
 2399TIP3   OH231391   1.401   0.371  14.153  0.0788 -0.3531 -0.5671
 2399TIP3    H131392   1.333   0.315  14.190 -0.3497  0.1543 -0.5725
 2399TIP3    H231393   1.371   0.391  14.064  0.4009 -0.4023 -0.6899
 2400TIP3   OH231394   1.092   4.429  14.104 -0.0446  0.2338  0.6189
 2400TIP3    H131395   1.133   4.439  14.018 -1.4722  1.2548  0.0172
 2400TIP3    H231396   1.166   4.414  14.164  1.1908  1.6329 -0.4593
 2401TIP3   OH231397   5.669   5.946  13.922  0.2449 -0.4397  0.1929
 2401TIP3    H131398   5.756   5.981  13.904  1.3395 -2.4307  1.2843
 2401TIP3    H231399   5.625   6.016  13.969  1.0626  0.7817 -0.7880
 2402TIP3   OH231400   4.680   7.934  15.127 -0.4732  0.8391  0.1814
 2402TIP3    H131401   4.745   7.895  15.068  0.4509  0.2212  1.5570
 2402TIP3    H231402   4.596   7.906  15.091  0.1078 -0.7122 -0.0749
 2403TIP3   OH231403   8.440   7.235  14.156 -0.4477 -0.0416  0.3071
 2403TIP3    H131404   8.445   7.313  14.101  0.0730 -1.7316 -2.2300
 2403TIP3    H231405   8.527   7.196  14.150 -0.8913 -1.1711  0.9327
 2404TIP3   OH231406   7.313   5.566  14.401  0.2565 -0.5029 -0.3557
 2404TIP3    H131407   7.258   5.557  14.324  0.0138 -1.7172 -0.0601
 2404TIP3    H231408   7.280   5.500  14.462  1.1319 -0.2951  0.3648
 2405TIP3   OH231409   8.319   6.480  15.576  0.4760 -0.3814  0.5002
 2405TIP3    H131410   8.367   6.563  15.575 -1.5383  0.8487  0.4524
 2405TIP3    H231411   8.284   6.472  15.665 -1.6758  0.3042 -0.2138
 2406TIP3   OH231412   4.791   2.824  14.030  0.1912  0.3094 -0.9379
 2406TIP3    H131413   4.696   2.812  14.023  0.0725  1.9852 -2.9633
 2406TIP3    H231414   4.801   2.897  14.091  0.2211 -0.0104 -0.5509
 2407TIP3   OH231415   3.670   4.288  15.293  0.7074 -0.4695  0.4460
 2407TIP3    H131416   3.634   4.367  15.334 -1.2706 -0.7051 -0.7269
 2407TIP3    H231417   3.665   4.305  15.199 -3.4192 -3.3028 -0.1193
 2408TIP3   OH231418   8.131   7.950  14.911 -0.5809  0.1611  0.0750
 2408TIP3    H131419   8.050   7.969  14.960 -0.2337  1.2915  0.2410
 2408TIP3    H231420   8.109   7.972  14.820 -1.3934 -2.4424 -0.4372
 2409TIP3   OH231421   7.012   2.165  15.975  0.0801 -0.9457  0.0287
 2409TIP3    H131422   6.919   2.182  15.993  0.8096  2.1688  1.4665
 2409TIP3    H231423   7.052   2.156  16.061  1.4958  0.2871 -0.4711
 2410TIP3   OH231424   5.871   2.477  15.277  0.7517  0.0585  0.2012
 2410TIP3    H131425   5.783   2.467  15.314  0.6199  3.6202  1.1555
 2410TIP3    H231426   5.896   2.388  15.251 -2.8853 -1.1751  0.3596
 2411TIP3   OH231427   7.091   3.039  14.526  0.5308 -0.3093  0.0135
 2411TIP3    H131428   7.087   2.946  14.503  2.6438 -0.8000  1.4126
 2411TIP3    H231429   7.183   3.063  14.514 -0.0564  1.7900 -0.8517
 2412TIP3   OH231430   7.943   7.121  15.938 -0.4728 -0.0260  0.3361
 2412TIP3    H131431   8.000   7.044  15.945 -0.8803 -0.3730 -0.0326
 2412TIP3    H231432   7.958   7.170  16.019 -0.6522 -0.8144  0.8682
 2413TIP3   OH231433   4.085   6.995  13.776 -0.0610 -0.0010 -0.0705
 2413TIP3    H131434   4.123   7.064  13.829  0.8342 -0.8168  0.3894
 2413TIP3    H231435   4.152   6.926  13.774 -0.8618 -0.7949 -0.6240
 2414TIP3   OH231436   2.117   5.127  15.505 -0.1553 -0.3993 -0.4689
 2414TIP3    H131437   2.100   5.034  15.487 -1.4493 -0.2608 -0.0859
 2414TIP3    H231438   2.206   5.142  15.473 -0.1858 -1.6026 -1.1837
 2415TIP3   OH231439   1.791   3.446  15.758 -0.0547 -0.3749 -0.0537
 2415TIP3    H131440   1.781   3.429  15.664  1.5205 -0.8164 -0.1651
 2415TIP3    H231441   1.868   3.395  15.783 -1.0259 -1.0704  1.7005
 2416TIP3   OH231442   8.313   2.866  14.853  0.3680 -0.4483 -0.0630
 2416TIP3    H131443   8.275   2.778  14.845  0.7134 -0.5143 -1.0576
 2416TIP3    H231444   8.403   2.850  14.880 -0.2320 -0.2937  2.2322
 2417TIP3   OH231445   7.102   0.985  16.074 -0.2002  0.7637 -0.2967
 2417TIP3    H131446   7.079   0.986  15.981  0.2617  1.0166 -0.4109
 2417TIP3    H231447   7.173   0.920  16.081 -1.7551 -0.9635  0.2599
 2418TIP3   OH231448   4.982   3.656  16.052  0.5114  0.2798  0.0004
 2418TIP3    H131449   5.021   3.732  16.008 -1.7784  3.1852  2.5186
 2418TIP3    H231450   5.049   3.626  16.113  1.1880  0.7408 -0.5003
 2419TIP3   OH231451   5.203   4.750  15.116  0.0701  0.1712  0.2212
 2419TIP3    H131452   5.246   4.688  15.175  1.9874  1.9174  0.7672
 2419TIP3    H231453   5.157   4.811  15.175  3.9358  3.3828  0.3389
 2420TIP3   OH231454   6.020   6.594  15.452 -0.2331 -0.4565 -0.7317
 2420TIP3    H131455   6.070   6.532  15.505  2.2092  1.8729 -0.0576
 2420TIP3    H231456   6.030   6.563  15.362 -1.8654 -2.7632 -0.2110
 2421TIP3   OH231457   4.978   0.008  16.204 -0.5023  0.2978 -0.0380
 2421TIP3    H131458   5.012  -0.081  16.216  0.5484  0.5364 -1.0594
 2421TIP3    H231459   4.915   0.000  16.133  0.1080  0.4767 -0.6085
 2422TIP3   OH231460   1.724   3.643  15.201 -0.8861  0.1378  0.1067
 2422TIP3    H131461   1.738   3.708  15.131 -0.8357  0.7572  0.6810
 2422TIP3    H231462   1.794   3.662  15.264 -1.1299 -0.2077  0.4784
 2423TIP3   OH231463   2.262   5.106  13.926  0.3374  0.3649  0.0020
 2423TIP3    H131464   2.186   5.054  13.901  0.2952 -0.0136  0.8942
 2423TIP3    H231465   2.337   5.056  13.891  0.2014  0.5108 -0.4937
 2424TIP3   OH231466   5.035   0.428  15.362  0.4566  0.0980  0.1667
 2424TIP3    H131467   4.975   0.454  15.432  0.5649 -0.3531  0.4249
 2424TIP3    H231468   4.994   0.462  15.282  0.0868  0.1879  0.3938
 2425TIP3   OH231469   1.244   4.388  14.735 -0.0559  0.0602 -0.1557
 2425TIP3    H131470   1.181   4.381  14.664 -0.0574  1.3240 -0.3080
 2425TIP3    H231471   1.324   4.350  14.699 -0.7723 -1.8006  0.1377
 2426TIP3   OH231472   6.519   8.092  14.699  0.0103  0.4620  0.1440
 2426TIP3    H131473   6.502   8.041  14.619 -1.4295  0.0047  0.7270
 2426TIP3    H231474   6.496   8.033  14.770  1.2382  0.8917  0.9265
 2427TIP3   OH231475   4.213   2.532  14.788  0.6077  0.3563  0.1876
 2427TIP3    H131476   4.306   2.521  14.769  0.9005  1.7504  0.6451
 2427TIP3    H231477   4.211   2.573  14.875 -0.3567  1.6289 -0.3852
 2428TIP3   OH231478   5.028   5.443  15.686 -0.0061 -0.1278  0.3604
 2428TIP3    H131479   4.988   5.361  15.656 -1.1493  0.8500 -0.8940
 2428TIP3    H231480   4.958   5.488  15.734 -0.2639  1.2914 -1.2606
 2429TIP3   OH231481   0.572   1.120  15.531 -0.2344 -0.0933 -0.1681
 2429TIP3    H131482   0.559   1.126  15.626 -0.3199 -0.7313 -0.1294
 2429TIP3    H231483   0.491   1.079  15.499  0.4192 -1.3229 -0.3114
 2430TIP3   OH231484   1.943   0.759  14.337 -0.0639  0.4262  0.3729
 2430TIP3    H131485   1.933   0.663  14.333  1.4559  0.0819  2.9881
 2430TIP3    H231486   1.868   0.788  14.390  0.1050  0.5401  0.5485
 2431TIP3   OH231487   8.401   6.754  15.636 -0.2326  0.2743 -0.0795
 2431TIP3    H131488   8.332   6.796  15.586 -0.9763  0.3158  0.9606
 2431TIP3    H231489   8.412   6.808  15.714 -0.7805 -1.0886  0.9868
 2432TIP3   OH231490   3.251   7.832  13.645 -0.4517 -0.3330 -0.0923
 2432TIP3    H131491   3.331   7.871  13.610 -0.3545  1.0098  1.5013
 2432TIP3    H231492   3.212   7.901  13.698 -2.7292 -0.9379 -0.8566
 2433TIP3   OH231493   0.160   5.452  14.706 -0.1010  0.0944  0.0548
 2433TIP3    H131494   0.249   5.425  14.729 -0.0077 -1.2791 -1.6991
 2433TIP3    H231495   0.105   5.378  14.732 -0.3508 -0.2268 -1.3019
 2434TIP3   OH231496   6.974   2.134  14.597 -0.7841  0.7142  0.5678
 2434TIP3    H131497   6.957   2.091  14.513 -0.2616  2.2180 -0.3330
 2434TIP3    H231498   7.003   2.062  14.654 -0.9085 -0.2990 -0.5966
 2435TIP3   OH231499   1.181   5.080  15.876 -0.2535 -0.0774  0.0280
 2435TIP3    H131500   1.168   5.172  15.902  0.8343  0.5565 -1.5124
 2435TIP3    H231501   1.276   5.071  15.869 -0.3948 -1.0012 -0.9073
 2436TIP3   OH231502   6.208   6.530  14.387  0.5780  0.0741 -0.3563
 2436TIP3    H131503   6.285   6.527  14.444  0.5540 -1.2921 -0.3744
 2436TIP3    H231504   6.224   6.464  14.320 -0.9878 -0.8787  0.1537
 2437TIP3   OH231505   7.235   5.050  15.001  0.6121  0.5899 -0.4871
 2437TIP3    H131506   7.161   5.050  14.941  0.3655  0.1700 -0.1846
 2437TIP3    H231507   7.212   5.117  15.066 -0.0611 -0.3764  0.2862
 2438TIP3   OH231508   2.501   3.000  15.796 -0.4103  0.5765 -0.4157
 2438TIP3    H131509   2.497   3.088  15.759 -0.4667  1.5411  1.7774
 2438TIP3    H231510   2.560   3.007  15.871 -1.8441 -0.7962  0.9215
 2439TIP3   OH231511   1.908   7.983  14.690  0.1825  0.0599 -0.2444
 2439TIP3    H131512   1.874   8.053  14.745 -0.3388 -0.7922  0.5436
 2439TIP3    H231513   1.915   8.022  14.603 -2.1906  0.4734 -0.2996
 2440TIP3   OH231514   3.830   2.224  15.022 -0.3462  0.1431  0.2137
 2440TIP3    H131515   3.754   2.279  15.042  0.4444  0.4502  2.7315
 2440TIP3    H231516   3.906   2.282  15.034  0.3846 -0.8051  0.3127
 2441TIP3   OH231517   5.760   6.999  13.936  0.5364  0.2151 -0.1488
 2441TIP3    H131518   5.706   7.061  13.888  0.2281  2.1512  2.4698
 2441TIP3    H231519   5.699   6.933  13.969  0.6409 -0.6744 -1.6687
 2442TIP3   OH231520   4.376   5.313  15.521  0.4706  0.2053  0.8729
 2442TIP3    H131521   4.296   5.286  15.477  0.8659  0.6288 -0.1411
 2442TIP3    H231522   4.350   5.387  15.576 -0.2123 -0.9243  2.1189
 2443TIP3   OH231523   2.544   4.749  13.978 -0.6092  0.7847  0.0891
 2443TIP3    H131524   2.516   4.675  13.925 -0.6132  0.6456  0.2861
 2443TIP3    H231525   2.488   4.747  14.055  0.0872  0.3695  0.5959
 2444TIP3   OH231526   0.662   2.534  15.428 -0.2926 -0.6999 -0.1472
 2444TIP3    H131527   0.636   2.485  15.506 -2.4624  0.1862 -0.2404
 2444TIP3    H231528   0.756   2.519  15.420  0.3753  0.5271  3.5768
 2445TIP3   OH231529   0.392   5.181  15.574  0.2131 -0.2428 -0.2994
 2445TIP3    H131530   0.326   5.242  15.608  0.5602  0.5027 -0.9185
 2445TIP3    H231531   0.419   5.130  15.650 -1.2626 -0.7575 -0.0812
 2446TIP3   OH231532   5.970   1.469  14.924  0.4424 -0.4632  0.1979
 2446TIP3    H131533   6.014   1.440  14.845 -0.0812 -1.0605  0.1204
 2446TIP3    H231534   6.027   1.537  14.960  0.4637  0.1186 -0.9184
 2447TIP3   OH231535   5.512   4.474  15.882 -0.1730 -0.5190 -0.6070
 2447TIP3    H131536   5.435   4.459  15.937  0.0690  2.4570  0.7551
 2447TIP3    H231537   5.480   4.532  15.813  1.0922  2.4612  1.1211
 2448TIP3   OH231538   7.157   5.556  15.690  0.4533  0.3463 -0.3311
 2448TIP3    H131539   7.079   5.509  15.719  0.7782  0.3251  0.5529
 2448TIP3    H231540   7.206   5.492  15.639 -0.1302  0.3769 -0.9371
 2449TIP3   OH231541   7.424   7.273  14.510  0.5698  0.0337  0.2863
 2449TIP3    H131542   7.507   7.227  14.506  0.1221 -0.8624  0.9876
 2449TIP3    H231543   7.361   7.214  14.468 -0.2258 -0.5313  2.1805
 2450TIP3   OH231544   7.433   2.265  16.128 -0.5248  0.4131 -0.0708
 2450TIP3    H131545   7.422   2.250  16.222 -1.3048 -1.4728 -0.4090
 2450TIP3    H231546   7.527   2.256  16.114 -0.5933 -1.3850  0.2806
 2451TIP3   OH231547   0.686   4.476  15.298  0.0669 -0.1441 -0.1010
 2451TIP3    H131548   0.692   4.544  15.365 -1.3891 -1.0529  0.9963
 2451TIP3    H231549   0.777   4.451  15.281  0.5219  0.9447  0.6283
 2452TIP3   OH231550   5.987   4.571  15.905  0.3800 -0.1136  0.9830
 2452TIP3    H131551   5.984   4.629  15.981 -2.0217  0.1755  0.7499
 2452TIP3    H231552   5.957   4.486  15.939 -2.0921  0.3537  0.1800
 2453TIP3   OH231553   2.438   6.667  14.644 -0.1943  0.7826 -0.4803
 2453TIP3    H131554   2.412   6.591  14.697 -2.7531  0.9044 -1.4208
 2453TIP3    H231555   2.390   6.656  14.562  1.6458  1.9618 -1.7921
 2454TIP3   OH231556   6.502   7.794  15.440  0.3217 -0.2004 -0.6084
 2454TIP3    H131557   6.458   7.855  15.500  1.4682 -0.2949  0.3505
 2454TIP3    H231558   6.446   7.717  15.440 -0.0868  0.0876 -0.2576
 2455TIP3   OH231559   3.471   1.635  13.989  0.1901  0.5875 -0.6756
 2455TIP3    H131560   3.436   1.575  13.923  1.1290 -1.2367  0.4038
 2455TIP3    H231561   3.448   1.594  14.073  1.7908  1.1749  0.0799
 2456TIP3   OH231562   0.412   5.502  15.052 -0.3395  0.2539  0.3848
 2456TIP3    H131563   0.392   5.593  15.078  0.6367  0.9513 -1.1610
 2456TIP3    H231564   0.327   5.461  15.040 -0.8261  1.4673 -0.4895
 2457TIP3   OH231565   2.568   4.465  15.558  0.3794  0.2561 -0.4594
 2457TIP3    H131566   2.524   4.391  15.600 -0.8127  0.1730 -1.7945
 2457TIP3    H231567   2.518   4.541  15.587 -0.8200  0.1481 -2.1021
 2458TIP3   OH231568   4.634   0.110  15.269  0.3850  0.1564  0.0130
 2458TIP3    H131569   4.591   0.149  15.193  0.0909  1.0564  0.6233
 2458TIP3    H231570   4.723   0.144  15.266  1.6016 -2.7857 -2.0355
 2459TIP3   OH231571   6.283   6.848  15.285  0.1486 -0.9751  0.0847
 2459TIP3    H131572   6.242   6.856  15.371  2.0263 -0.6786  1.0181
 2459TIP3    H231573   6.302   6.755  15.276  1.3699 -0.8154  0.7426
 2460TIP3   OH231574   7.560   8.244  15.320  0.1355  0.4313 -0.2514
 2460TIP3    H131575   7.526   8.175  15.377  1.3890 -0.4218 -0.5067
 2460TIP3    H231576   7.483   8.297  15.299 -0.9213 -1.0387 -0.2595
 2461TIP3   OH231577   3.691   2.080  14.829 -0.1587 -0.0273  0.1476
 2461TIP3    H131578   3.723   2.080  14.919  0.5784 -0.2066 -0.1037
 2461TIP3    H231579   3.665   2.170  14.812 -0.9433 -0.1354  0.7589
 2462TIP3   OH231580   7.731   4.958  14.115  0.0807  0.3906  0.3246
 2462TIP3    H131581   7.674   5.028  14.085  0.8545  1.3494  1.0306
 2462TIP3    H231582   7.678   4.879  14.109 -0.2923  0.7322 -2.1291
 2463TIP3   OH231583   6.178   7.953  14.908  0.3914  0.5210 -0.2502
 2463TIP3    H131584   6.094   7.920  14.940 -0.5965  0.9304 -2.2661
 2463TIP3    H231585   6.205   7.891  14.841  0.4043  1.7118 -1.4023
 2464TIP3   OH231586   1.591   6.406  14.868  0.7799  0.1678 -0.0413
 2464TIP3    H131587   1.560   6.332  14.920  0.9816  0.3265  0.3091
 2464TIP3    H231588   1.674   6.431  14.909  0.9761  0.2465 -0.4878
 2465TIP3   OH231589   8.090   0.968  15.855  0.0065 -0.5172 -0.0190
 2465TIP3    H131590   8.128   1.040  15.805 -0.5220 -0.8389 -0.9174
 2465TIP3    H231591   8.120   0.889  15.809 -1.6852 -0.7856 -0.7571
 2466TIP3   OH231592   2.336   0.880  14.919 -0.1525 -0.2616 -0.2544
 2466TIP3    H131593   2.340   0.870  15.014  0.5927 -1.0180 -0.3547
 2466TIP3    H231594   2.281   0.808  14.889  0.7857 -0.8950 -0.5081
 2467TIP3   OH231595   4.404   0.572  14.980  0.1668 -0.5590  0.1546
 2467TIP3    H131596   4.324   0.520  14.991 -0.8331  0.5290 -1.4775
 2467TIP3    H231597   4.387   0.626  14.902  1.8820  0.8439  0.6774
 2468TIP3   OH231598   0.607   0.089  15.853 -0.0108 -0.1027  0.0925
 2468TIP3    H131599   0.516   0.066  15.839 -0.1437  1.5093 -2.4033
 2468TIP3    H231600   0.615   0.177  15.818  1.8971  1.0196  2.9976
 2469TIP3   OH231601   7.702   8.311  15.068 -0.7535  0.4015 -0.3071
 2469TIP3    H131602   7.793   8.327  15.093 -0.7527 -1.0229  0.6759
 2469TIP3    H231603   7.659   8.282  15.149 -1.9076  0.3340 -0.9198
 2470TIP3   OH231604   1.977   1.022  14.256 -0.1506  0.0524 -0.3793
 2470TIP3    H131605   1.968   0.927  14.266 -2.1504  0.0079 -1.9349
 2470TIP3    H231606   1.900   1.058  14.301  1.7669  1.1720  2.2440
 2471TIP3   OH231607   6.610   3.071  14.799 -0.6787 -0.2000 -0.5049
 2471TIP3    H131608   6.703   3.088  14.818 -0.3831 -1.7772 -0.3895
 2471TIP3    H231609   6.591   3.126  14.723  0.3381  0.2036 -0.4873
 2472TIP3   OH231610   1.852   3.730  13.782  0.0395  0.4367 -0.2696
 2472TIP3    H131611   1.841   3.814  13.738  0.2801  0.2625 -0.6667
 2472TIP3    H231612   1.782   3.675  13.747  2.1099 -0.7200 -2.9050
 2473TIP3   OH231613   2.701   0.564  15.429 -0.0122  0.4757 -0.1709
 2473TIP3    H131614   2.744   0.484  15.399 -1.2577 -0.2684 -0.0455
 2473TIP3    H231615   2.768   0.632  15.420  0.2110  0.0146 -3.0558
 2474TIP3   OH231616   0.356   1.223  14.447  0.2395  0.2701  0.1007
 2474TIP3    H131617   0.394   1.135  14.438 -1.1215 -0.5125  1.4863
 2474TIP3    H231618   0.277   1.220  14.393  0.1717  0.6265  0.1807
 2475TIP3   OH231619   6.540   4.919  16.172 -0.3035  0.3206 -0.0647
 2475TIP3    H131620   6.487   4.979  16.120 -0.9025 -0.5065 -0.4263
 2475TIP3    H231621   6.596   4.875  16.108 -0.6766 -0.3267  0.0505
 2476TIP3   OH231622   4.366   8.176  14.762 -0.0579 -0.3100  0.2226
 2476TIP3    H131623   4.407   8.090  14.751  0.2970 -0.0738 -0.3746
 2476TIP3    H231624   4.339   8.200  14.673  1.6670  1.0927  0.0354
 2477TIP3   OH231625   0.360   2.623  14.905 -0.4233 -0.0104 -0.4247
 2477TIP3    H131626   0.339   2.677  14.829 -0.9292  0.3659 -0.0231
 2477TIP3    H231627   0.429   2.671  14.951 -1.0487  0.4257  0.0682
 2478TIP3   OH231628   4.677   6.966  14.372  0.3229 -0.1880 -0.0228
 2478TIP3    H131629   4.674   7.034  14.439  0.0470  0.4014 -0.6113
 2478TIP3    H231630   4.703   7.012  14.292  0.9616 -0.9322 -0.2593
 2479TIP3   OH231631   3.200   0.051  15.918 -0.4292  0.0142  0.2115
 2479TIP3    H131632   3.242   0.101  15.988  0.1313 -0.7851  0.4655
 2479TIP3    H231633   3.265   0.049  15.848 -1.1789  1.2384 -0.5562
 2480TIP3   OH231634   2.775   5.355  14.158 -0.1237 -0.2319  0.3328
 2480TIP3    H131635   2.734   5.416  14.219 -0.7472  1.0896 -1.3335
 2480TIP3    H231636   2.720   5.357  14.080  1.2675 -0.9549 -0.7291
 2481TIP3   OH231637   1.144   8.271  16.135  0.4494  0.2737  0.0713
 2481TIP3    H131638   1.146   8.365  16.120  1.0364  0.3594  0.6320
 2481TIP3    H231639   1.054   8.253  16.163 -0.0371  0.4411 -1.3347
 2482TIP3   OH231640   7.337   4.446  14.651  0.2424  0.2186 -0.0773
 2482TIP3    H131641   7.343   4.426  14.745 -0.1115  0.2207 -0.0523
 2482TIP3    H231642   7.327   4.541  14.648  0.2253  0.2154 -0.1175
 2483TIP3   OH231643   7.915   6.612  15.473  0.3439  0.2893  0.6591
 2483TIP3    H131644   7.822   6.617  15.451  0.1514 -1.9218  0.7747
 2483TIP3    H231645   7.928   6.682  15.538 -0.6435  2.2319 -1.1143
 2484TIP3   OH231646   4.633   1.368  15.780 -0.2776  0.1343  0.0769
 2484TIP3    H131647   4.549   1.363  15.825 -0.5908 -1.7968 -0.6486
 2484TIP3    H231648   4.690   1.417  15.841 -1.8739  1.4626  0.5782
 2485TIP3   OH231649   1.990   3.726  14.283 -0.0612 -0.2628  0.0790
 2485TIP3    H131650   1.982   3.798  14.345  0.2871 -0.2692  0.1323
 2485TIP3    H231651   2.044   3.661  14.328 -0.5589 -0.6553  0.1179
 2486TIP3   OH231652   4.873   6.074  15.677  0.2507 -0.4145 -0.0358
 2486TIP3    H131653   4.911   6.100  15.761 -0.6036 -1.8385  0.8488
 2486TIP3    H231654   4.886   5.979  15.674 -0.1499 -0.4454 -1.3008
 2487TIP3   OH231655   6.279   5.683  15.750  0.2718 -0.0548  0.0862
 2487TIP3    H131656   6.324   5.653  15.671  1.1517 -0.5436  0.7551
 2487TIP3    H231657   6.215   5.614  15.768 -0.1929  0.2386 -0.3945
 2488TIP3   OH231658   4.327   5.167  14.941 -0.4191 -0.0694  0.1745
 2488TIP3    H131659   4.324   5.108  14.865  0.1983 -2.1807  1.6678
 2488TIP3    H231660   4.266   5.127  15.003 -0.1865  1.0599  1.1434
 2489TIP3   OH231661   8.143   5.218  14.154  0.3358 -0.2719  0.2102
 2489TIP3    H131662   8.146   5.127  14.125 -1.2793 -0.2728 -0.0552
 2489TIP3    H231663   8.231   5.252  14.136  1.2743 -2.0181  1.2019
 2490TIP3   OH231664   3.791   7.869  14.427 -0.5918  0.3519  0.8048
 2490TIP3    H131665   3.802   7.888  14.334  1.2134 -0.0610  0.9107
 2490TIP3    H231666   3.795   7.774  14.434  0.6122  0.4296  1.4369
 2491TIP3   OH231667   3.760   1.402  14.400 -0.3993 -0.6976 -0.5136
 2491TIP3    H131668   3.785   1.468  14.335 -0.1838 -0.8121 -0.5499
 2491TIP3    H231669   3.665   1.394  14.392 -0.5642  0.3474  0.1958
 2492TIP3   OH231670   2.466   1.056  15.789 -0.2611 -0.3724 -0.8665
 2492TIP3    H131671   2.537   1.043  15.726 -0.9806 -0.0396 -1.7634
 2492TIP3    H231672   2.465   1.151  15.804  0.3751 -0.5173  0.2215
 2493TIP3   OH231673   6.043   1.298  14.721 -0.1992  0.3730 -0.1103
 2493TIP3    H131674   6.019   1.344  14.640  0.8762  0.5306 -0.3532
 2493TIP3    H231675   6.025   1.206  14.703 -0.1150  0.4254 -0.4668
 2494TIP3   OH231676   2.941   3.334  15.532 -0.4842 -0.0109 -0.1919
 2494TIP3    H131677   2.895   3.331  15.616 -0.6049  0.7818 -0.2228
 2494TIP3    H231678   3.033   3.343  15.555 -0.4217 -0.6715 -0.1447
 2495TIP3   OH231679   5.629   2.022  14.879  0.1827  0.0271  0.5291
 2495TIP3    H131680   5.635   1.927  14.885 -0.9701 -0.0347  0.8584
 2495TIP3    H231681   5.580   2.038  14.798 -2.6535  0.1812  2.1341
 2496TIP3   OH231682   8.382   0.521  14.902 -0.3273  0.4558 -0.6181
 2496TIP3    H131683   8.412   0.547  14.989  0.2203 -0.0246 -0.6524
 2496TIP3    H231684   8.288   0.509  14.911 -0.2443  0.2048 -0.0422
 2497TIP3   OH231685   4.597   2.733  16.070  0.8402 -0.4725 -0.0767
 2497TIP3    H131686   4.557   2.731  15.983  0.8852  0.4304 -0.1356
 2497TIP3    H231687   4.690   2.746  16.054  0.9731 -1.2086  0.0909
 2498TIP3   OH231688   7.949   3.307  14.744  0.4998 -0.1455  1.1098
 2498TIP3    H131689   7.956   3.364  14.821  0.9639 -0.2750  1.1658
 2498TIP3    H231690   7.982   3.360  14.671 -0.5594  0.2135  0.8671
 2499TIP3   OH231691   1.200   0.535  16.122  0.8715 -0.2573  0.1748
 2499TIP3    H131692   1.289   0.501  16.121  0.7386 -0.6555 -1.4272
 2499TIP3    H231693   1.149   0.471  16.071  0.1917  1.2019 -1.0626
 2500TIP3   OH231694   7.562   7.852  15.897  0.1938  0.0306 -0.5087
 2500TIP3    H131695   7.520   7.918  15.842  1.0824  1.2990  0.2471
 2500TIP3    H231696   7.506   7.846  15.974  1.4931  2.0511  0.7037
 2501TIP3   OH231697   3.602   7.736  13.809 -0.0538 -0.1575  0.4223
 2501TIP3    H131698   3.647   7.674  13.751 -0.2168 -1.1436  1.3095
 2501TIP3    H231699   3.646   7.820  13.794  0.3458 -0.5399 -0.6214
 2502TIP3   OH231700   2.582   1.557  15.403  0.5570  0.5582 -0.1264
 2502TIP3    H131701   2.517   1.627  15.400 -1.8202 -1.5276 -2.8206
 2502TIP3    H231702   2.530   1.477  15.415  2.8798 -1.0218 -0.0217
 2503TIP3   OH231703   3.372   6.153  14.840  0.2356 -0.1634  0.0873
 2503TIP3    H131704   3.332   6.174  14.756 -0.1419 -0.2214  0.2506
 2503TIP3    H231705   3.455   6.110  14.818  0.2891  0.1078 -0.2524
 2504TIP3   OH231706   6.473   2.250  15.473 -0.6311  0.3280  0.1576
 2504TIP3    H131707   6.464   2.340  15.442  1.9142  1.1184  1.4564
 2504TIP3    H231708   6.543   2.253  15.538 -1.1674 -2.4297  1.0188
 2505TIP3   OH231709   6.317   3.242  15.008 -0.2704 -0.1920 -0.1654
 2505TIP3    H131710   6.229   3.230  14.972 -1.0078  2.0449  0.6831
 2505TIP3    H231711   6.333   3.163  15.060 -1.3911 -1.0547 -1.0848
 2506TIP3   OH231712   7.336   7.155  14.161  0.1454  0.6142  0.1201
 2506TIP3    H131713   7.326   7.069  14.121  0.4442  0.9240 -0.6200
 2506TIP3    H231714   7.430   7.173  14.158 -0.1962  2.4173 -2.8376
 2507TIP3   OH231715   6.990   5.335  14.299 -0.5967  0.2297  0.2426
 2507TIP3    H131716   6.921   5.268  14.300 -1.2590  0.8135 -1.5768
 2507TIP3    H231717   7.043   5.312  14.222  1.1526 -0.0886  1.5003
 2508TIP3   OH231718   4.408   0.283  15.622 -0.1235 -0.1701  0.7245
 2508TIP3    H131719   4.476   0.317  15.680 -1.4829 -2.2310  3.8234
 2508TIP3    H231720   4.441   0.198  15.593  0.9895  1.2501 -2.6157
 2509TIP3   OH231721   0.416   5.766  14.715  0.0120 -0.0671  0.1276
 2509TIP3    H131722   0.452   5.854  14.721 -0.2069  0.0633 -0.4753
 2509TIP3    H231723   0.324   5.776  14.738 -0.0903 -0.0817 -0.2705
 2510TIP3   OH231724   2.066   4.556  16.413  0.2139  0.1423  0.3865
 2510TIP3    H131725   2.133   4.535  16.479  0.4488  1.5067  0.6131
 2510TIP3    H231726   2.017   4.629  16.451 -0.7715 -0.1915 -0.2189
 2511TIP3   OH231727   6.674   6.978  15.570 -0.2667  0.0170 -0.5233
 2511TIP3    H131728   6.581   6.985  15.552 -0.4501  1.1669  0.7236
 2511TIP3    H231729   6.715   6.977  15.483 -1.3206  1.2656 -1.0668
 2512TIP3   OH231730   1.189   6.804  14.526 -0.1668 -0.0611  0.5225
 2512TIP3    H131731   1.261   6.743  14.545 -0.1863  0.2828  1.7981
 2512TIP3    H231732   1.112   6.748  14.518 -0.2150 -0.2001  1.8524
 2513TIP3   OH231733   4.181   3.389  15.249  0.6875 -0.5069 -0.2755
 2513TIP3    H131734   4.142   3.461  15.199 -0.2865 -0.5485  0.4167
 2513TIP3    H231735   4.107   3.334  15.276  0.8656  0.6839  3.0892
 2514TIP3   OH231736   0.949   0.838  14.375 -0.2863  0.9534  0.5412
 2514TIP3    H131737   0.943   0.802  14.286 -0.1940  0.0773  0.8752
 2514TIP3    H231738   0.998   0.771  14.424 -2.8651 -0.0060  1.9857
 2515TIP3   OH231739   0.043   0.567  15.143  0.2555 -0.0347 -0.0946
 2515TIP3    H131740   0.095   0.490  15.167  0.6828 -0.5227 -2.3566
 2515TIP3    H231741   0.001   0.594  15.225  3.4891 -0.0194  1.7594
 2516TIP3   OH231742   7.026   4.632  13.969  0.2560  0.0726 -0.3226
 2516TIP3    H131743   6.937   4.639  13.935  0.1291 -3.2069 -1.0147
 2516TIP3    H231744   7.082   4.645  13.892  0.1325 -2.3068 -0.8978
 2517TIP3   OH231745   3.740   1.656  15.406  0.0923 -0.0618 -0.5986
 2517TIP3    H131746   3.762   1.570  15.441  0.5189  0.8729  1.5722
 2517TIP3    H231747   3.820   1.685  15.362  0.3511 -0.2729 -0.2746
 2518TIP3   OH231748   1.748   8.191  13.981 -0.1674 -0.1563  0.3842
 2518TIP3    H131749   1.842   8.205  13.964 -0.3448  2.7072  1.2663
 2518TIP3    H231750   1.722   8.127  13.915  2.6490 -2.0358  0.9242
 2519TIP3   OH231751   2.362   5.824  14.433  0.5149  0.2596  0.4106
 2519TIP3    H131752   2.436   5.872  14.469  0.8322  1.4474 -1.7244
 2519TIP3    H231753   2.336   5.873  14.356 -2.7977  0.1208  1.2791
 2520TIP3   OH231754   7.694   1.457  16.082  0.1182 -0.4176 -0.1879
 2520TIP3    H131755   7.721   1.545  16.057 -1.1683  0.3123  0.8683
 2520TIP3    H231756   7.748   1.435  16.158 -0.3154 -0.0875  0.2201
 2521TIP3   OH231757   1.246   7.930  13.866  0.5715 -0.1698  0.4372
 2521TIP3    H131758   1.336   7.897  13.857  0.4002 -0.7336  0.7666
 2521TIP3    H231759   1.204   7.869  13.926 -0.0426  0.0867  0.2711
 2522TIP3   OH231760   7.598   3.486  15.707 -0.4147  0.4757 -0.3687
 2522TIP3    H131761   7.593   3.391  15.706 -1.8361  0.5210 -0.1551
 2522TIP3    H231762   7.690   3.506  15.723 -0.5782 -0.9011  3.0785
 2523TIP3   OH231763   8.284   0.173  14.470  0.5369  0.1618  0.0466
 2523TIP3    H131764   8.235   0.127  14.401 -1.9403  3.2986 -0.5532
 2523TIP3    H231765   8.237   0.152  14.551 -0.8854  1.7441 -0.2882
 2524TIP3   OH231766   4.458   6.261  14.890 -0.3147  0.1661  0.4157
 2524TIP3    H131767   4.448   6.243  14.983  0.8626 -0.2947  0.4712
 2524TIP3    H231768   4.529   6.204  14.862 -2.7517 -2.2485 -1.5066
 2525TIP3   OH231769   3.588   8.439  15.549 -0.3791  0.0985  0.3287
 2525TIP3    H131770   3.638   8.517  15.571 -0.0385  0.0208 -0.1308
 2525TIP3    H231771   3.655   8.374  15.527 -0.5041 -1.2361  3.4437
 2526TIP3   OH231772   3.979   3.208  15.323  0.3514  0.7490  0.4472
 2526TIP3    H131773   4.023   3.124  15.315 -0.3535  0.3607  0.5751
 2526TIP3    H231774   3.931   3.202  15.406 -1.2613  0.5209 -0.4528
 2527TIP3   OH231775   3.786   6.631  15.179  0.2344 -0.5267  0.5782
 2527TIP3    H131776   3.834   6.566  15.129  1.2080 -0.3887  1.3006
 2527TIP3    H231777   3.710   6.584  15.214 -0.2977 -0.6933 -0.7539
 2528TIP3   OH231778   1.008   6.368  14.928 -0.3473 -0.2151 -0.2655
 2528TIP3    H131779   1.047   6.396  14.845 -0.7741 -0.5009 -0.5722
 2528TIP3    H231780   1.047   6.425  14.994  0.4377 -0.3674 -0.5827
 2529TIP3   OH231781   1.444   7.521  15.004 -0.2018  0.3274  0.0934
 2529TIP3    H131782   1.432   7.606  14.961 -0.3800  1.5410  2.3583
 2529TIP3    H231783   1.476   7.543  15.091 -1.4726 -1.8595  1.2094
 2530TIP3   OH231784   6.142   4.386  15.554 -0.2019 -0.0595  0.3791
 2530TIP3    H131785   6.070   4.356  15.498 -0.5883 -0.8967  1.3026
 2530TIP3    H231786   6.199   4.435  15.494 -0.8634 -0.4909 -0.6472
 2531TIP3   OH231787   6.286   7.090  13.947  0.6478  0.4707 -0.1755
 2531TIP3    H131788   6.361   7.030  13.937  1.1502  1.1271 -0.4270
 2531TIP3    H231789   6.326   7.174  13.970 -0.0976  0.5541  0.8630
 2532TIP3   OH231790   1.094   2.627  15.253 -0.2073 -0.0953  0.2763
 2532TIP3    H131791   1.175   2.678  15.249  0.9927 -1.7891  1.4976
 2532TIP3    H231792   1.084   2.589  15.165 -0.5337  1.3250 -0.3206
 2533TIP3   OH231793   1.636   3.167  14.151 -0.1986  0.0926  0.2161
 2533TIP3    H131794   1.557   3.180  14.099  0.1384  0.4106 -0.2194
 2533TIP3    H231795   1.682   3.096  14.106  0.0769  0.3447  0.1010
 2534TIP3   OH231796   0.751   3.957  16.050  0.2063  0.5044 -0.2007
 2534TIP3    H131797   0.659   3.940  16.028  0.4089 -1.1684  0.1166
 2534TIP3    H231798   0.789   3.870  16.062  1.5855  1.2055  0.7231
 2535TIP3   OH231799   5.461   3.848  14.891  0.0647 -0.3810 -0.2286
 2535TIP3    H131800   5.505   3.769  14.860 -1.1957 -0.8918 -0.8098
 2535TIP3    H231801   5.482   3.914  14.825 -0.3858 -0.7381 -0.7371
 2536TIP3   OH231802   1.423   2.638  13.590 -0.6428 -0.1766  0.0386
 2536TIP3    H131803   1.373   2.689  13.653  1.3870 -0.3464  1.8961
 2536TIP3    H231804   1.451   2.702  13.524 -1.2977  0.3411  0.2527
 2537TIP3   OH231805   7.790   7.637  14.976 -0.4434  0.3519 -0.6185
 2537TIP3    H131806   7.877   7.661  15.007 -0.5035 -0.0431 -0.1320
 2537TIP3    H231807   7.783   7.543  14.994 -1.3755  0.5804  0.3743
 2538TIP3   OH231808   3.190   6.987  15.192 -0.2457  0.1431 -0.3423
 2538TIP3    H131809   3.198   7.016  15.101  0.9499  0.2013 -0.2349
 2538TIP3    H231810   3.269   6.936  15.208 -0.0659  0.7609  0.8957
 2539TIP3   OH231811   3.720   3.604  15.545 -0.1718  0.8060 -0.2217
 2539TIP3    H131812   3.646   3.546  15.528 -0.3355  0.9719 -0.0743
 2539TIP3    H231813   3.795   3.559  15.505  0.1985 -0.7701  2.0552
 2540TIP3   OH231814   3.503   7.899  15.786 -0.2154  0.2940  0.4079
 2540TIP3    H131815   3.435   7.898  15.853 -1.2193 -0.5963 -0.5680
 2540TIP3    H231816   3.492   7.984  15.743 -0.1674  0.4942  0.7880
 2541TIP3   OH231817   5.763   4.166  16.427  0.0836  0.6389 -0.3747
 2541TIP3    H131818   5.806   4.187  16.344 -1.1574  1.4147 -0.8435
 2541TIP3    H231819   5.710   4.243  16.446 -0.4941  0.0105  0.5846
 2542TIP3   OH231820   3.178   4.753  14.148 -0.9830 -0.1314  0.1686
 2542TIP3    H131821   3.196   4.846  14.133 -1.2403 -0.1212 -0.0906
 2542TIP3    H231822   3.161   4.748  14.242  0.9181 -0.2475  0.5494
 2543TIP3   OH231823   0.227   5.298  14.063 -0.6741 -0.2294 -0.6030
 2543TIP3    H131824   0.224   5.394  14.054  0.9634 -0.0811  0.1264
 2543TIP3    H231825   0.156   5.278  14.125 -2.0030  0.3188 -1.8753
 2544TIP3   OH231826   1.354   6.805  15.607 -0.0946 -0.2281  0.4166
 2544TIP3    H131827   1.378   6.888  15.565  0.7788 -0.2116  0.9124
 2544TIP3    H231828   1.393   6.811  15.694  0.1449 -1.2384  0.3865
 2545TIP3   OH231829   7.571   6.876  15.110  0.0388 -0.1859 -0.0731
 2545TIP3    H131830   7.592   6.835  15.194 -1.7889 -1.2377 -0.0794
 2545TIP3    H231831   7.579   6.804  15.047  1.2219  0.5586 -0.8065
 2546TIP3   OH231832   2.283   5.181  14.866 -0.3794  0.0190  0.2834
 2546TIP3    H131833   2.262   5.098  14.824  1.8787  0.1772 -1.3792
 2546TIP3    H231834   2.215   5.242  14.835 -1.2061 -0.8524  0.3440
 2547TIP3   OH231835   5.038   7.751  16.026  0.4334 -0.2212 -0.1663
 2547TIP3    H131836   5.026   7.786  16.114 -2.3056  1.2635 -1.0107
 2547TIP3    H231837   5.125   7.781  16.000  0.1116  1.8972  0.9708
 2548TIP3   OH231838   2.618   5.295  14.680  0.4676  0.1308 -0.4975
 2548TIP3    H131839   2.549   5.331  14.737 -2.3859 -1.7021 -2.5199
 2548TIP3    H231840   2.658   5.372  14.639 -2.6650  1.3197 -1.6337
 2549TIP3   OH231841   8.137   3.787  14.491  0.3497 -0.3039 -0.8460
 2549TIP3    H131842   8.104   3.869  14.527  2.0298  0.2916 -0.5821
 2549TIP3    H231843   8.211   3.812  14.436  0.8366 -1.6238 -0.8370
 2550TIP3   OH231844   1.669   4.426  16.316 -0.7396 -0.5979  0.1587
 2550TIP3    H131845   1.721   4.492  16.270  0.3016 -1.0480  0.6538
 2550TIP3    H231846   1.716   4.344  16.301 -2.8261 -1.5456 -1.7453
 2551TIP3   OH231847   0.930   3.458  14.754 -0.6835  0.1778  0.0943
 2551TIP3    H131848   0.950   3.365  14.760  2.0483  0.6762 -0.2557
 2551TIP3    H231849   1.003   3.502  14.796 -3.1385  2.1816  2.6205
 2552TIP3   OH231850   0.837   1.991  14.907 -0.0715  0.0813  0.1599
 2552TIP3    H131851   0.829   1.959  14.996  0.4227  2.6175  1.2091
 2552TIP3    H231852   0.748   2.015  14.882 -0.2532 -0.8912 -0.1687
 2553TIP3   OH231853   0.216   0.815  15.613  0.0145  0.2383  0.2437
 2553TIP3    H131854   0.277   0.774  15.674 -0.5007  0.8325  1.1844
 2553TIP3    H231855   0.272   0.868  15.556  0.4661  0.0023  0.4628
 2554TIP3   OH231856   7.607   3.707  14.686  0.4998  0.2366  0.5929
 2554TIP3    H131857   7.525   3.678  14.646  0.3385  1.5946 -0.1170
 2554TIP3    H231858   7.674   3.649  14.648  0.1041  0.3082 -0.2213
 2555TIP3   OH231859   0.753   5.026  15.722 -0.3014  0.5577 -0.3553
 2555TIP3    H131860   0.823   4.970  15.756  0.3150  0.0463 -2.3618
 2555TIP3    H231861   0.672   4.983  15.749  0.1324  0.6145  1.1127
 2556TIP3   OH231862   6.322   3.742  16.205  0.1733 -0.5967 -0.6283
 2556TIP3    H131863   6.236   3.755  16.246  1.4503  0.1538  2.0767
 2556TIP3    H231864   6.303   3.696  16.123 -2.7573 -0.7653  0.0249
 2557TIP3   OH231865   7.297   0.507  15.961  0.6582 -0.2280  0.6323
 2557TIP3    H131866   7.392   0.519  15.965  0.8148 -1.4170  0.6478
 2557TIP3    H231867   7.282   0.460  15.879 -0.2664  2.8039 -1.1309
 2558TIP3   OH231868   3.657   6.544  14.707  0.0365  0.3263  0.1708
 2558TIP3    H131869   3.643   6.491  14.785 -1.0732 -0.2467 -0.3998
 2558TIP3    H231870   3.737   6.508  14.668  2.1574  2.2791  2.3502
 2559TIP3   OH231871   0.691   5.123  14.687  0.2241  0.3272 -0.2236
 2559TIP3    H131872   0.675   5.210  14.724  1.4383  0.3211  0.3848
 2559TIP3    H231873   0.652   5.126  14.599 -1.2636  0.8929  0.4354
 2560TIP3   OH231874   4.015   2.940  15.278  0.3734 -0.8574 -0.2752
 2560TIP3    H131875   4.020   2.888  15.198  1.3248 -0.3181 -0.5784
 2560TIP3    H231876   4.095   2.919  15.326  0.9836  0.5841 -0.5899
 2561TIP3   OH231877   0.509   3.294  14.470  0.3873 -0.2942  0.7347
 2561TIP3    H131878   0.545   3.208  14.448  1.6023  0.2175  0.6270
 2561TIP3    H231879   0.566   3.326  14.540  0.4945  0.7865  0.1651
 2562TIP3   OH231880   0.277   7.380  15.007 -0.5131 -0.4929  0.3373
 2562TIP3    H131881   0.296   7.381  14.913  1.1443 -0.1458  0.6484
 2562TIP3    H231882   0.205   7.317  15.016  0.5089 -1.9086 -0.9569
 2563TIP3   OH231883   6.228   2.139  15.557 -0.0661  0.5174  0.4044
 2563TIP3    H131884   6.313   2.166  15.522  0.6245  0.2378  1.7863
 2563TIP3    H231885   6.209   2.204  15.625 -2.0791  1.9304 -1.3864
 2564TIP3   OH231886   5.234   5.004  16.302  0.3951 -0.3207  0.2888
 2564TIP3    H131887   5.196   5.089  16.327  2.3822  0.6918 -0.0071
 2564TIP3    H231888   5.217   4.997  16.208 -0.2044 -0.4987  0.4046
 2565TIP3   OH231889   5.492   2.499  15.439 -0.3830 -0.2346 -0.0007
 2565TIP3    H131890   5.553   2.572  15.448 -0.5627 -0.0893  0.0478
 2565TIP3    H231891   5.547   2.422  15.426 -0.1974 -0.0414 -0.3865
 2566TIP3   OH231892   6.943   5.894  15.401  0.5111 -0.0127 -0.2452
 2566TIP3    H131893   6.989   5.975  15.383 -0.0748  0.0403 -1.6934
 2566TIP3    H231894   6.885   5.914  15.475  1.1123  0.5744  0.0699
 2567TIP3   OH231895   2.642   0.616  14.032  0.0437 -0.5273 -0.4727
 2567TIP3    H131896   2.671   0.616  13.941  0.9936 -0.2250 -0.1852
 2567TIP3    H231897   2.718   0.582  14.081  0.2504  1.1104  0.4018
 2568TIP3   OH231898   7.614   2.527  14.191  0.4273 -0.5831 -0.7530
 2568TIP3    H131899   7.526   2.536  14.154  0.7093 -1.3657 -1.6586
 2568TIP3    H231900   7.647   2.616  14.199  0.2638 -0.3678 -2.2041
 2569TIP3   OH231901   2.610   2.837  13.839 -0.2035  0.4503 -0.3350
 2569TIP3    H131902   2.522   2.838  13.878  0.3344 -0.7458  0.9740
 2569TIP3    H231903   2.636   2.745  13.841 -0.4451  0.0970 -4.3599
 2570TIP3   OH231904   7.532   1.442  14.296  0.1864 -1.0404 -0.0578
 2570TIP3    H131905   7.622   1.459  14.268  0.8273 -1.7722  1.4866
 2570TIP3    H231906   7.496   1.528  14.317  0.4539 -0.7312 -0.8252
 2571TIP3   OH231907   3.460   0.009  14.993 -0.2252 -0.2349  0.4684
 2571TIP3    H131908   3.541  -0.039  15.012  0.3605  0.2666 -0.6679
 2571TIP3    H231909   3.483   0.101  15.008 -0.5913 -0.0923  0.1577
 2572TIP3   OH231910   3.742   0.617  16.103 -0.0821  0.3476 -0.3725
 2572TIP3    H131911   3.707   0.530  16.087  0.6893 -0.2774  1.1765
 2572TIP3    H231912   3.693   0.650  16.178  1.0442  0.3809  0.3713
 2573TIP3   OH231913   4.720   6.562  15.021 -0.0738 -0.2856 -0.1466
 2573TIP3    H131914   4.678   6.599  14.944 -0.0725 -0.3726 -0.1894
 2573TIP3    H231915   4.773   6.490  14.987  1.3013  0.7474 -0.2915
 2574TIP3   OH231916   0.974   2.479  16.129 -0.4063  0.2712  0.4612
 2574TIP3    H131917   0.881   2.498  16.117 -0.4831  0.1280  0.8084
 2574TIP3    H231918   0.975   2.394  16.173 -0.1205  0.4763  0.8551
 2575TIP3   OH231919   1.677   5.171  15.465  0.3785 -0.1924 -0.1797
 2575TIP3    H131920   1.751   5.175  15.526  0.7539 -0.2853 -0.6242
 2575TIP3    H231921   1.645   5.261  15.461  0.7085 -0.0769 -0.2753
 2576TIP3   OH231922   1.609   1.996  14.602 -0.1318  0.2071 -0.1457
 2576TIP3    H131923   1.664   2.047  14.661  0.8043 -0.5127 -0.3746
 2576TIP3    H231924   1.670   1.938  14.556 -1.1597 -1.1065  0.0891
 2577TIP3   OH231925   8.145   0.716  14.460  0.3657  0.3794  0.6668
 2577TIP3    H131926   8.085   0.786  14.487 -0.0487  0.2919 -0.0110
 2577TIP3    H231927   8.170   0.739  14.371  0.5042 -0.1575  0.5662
 2578TIP3   OH231928   2.764   0.373  14.277  0.0656 -0.2877 -0.5207
 2578TIP3    H131929   2.757   0.447  14.339  1.9437 -1.8641  1.7293
 2578TIP3    H231930   2.790   0.414  14.195  1.4551  1.5596  0.7439
 2579TIP3   OH231931   2.389   1.535  14.496 -0.0903  0.0541 -0.3182
 2579TIP3    H131932   2.410   1.606  14.435  1.8887 -0.0575  0.1896
 2579TIP3    H231933   2.293   1.527  14.490 -0.4087  2.7550 -0.4035
 2580TIP3   OH231934   6.556   7.500  13.532  0.6028  0.2720 -0.0045
 2580TIP3    H131935   6.471   7.538  13.553 -0.0023 -0.9416 -0.1854
 2580TIP3    H231936   6.585   7.548  13.454 -0.6548 -0.3421 -0.8971
 2581TIP3   OH231937   7.355   7.084  15.227 -0.3798 -0.1290  0.0577
 2581TIP3    H131938   7.372   7.008  15.284 -1.7504 -0.6432 -0.1968
 2581TIP3    H231939   7.354   7.047  15.138 -0.6304  0.2647 -0.1018
 2582TIP3   OH231940   6.147   3.331  15.444  0.5201 -0.1455  0.4954
 2582TIP3    H131941   6.209   3.358  15.376  0.9307  2.2132  1.6955
 2582TIP3    H231942   6.195   3.344  15.526 -0.7214 -0.7281  1.3397
 2583TIP3   OH231943   3.576   4.014  15.653  0.2108  0.1075  0.2717
 2583TIP3    H131944   3.615   3.984  15.735 -2.5195 -0.7518  1.3783
 2583TIP3    H231945   3.554   4.106  15.669  0.7706  0.2824  0.0481
 2584TIP3   OH231946   0.084   1.539  15.189 -0.3003 -0.5046 -0.0191
 2584TIP3    H131947   0.132   1.619  15.169 -0.9974 -0.1701 -0.4117
 2584TIP3    H231948   0.143   1.468  15.164  0.2194 -0.1125  0.0807
 2585TIP3   OH231949   5.266   3.687  14.574  0.0786  0.5461 -0.3499
 2585TIP3    H131950   5.220   3.605  14.553  0.1272 -0.0865  1.7490
 2585TIP3    H231951   5.198   3.753  14.576 -0.7919 -0.2997  2.2666
 2586TIP3   OH231952   7.443   7.923  14.828 -0.2580 -0.1096 -0.2724
 2586TIP3    H131953   7.390   7.874  14.890 -0.5701 -0.8663 -1.1177
 2586TIP3    H231954   7.484   7.992  14.881  1.1032 -1.9309  1.1642
 2587TIP3   OH231955   7.806   1.285  15.208 -0.0162 -0.4568  0.1171
 2587TIP3    H131956   7.834   1.298  15.298 -1.0721  0.0552  0.3842
 2587TIP3    H231957   7.721   1.241  15.215 -0.3151 -0.0151 -0.6088
 2588TIP3   OH231958   3.272   8.428  13.907  0.5342 -0.2110 -0.5938
 2588TIP3    H131959   3.228   8.414  13.992  0.7282 -0.9771 -0.6102
 2588TIP3    H231960   3.244   8.353  13.854  1.2510 -0.2911 -0.8584
 2589TIP3   OH231961   7.330   6.124  15.086  0.7011 -0.3855  0.2478
 2589TIP3    H131962   7.387   6.201  15.091 -0.3742  0.3920  0.9322
 2589TIP3    H231963   7.265   6.138  15.154  0.0189 -1.5277 -0.1490
 2590TIP3   OH231964   6.114   7.052  15.179 -0.4631 -0.0704  0.4108
 2590TIP3    H131965   6.159   7.125  15.223  0.3066 -0.6185  0.5604
 2590TIP3    H231966   6.159   6.974  15.211 -1.4734 -0.6354  0.4754
 2591TIP3   OH231967   5.097   1.260  14.652  0.4658 -0.1316  0.1940
 2591TIP3    H131968   5.110   1.268  14.747  1.4934 -0.0969  0.0582
 2591TIP3    H231969   5.152   1.328  14.615 -0.3144  0.1845 -0.4236
 2592TIP3   OH231970   6.225   1.277  16.161  0.3586  0.4380 -0.1844
 2592TIP3    H131971   6.172   1.356  16.165 -0.7127 -0.3041  2.5939
 2592TIP3    H231972   6.182   1.222  16.097 -3.2729 -0.6890  2.8876
 2593TIP3   OH231973   4.032   6.086  14.035  0.0349  0.8124  0.3311
 2593TIP3    H131974   4.017   6.181  14.032  0.8565  0.9173 -1.1702
 2593TIP3    H231975   3.982   6.051  13.961  2.7194  0.5740 -1.5162
 2594TIP3   OH231976   3.077   2.128  15.571 -0.7407  0.2006  0.1980
 2594TIP3    H131977   3.065   2.078  15.652  2.0969  1.2919  1.4648
 2594TIP3    H231978   3.156   2.179  15.587 -0.4065  0.9436 -3.0842
 2595TIP3   OH231979   1.172   5.469  15.633  0.1807 -0.3810  0.2758
 2595TIP3    H131980   1.172   5.478  15.538 -0.3996 -2.7432 -0.0072
 2595TIP3    H231981   1.264   5.473  15.657  0.3423  0.0948 -0.3943
 2596TIP3   OH231982   2.476   1.316  15.824  0.5804  0.3637 -0.3192
 2596TIP3    H131983   2.483   1.378  15.896  0.2062 -0.3890  0.3828
 2596TIP3    H231984   2.398   1.344  15.775  1.2409  1.2942 -0.8506
 2597TIP3   OH231985   1.246   1.040  16.312 -0.9091  0.3750 -0.8182
 2597TIP3    H131986   1.158   1.003  16.317 -0.6941 -0.2669 -1.5320
 2597TIP3    H231987   1.300   0.969  16.277 -0.2346  0.9687 -1.0177
 2598TIP3   OH231988   5.908   2.689  15.003  0.0744 -0.1360  0.4145
 2598TIP3    H131989   5.847   2.759  14.979 -0.1403 -0.0910  1.0778
 2598TIP3    H231990   5.852   2.620  15.038  0.0692 -1.4462 -1.9315
 2599TIP3   OH231991   0.242   3.451  14.895  0.4066 -0.0375  0.2557
 2599TIP3    H131992   0.330   3.417  14.881  1.3942  1.1128  3.0294
 2599TIP3    H231993   0.255   3.545  14.909 -1.6279  0.6872 -1.9128
 2600TIP3   OH231994   5.061   1.034  14.963  0.0331 -0.1041 -0.5553
 2600TIP3    H131995   5.010   1.044  14.883  0.5350 -1.3025 -1.0447
 2600TIP3    H231996   5.151   1.018  14.933 -0.0441 -2.1578  0.1932
 2601TIP3   OH231997   1.447   3.783  14.620 -0.3641 -0.3419 -0.1902
 2601TIP3    H131998   1.504   3.707  14.608  0.2635  0.1775 -0.5735
 2601TIP3    H231999   1.364   3.757  14.580  0.0932 -0.5497 -1.0424
 2602TIP3   OH232000   1.252   4.632  14.834  0.0325  0.4920 -0.2909
 2602TIP3    H132001   1.256   4.629  14.930  0.3804  0.0191 -0.3216
 2602TIP3    H232002   1.251   4.541  14.807  2.4051  0.5631 -0.8426
 2603TIP3   OH232003   4.906   8.022  15.278  0.1419  0.8226  0.5656
 2603TIP3    H132004   4.870   8.084  15.342 -0.3696  1.2598 -0.1224
 2603TIP3    H232005   4.829   7.985  15.236  0.4669  0.2196  0.4988
 2604TIP3   OH232006   3.464   3.341  15.278  0.6463 -0.4948  0.4991
 2604TIP3    H132007   3.416   3.400  15.220  0.2451 -1.8784 -0.6199
 2604TIP3    H232008   3.418   3.258  15.272  1.6790 -1.1663  1.4027
 2605TIP3   OH232009   4.041   7.569  14.943  0.1917 -0.0601 -0.2254
 2605TIP3    H132010   4.135   7.560  14.927  0.3627  0.4059  0.4312
 2605TIP3    H232011   4.026   7.664  14.944  0.2169 -0.0209  2.2612
 2606TIP3   OH232012   5.803   8.001  13.988 -0.2955  0.2086 -0.3256
 2606TIP3    H132013   5.774   7.960  14.070 -1.7280  0.4298 -0.6813
 2606TIP3    H232014   5.721   8.020  13.942  0.4745  0.5679 -1.5738
 2607TIP3   OH232015   2.135   0.521  14.507  0.0266  0.2223  0.4903
 2607TIP3    H132016   2.041   0.503  14.512 -0.1475  0.5963 -0.9176
 2607TIP3    H232017   2.164   0.473  14.429  0.8756  0.6648  0.5206
 2608TIP3   OH232018   5.116   7.186  15.294 -0.0551  0.0576 -0.2239
 2608TIP3    H132019   5.186   7.140  15.339  2.1315  1.7691 -1.6916
 2608TIP3    H232020   5.102   7.265  15.347 -3.1322 -1.5783  1.7515
 2609TIP3   OH232021   0.660   1.879  15.441 -0.4745  0.0803 -0.0879
 2609TIP3    H132022   0.729   1.819  15.412 -0.2967  0.4960 -0.5401
 2609TIP3    H232023   0.635   1.847  15.527  1.4597  0.8957  0.8534
 2610TIP3   OH232024   7.725   6.256  15.810 -0.6644 -0.7342 -0.0970
 2610TIP3    H132025   7.754   6.173  15.772 -0.2720 -0.4389 -0.4480
 2610TIP3    H232026   7.653   6.231  15.869  0.4400 -1.5011  0.9781
 2611TIP3   OH232027   5.830   3.643  14.427 -0.4783  0.3396  0.0676
 2611TIP3    H132028   5.801   3.729  14.458 -1.2142 -0.1846  0.8641
 2611TIP3    H232029   5.752   3.588  14.432 -0.2910 -0.1234 -1.4609
 2612TIP3   OH232030   4.957   0.337  14.052  0.0046 -0.2855 -0.3202
 2612TIP3    H132031   4.992   0.264  14.102 -0.5229  0.0591  0.5620
 2612TIP3    H232032   4.934   0.403  14.117 -2.8287 -0.7053 -0.7577
 2613TIP3   OH232033   6.094   7.487  13.829  0.2398  0.3641 -0.3477
 2613TIP3    H132034   6.092   7.398  13.865 -2.5811 -0.4974 -2.2581
 2613TIP3    H232035   6.003   7.506  13.809  1.0129  2.9182 -1.8514
 2614TIP3   OH232036   6.132   5.271  14.911 -0.0853 -0.4772 -0.2662
 2614TIP3    H132037   6.151   5.341  14.848  1.3784 -0.1069  0.5321
 2614TIP3    H232038   6.040   5.284  14.935 -0.2553  0.2342 -1.2618
 2615TIP3   OH232039   7.483   2.969  15.204  0.3546 -0.4117 -0.2397
 2615TIP3    H132040   7.550   2.971  15.136 -0.5760  0.6752 -1.1488
 2615TIP3    H232041   7.486   3.056  15.244 -1.5975  0.2495 -1.4100
 2616TIP3   OH232042   4.676   2.240  14.779  0.1755  0.1544  0.5341
 2616TIP3    H132043   4.597   2.224  14.830  0.4959 -1.0493  0.6660
 2616TIP3    H232044   4.653   2.214  14.690  0.9141 -1.8321  0.8806
 2617TIP3   OH232045   2.032   6.116  15.385 -0.3745 -0.1600 -0.0446
 2617TIP3    H132046   2.063   6.087  15.470 -2.1581 -0.9871  0.3597
 2617TIP3    H232047   1.940   6.138  15.398 -0.5233  0.3226 -1.6228
 2618TIP3   OH232048   5.270   1.867  16.199 -0.0554  0.0681  0.4554
 2618TIP3    H132049   5.261   1.962  16.204  0.5982  0.1802 -0.2679
 2618TIP3    H232050   5.365   1.852  16.203 -0.1762 -0.5789  0.9402
 2619TIP3   OH232051   6.517   0.092  15.324 -0.7537  0.9086  0.2929
 2619TIP3    H132052   6.480   0.151  15.390 -4.6322 -0.8574 -0.0200
 2619TIP3    H232053   6.461   0.014  15.327  3.1176 -2.2327 -0.3731
 2620TIP3   OH232054   3.492   8.113  15.401  0.3551  0.6799 -0.0227
 2620TIP3    H132055   3.584   8.086  15.402 -0.1026 -0.9638 -0.4116
 2620TIP3    H232056   3.463   8.103  15.492  0.8737  2.5124  0.4026
 2621TIP3   OH232057   6.038   7.589  15.164  0.4353 -0.1608 -0.1683
 2621TIP3    H132058   5.986   7.665  15.190 -0.7623 -1.3405  1.0961
 2621TIP3    H232059   6.110   7.625  15.113 -2.0690  1.4961 -2.7894
 2622TIP3   OH232060   7.593   3.902  16.003 -0.0718  0.2196 -0.2120
 2622TIP3    H132061   7.516   3.851  16.028 -1.7440  2.7405  0.1795
 2622TIP3    H232062   7.651   3.839  15.961 -1.7390 -2.0662  0.7092
 2623TIP3   OH232063   2.570   3.628  15.501 -0.2378  0.5074  0.1229
 2623TIP3    H132064   2.521   3.593  15.427  1.2557 -1.2210 -0.1074
 2623TIP3    H232065   2.644   3.673  15.462  1.8850 -2.4152  0.4834
 2624TIP3   OH232066   3.342   2.674  14.521 -0.4958 -0.1478 -0.1887
 2624TIP3    H132067   3.378   2.605  14.465 -0.2064 -1.7677  1.8943
 2624TIP3    H232068   3.418   2.717  14.559 -0.6872 -0.3109  0.3932
 2625TIP3   OH232069   4.613   1.899  14.616 -0.2821 -0.1378  0.3451
 2625TIP3    H132070   4.673   1.824  14.624 -0.6693 -0.4227  0.5968
 2625TIP3    H232071   4.558   1.894  14.694 -0.1152  0.5888  0.5138
 2626TIP3   OH232072   7.102   2.225  15.227 -0.1545 -0.1740  0.2413
 2626TIP3    H132073   7.162   2.226  15.301  0.8221  0.0808 -0.5431
 2626TIP3    H232074   7.156   2.203  15.152 -0.8724  0.8858 -0.6143
 2627TIP3   OH232075   4.012   0.925  14.651 -0.3299  0.0733 -0.6412
 2627TIP3    H132076   4.053   0.850  14.607  1.5862 -0.6309  2.0246
 2627TIP3    H232077   4.082   0.991  14.656 -1.4853  1.4151 -1.4471
 2628TIP3   OH232078   1.024   2.979  15.404  0.0247  0.0783  0.3382
 2628TIP3    H132079   0.991   2.963  15.492 -0.0468 -1.6191  0.0387
 2628TIP3    H232080   1.062   3.067  15.407  0.9349 -0.3402  2.3257
 2629TIP3   OH232081   2.030   0.481  15.874  0.0241 -0.4137 -0.7237
 2629TIP3    H132082   2.067   0.562  15.908 -1.7941  0.1140  0.1729
 2629TIP3    H232083   2.007   0.501  15.783 -1.4156  0.5065 -0.2034
 2630TIP3   OH232084   3.636   7.898  14.837  0.1397  0.0236  0.5396
 2630TIP3    H132085   3.638   7.951  14.757  2.3844  0.5432  0.8664
 2630TIP3    H232086   3.605   7.812  14.808 -0.7300  0.6807 -0.5562
 2631TIP3   OH232087   0.171   8.061  15.535  0.1786 -0.2701 -0.4082
 2631TIP3    H132088   0.170   8.156  15.526 -1.9325 -0.1802  0.1498
 2631TIP3    H232089   0.167   8.029  15.445 -1.3400  0.2426 -0.5476
 2632TIP3   OH232090   2.509   2.932  14.427  0.5075 -0.0503 -0.0724
 2632TIP3    H132091   2.482   2.937  14.335  1.2257 -1.2379 -0.3767
 2632TIP3    H232092   2.508   2.839  14.447 -1.6573  0.2840  1.7947
 2633TIP3   OH232093   3.943   7.136  14.720 -0.2943  0.1012  0.0636
 2633TIP3    H132094   3.912   7.215  14.764  0.7336 -0.8440  2.6553
 2633TIP3    H232095   3.873   7.072  14.733 -0.6455  0.2218 -1.0776
 2634TIP3   OH232096   0.658   2.222  14.236 -0.0028 -0.2113 -0.4273
 2634TIP3    H132097   0.643   2.306  14.193 -0.3711 -0.5701 -1.0159
 2634TIP3    H232098   0.654   2.158  14.166 -0.7382 -0.8226  0.1515
 2635TIP3   OH232099   1.714   3.237  14.422 -0.3141  0.0582  0.2602
 2635TIP3    H132100   1.682   3.226  14.333  0.2937  0.8368 -0.0635
 2635TIP3    H232101   1.805   3.209  14.419  0.3451  2.0807  0.1258
 2636TIP3   OH232102   2.415   4.972  14.423 -0.1852  0.5074 -0.2421
 2636TIP3    H132103   2.410   5.008  14.334  0.7347 -0.5554 -0.7432
 2636TIP3    H232104   2.339   5.008  14.468 -0.6087  1.1365 -1.4344
 2637TIP3   OH232105   0.574   2.396  14.932  0.0260 -0.1555  0.6061
 2637TIP3    H132106   0.509   2.389  14.862 -0.7038 -0.2931  1.2864
 2637TIP3    H232107   0.527   2.434  15.006  1.3616  2.3236  0.3144
 2638TIP3   OH232108   5.600   6.409  15.515 -0.1016 -0.2094  0.5223
 2638TIP3    H132109   5.640   6.343  15.572 -1.9095 -1.0947  0.8552
 2638TIP3    H232110   5.650   6.405  15.434 -0.1229 -1.9659  0.5580
 2639TIP3   OH232111   5.438   6.711  15.946  0.4011  0.2014 -0.1231
 2639TIP3    H132112   5.502   6.689  15.878  1.1551  2.1009 -0.0659
 2639TIP3    H232113   5.433   6.632  16.000  2.4494 -0.0949 -0.3088
 2640TIP3   OH232114   5.183   7.388  15.800  0.4464  0.0829  0.2443
 2640TIP3    H132115   5.205   7.452  15.868 -0.6649  2.2325 -1.3113
 2640TIP3    H232116   5.099   7.352  15.828  0.0682  0.8418  0.1055
 2641TIP3   OH232117   3.153   5.651  15.380  0.6798 -0.1821 -0.0473
 2641TIP3    H132118   3.216   5.621  15.314 -0.6734 -1.2397 -0.9227
 2641TIP3    H232119   3.096   5.576  15.394  0.3082  0.3708  1.5984
 2642TIP3   OH232120   2.883   4.171  14.642  0.3251 -0.6632 -0.4834
 2642TIP3    H132121   2.931   4.181  14.559  1.0718  0.5201  0.0693
 2642TIP3    H232122   2.893   4.256  14.685 -0.7827 -0.9940  0.4439
 2643TIP3   OH232123   3.556   0.973  15.218 -0.6430 -0.1324  0.2528
 2643TIP3    H132124   3.470   1.002  15.186  0.1614  0.2044 -1.7331
 2643TIP3    H232125   3.566   1.018  15.302 -1.7379  1.0841 -0.2325
 2644TIP3   OH232126   0.456   1.502  15.907  0.3355  0.3361  0.4743
 2644TIP3    H132127   0.526   1.467  15.962  0.2409 -0.8413 -0.0994
 2644TIP3    H232128   0.448   1.594  15.932  2.2858  0.5734  0.3449
 2645TIP3   OH232129   8.197   7.078  14.773  0.1920 -1.0125  0.0263
 2645TIP3    H132130   8.291   7.065  14.784  0.0239 -2.1881  0.2367
 2645TIP3    H232131   8.159   6.991  14.785 -0.8980 -0.6129 -0.3672
 2646TIP3   OH232132   0.880   2.743  14.948 -0.2458 -0.2672 -0.0219
 2646TIP3    H132133   0.885   2.779  14.860 -0.0156  0.5788  0.3276
 2646TIP3    H232134   0.894   2.818  15.006 -1.9790 -0.4880  0.7685
 2647TIP3   OH232135   3.666   3.800  14.704  0.1298 -0.1296 -0.0143
 2647TIP3    H132136   3.599   3.804  14.773  1.1463 -0.6518  1.0357
 2647TIP3    H232137   3.686   3.707  14.694  0.8669  0.0354 -0.1453
 2648TIP3   OH232138   4.422   7.898  15.657 -0.0157  0.1508 -0.3325
 2648TIP3    H132139   4.442   7.937  15.571 -0.1165  1.3700  0.1684
 2648TIP3    H232140   4.342   7.848  15.643  0.2830 -0.1328 -1.0775
 2649TIP3   OH232141   4.089   2.424  13.904 -0.2679  0.1802 -0.0423
 2649TIP3    H132142   4.129   2.374  13.833 -1.2468 -0.0977 -0.4179
 2649TIP3    H232143   4.012   2.465  13.863 -0.1183  1.0655  0.5437
 2650TIP3   OH232144   8.436   6.977  14.835  0.4112  0.1170  0.1993
 2650TIP3    H132145   8.509   6.941  14.886 -0.2653 -1.4590  0.1143
 2650TIP3    H232146   8.359   6.966  14.892  0.5389  4.3846  1.5053
 2651TIP3   OH232147   7.937   7.466  14.108 -0.2613 -0.2956 -0.0931
 2651TIP3    H132148   7.867   7.459  14.044 -0.6473 -0.5198  0.3489
 2651TIP3    H232149   8.009   7.416  14.070 -0.8666 -1.3948  0.1580
 2652TIP3   OH232150   2.097   7.752  14.688 -0.0110  0.3340  0.1419
 2652TIP3    H132151   2.036   7.824  14.672 -0.6920 -0.3869 -0.5899
 2652TIP3    H232152   2.172   7.772  14.633  0.2799  1.0316  0.7654
 2653TIP3   OH232153   3.986   5.615  15.159  0.4776  0.5576 -0.0181
 2653TIP3    H132154   3.953   5.589  15.073 -0.1949 -0.0579  0.4084
 2653TIP3    H232155   3.922   5.678  15.191 -0.2008 -0.4593  0.7120
 2654TIP3   OH232156   1.779   6.941  15.853  0.3631  0.1156 -0.0780
 2654TIP3    H132157   1.752   6.929  15.763 -1.4856 -2.1038  0.6828
 2654TIP3    H232158   1.706   6.987  15.895  1.2173  1.1687  0.3043
 2655TIP3   OH232159   7.160   4.431  14.159 -0.5432  0.2242 -0.1075
 2655TIP3    H132160   7.174   4.431  14.064 -0.2888  0.6444 -0.0764
 2655TIP3    H232161   7.131   4.521  14.178 -3.1311 -0.5314 -0.1306
 2656TIP3   OH232162   6.390   2.302  15.116  0.8127  0.2181  0.4395
 2656TIP3    H132163   6.426   2.373  15.063  0.5948  0.3383  0.4499
 2656TIP3    H232164   6.444   2.300  15.194  0.3810  0.8445  0.7649
 2657TIP3   OH232165   0.374   6.029  14.507 -0.3516 -0.4232  0.1521
 2657TIP3    H132166   0.291   6.035  14.460 -1.0617 -1.5759  1.2118
 2657TIP3    H232167   0.431   5.978  14.450  0.2510  1.7779 -1.3556
 2658TIP3   OH232168   0.137   2.745  14.612 -0.1504  0.0991 -0.0482
 2658TIP3    H132169   0.167   2.765  14.701  0.2865  1.7606 -0.5240
 2658TIP3    H232170   0.162   2.822  14.561 -0.2681 -0.8792 -1.6499
 2659TIP3   OH232171   1.174   2.486  15.958  0.9757 -0.3490  0.0573
 2659TIP3    H132172   1.101   2.489  16.020  0.7649  0.1157 -0.2064
 2659TIP3    H232173   1.136   2.514  15.875  1.3025 -0.7816 -0.2420
 2660TIP3   OH232174   0.086   0.337  15.885  0.5675  0.0557 -0.6850
 2660TIP3    H132175   0.022   0.401  15.854  0.7205  0.0589 -0.9950
 2660TIP3    H232176   0.088   0.270  15.817 -0.5644 -0.9795  0.2266
 2661TIP3   OH232177   0.873   6.865  14.662 -0.4168 -0.3785 -0.5711
 2661TIP3    H132178   0.816   6.908  14.597 -0.1790  0.4439 -0.2424
 2661TIP3    H232179   0.909   6.937  14.713 -1.3539 -1.0603  1.1193
 2662TIP3   OH232180   4.251   6.052  14.711 -0.0580  0.0767  0.2796
 2662TIP3    H132181   4.302   6.025  14.635  0.9772 -2.7863  1.8019
 2662TIP3    H232182   4.308   6.112  14.758 -1.6366  3.8846 -2.2095
 2663TIP3   OH232183   7.048   4.446  15.358 -0.2626  0.1272  0.2091
 2663TIP3    H132184   7.058   4.364  15.406  0.3953 -0.6038 -1.1151
 2663TIP3    H232185   6.954   4.458  15.349 -0.3691 -1.2258 -0.7623
 2664TIP3   OH232186   0.139   0.374  14.775  0.0938  0.1528  0.4770
 2664TIP3    H132187   0.110   0.285  14.798 -1.7858  0.5636 -0.1567
 2664TIP3    H232188   0.090   0.431  14.833 -0.1747  0.8726 -0.4324
 2665TIP3   OH232189   2.256   0.096  14.585  0.3104  0.4117  0.5653
 2665TIP3    H132190   2.291   0.044  14.513 -1.4496 -2.0446  1.3362
 2665TIP3    H232191   2.308   0.069  14.661  0.0816  0.5731  0.7803
 2666TIP3   OH232192   2.010   3.309  15.791  0.0406  0.3874 -0.3594
 2666TIP3    H132193   2.069   3.345  15.858  2.0358  1.7066 -2.6560
 2666TIP3    H232194   1.993   3.219  15.820  1.1047  0.7775  1.6986
 2667TIP3   OH232195   1.438   8.133  15.678  0.7079 -0.3230 -0.3974
 2667TIP3    H132196   1.357   8.103  15.719  0.3822  0.8776 -0.1239
 2667TIP3    H232197   1.421   8.125  15.584 -0.0531  0.7204 -0.3585
 2668TIP3   OH232198   2.898   7.564  15.708  0.5502  0.1232 -0.1485
 2668TIP3    H132199   2.872   7.576  15.617  0.1667  0.6832  0.0243
 2668TIP3    H232200   2.976   7.509  15.705 -1.1287 -2.3579 -0.6419
 2669TIP3   OH232201   7.312   8.408  15.249 -0.6127 -0.2353 -0.5345
 2669TIP3    H132202   7.278   8.323  15.222 -0.8061 -0.4705  0.3979
 2669TIP3    H232203   7.344   8.449  15.169  0.7430 -1.7430 -0.8141
 2670TIP3   OH232204   8.356   0.588  15.737 -0.3415  0.6593 -0.1263
 2670TIP3    H132205   8.378   0.667  15.688 -1.7469  1.5275  0.5643
 2670TIP3    H232206   8.267   0.605  15.770 -0.5851 -1.1179  0.2230
 2671TIP3   OH232207   2.987   0.528  15.205  0.1462 -0.1906  0.2277
 2671TIP3    H132208   2.999   0.623  15.194  1.9310 -0.6182 -3.0749
 2671TIP3    H232209   2.903   0.509  15.163 -0.4502 -0.0729  1.3242
 2672TIP3   OH232210   3.918   4.354  15.593  0.5892 -0.7075  0.2972
 2672TIP3    H132211   3.942   4.402  15.673 -0.9671  2.3776 -0.9064
 2672TIP3    H232212   3.941   4.413  15.522  1.7888 -3.3073 -1.6314
 2673TIP3   OH232213   7.252   4.952  15.882 -0.5030  0.2234  0.4799
 2673TIP3    H132214   7.251   5.042  15.915  0.3894  0.4361 -0.0492
 2673TIP3    H232215   7.237   4.961  15.788 -0.9751 -0.2280  0.5076
 2674TIP3   OH232216   7.918   8.090  14.264 -0.5497  1.0313  0.4048
 2674TIP3    H132217   7.926   8.089  14.169 -1.3194 -0.9987  0.3180
 2674TIP3    H232218   7.911   8.183  14.286  1.6491  1.6928 -1.3068
 2675TIP3   OH232219   4.376   2.575  13.856 -0.2423 -0.1947 -0.1194
 2675TIP3    H132220   4.309   2.507  13.862 -0.4204 -0.0349 -0.2573
 2675TIP3    H232221   4.458   2.530  13.871 -0.4068 -0.3488  0.3094
 2676TIP3   OH232222   3.134   6.283  14.281 -0.1846 -0.1788  0.3414
 2676TIP3    H132223   3.120   6.376  14.264  0.1490 -0.4288 -1.5016
 2676TIP3    H232224   3.066   6.238  14.232 -0.0610 -0.9353  0.8356
 2677TIP3   OH232225   7.984   5.660  15.883  0.1829  0.6979  0.4993
 2677TIP3    H132226   8.046   5.588  15.877  1.2859  1.3473  2.7892
 2677TIP3    H232227   7.900   5.618  15.900 -0.0708 -0.1763 -2.4363
 2678TIP3   OH232228   3.982   5.345  14.716 -0.2737  0.2604 -0.2743
 2678TIP3    H132229   4.042   5.406  14.674  0.4099 -0.9737 -1.1367
 2678TIP3    H232230   3.908   5.337  14.656  0.4471 -1.0764 -1.0229
 2679TIP3   OH232231   0.683   3.557  14.704 -0.3128 -0.3903  0.3568
 2679TIP3    H132232   0.753   3.501  14.736  0.2418 -0.3829 -0.7783
 2679TIP3    H232233   0.711   3.645  14.727  1.1670 -0.1717 -1.9369
 2680TIP3   OH232234   8.366   1.954  15.458 -0.0818  0.1750 -0.1904
 2680TIP3    H132235   8.332   1.933  15.372 -0.7431  1.4669 -0.2701
 2680TIP3    H232236   8.390   2.047  15.452 -1.0549  0.5570  1.2746
 2681TIP3   OH232237   2.581   2.531  14.620 -0.5987  0.4037 -0.0461
 2681TIP3    H132238   2.561   2.556  14.530 -0.3973 -0.8970 -0.4686
 2681TIP3    H232239   2.540   2.445  14.632 -0.4571  0.4666  1.0415
 2682TIP3   OH232240   1.254   0.520  15.448 -0.2760 -0.5500  0.0588
 2682TIP3    H132241   1.264   0.431  15.414 -1.5551 -1.4136  1.7272
 2682TIP3    H232242   1.337   0.538  15.491 -0.3034 -1.3236  0.4698
 2683TIP3   OH232243   3.267   2.644  15.881  0.6036 -0.1767  0.4970
 2683TIP3    H132244   3.172   2.637  15.874  0.5244  2.1429 -2.5680
 2683TIP3    H232245   3.283   2.734  15.908  1.9315 -0.0065 -0.7476
 2684TIP3   OH232246   0.906   7.956  15.292  0.1294 -0.1799 -0.0625
 2684TIP3    H132247   0.916   7.918  15.379 -0.1558  0.0148  0.0576
 2684TIP3    H232248   0.818   7.930  15.265  0.4884 -0.8721 -0.6068
 2685TIP3   OH232249   6.478   1.844  15.398  0.0836 -0.0206  0.4506
 2685TIP3    H132250   6.519   1.911  15.343  0.6046  0.2566  1.1715
 2685TIP3    H232251   6.551   1.801  15.442 -0.4081  0.7701  2.0911
 2686TIP3   OH232252   2.604   7.388  15.419  0.0197 -0.5279  0.2139
 2686TIP3    H132253   2.554   7.470  15.420  1.3466  0.3378 -0.8719
 2686TIP3    H232254   2.596   7.355  15.509 -1.1482  0.3917  0.4860
 2687TIP3   OH232255   0.639   4.368  14.721  0.3868  0.4455 -0.3209
 2687TIP3    H132256   0.641   4.427  14.796  1.7853 -0.1292  0.1237
 2687TIP3    H232257   0.614   4.424  14.647 -1.8067  0.8732  0.6450
 2688TIP3   OH232258   5.169   8.184  14.678  0.2884 -0.2192 -0.3525
 2688TIP3    H132259   5.102   8.117  14.697 -0.1599  0.4046  0.3045
 2688TIP3    H232260   5.137   8.228  14.599  0.9053 -1.1806 -1.1667
 2689TIP3   OH232261   4.297   7.254  15.118 -0.1532 -0.4148 -0.1986
 2689TIP3    H132262   4.358   7.206  15.063  0.4995 -0.1206  0.2497
 2689TIP3    H232263   4.227   7.192  15.137 -0.7548 -0.3193 -1.9011
 2690TIP3   OH232264   7.296   0.229  15.359  0.1830  0.2459  0.4868
 2690TIP3    H132265   7.322   0.142  15.326 -0.5900  0.2380 -0.1200
 2690TIP3    H232266   7.372   0.284  15.341  0.2219 -0.0294 -0.2636
 2691TIP3   OH232267   6.171   7.777  14.676  0.5777 -0.2712 -0.5726
 2691TIP3    H132268   6.172   7.740  14.588 -0.2469  0.3689 -0.8638
 2691TIP3    H232269   6.078   7.793  14.695  0.7110 -0.7161  0.5529
 2692TIP3   OH232270   4.397   5.615  14.401  0.0283 -0.1437 -0.0908
 2692TIP3    H132271   4.417   5.607  14.308  0.2514 -1.0835  0.0254
 2692TIP3    H232272   4.316   5.665  14.404  0.3192  0.3899 -0.7564
 2693TIP3   OH232273   7.708   7.912  14.322  0.3658  0.3583 -0.1822
 2693TIP3    H132274   7.760   7.990  14.342 -0.4558  1.0210 -0.5342
 2693TIP3    H232275   7.718   7.900  14.228  0.5052  0.0193 -0.1265
 2694TIP3   OH232276   0.724   4.490  16.060 -0.0997  0.3809  0.0329
 2694TIP3    H132277   0.695   4.535  16.139 -0.0285 -0.2611  0.4271
 2694TIP3    H232278   0.741   4.400  16.088 -1.1489 -0.1524 -0.9219
 2695TIP3   OH232279   3.298   4.463  15.405 -0.4678 -0.1630  0.6271
 2695TIP3    H132280   3.391   4.444  15.420  0.0188  0.9874 -0.6987
 2695TIP3    H232281   3.280   4.538  15.462 -0.2913  0.2868  0.0935
 2696TIP3   OH232282   3.426   6.647  15.359 -0.1594 -1.2456  0.4036
 2696TIP3    H132283   3.497   6.603  15.407 -1.1456 -1.9935  1.2071
 2696TIP3    H232284   3.369   6.682  15.426  0.4548  1.1213 -0.2279
 2697TIP3   OH232285   7.813   2.387  15.792  0.0734 -0.1528 -0.0579
 2697TIP3    H132286   7.824   2.481  15.806  0.7327 -0.1962 -0.2587
 2697TIP3    H232287   7.849   2.372  15.704  0.1539 -0.6251  0.0564
 2698TIP3   OH232288   4.366   7.386  15.345 -0.0777  0.7160  0.5519
 2698TIP3    H132289   4.322   7.466  15.372  0.2351  0.8212  0.7490
 2698TIP3    H232290   4.317   7.356  15.268 -0.6937  0.6572  0.9632
 2699TIP3   OH232291   3.805   4.736  14.644 -0.2983 -0.3310 -0.4864
 2699TIP3    H132292   3.810   4.645  14.615  0.2537 -0.2725 -0.5879
 2699TIP3    H232293   3.896   4.760  14.662 -0.5801 -0.2881  1.0529
 2700TIP3   OH232294   5.659   2.976  15.949  0.2784  0.0825  0.2651
 2700TIP3    H132295   5.748   3.001  15.924 -0.3859  1.8323 -0.5189
 2700TIP3    H232296   5.665   2.883  15.971  2.2515  0.1232  0.0462
 2701TIP3   OH232297   2.582   0.170  15.514  0.1771  1.1095 -0.3597
 2701TIP3    H132298   2.597   0.262  15.536 -2.2354  1.5026 -0.1512
 2701TIP3    H232299   2.511   0.142  15.571  1.4597 -1.1991  0.2493
 2702TIP3   OH232300   7.804   7.864  16.037  0.0250  0.4715  0.1438
 2702TIP3    H132301   7.714   7.874  16.006 -0.1236 -0.4772  0.2447
 2702TIP3    H232302   7.853   7.933  15.992 -0.6035  0.5001 -0.5140
 2703TIP3   OH232303   3.448   2.716  13.871  0.1064 -0.5413  0.3380
 2703TIP3    H132304   3.509   2.784  13.842 -1.4990  0.2839 -1.3095
 2703TIP3    H232305   3.483   2.686  13.955  3.6731 -1.3156 -1.2406
 2704TIP3   OH232306   2.390   6.335  14.546  0.2316  0.2519 -0.1108
 2704TIP3    H132307   2.440   6.407  14.506  2.0908 -1.8735 -1.8601
 2704TIP3    H232308   2.318   6.319  14.485  0.9013 -0.5417 -0.7153
 2705TIP3   OH232309   2.812   1.174  14.794  0.3647 -0.3403  0.1908
 2705TIP3    H132310   2.731   1.149  14.838 -0.3043  1.4782  0.0867
 2705TIP3    H232311   2.820   1.269  14.810  1.6898 -0.2037 -1.0411
 2706TIP3   OH232312   6.356   6.830  15.732 -0.6371 -0.6545  0.1055
 2706TIP3    H132313   6.339   6.887  15.657  0.3357 -0.8259 -0.2531
 2706TIP3    H232314   6.419   6.879  15.785  0.3732 -1.4719 -0.3143
 2707TIP3   OH232315   4.697   0.731  14.831  0.4411  0.2924 -0.0518
 2707TIP3    H132316   4.659   0.656  14.785 -0.7485 -0.5535  2.1457
 2707TIP3    H232317   4.787   0.736  14.799 -0.4754  0.2663 -2.9569
 2708TIP3   OH232318   6.928   5.795  14.925  0.6548 -0.1561 -0.3408
 2708TIP3    H132319   6.833   5.785  14.935  0.2851  1.7399 -1.3956
 2708TIP3    H232320   6.950   5.741  14.850  0.0415  0.8709 -1.2895
 2709TIP3   OH232321   0.026   0.330  16.153  0.4071 -0.2567 -0.1238
 2709TIP3    H132322   0.043   0.327  16.059 -0.7091  1.0182 -0.4118
 2709TIP3    H232323   0.084   0.399  16.186  0.2059 -0.1229 -0.0414
 2710TIP3   OH232324   2.460   5.072  14.159  0.3611  0.3475 -0.8400
 2710TIP3    H132325   2.529   5.135  14.139 -0.7445  1.4921 -1.2124
 2710TIP3    H232326   2.383   5.104  14.111 -0.1131 -1.5973 -1.4721
 2711TIP3   OH232327   4.904   6.820  14.452  0.2911 -0.6387 -0.3529
 2711TIP3    H132328   4.823   6.849  14.410  0.3627  1.3566  0.7573
 2711TIP3    H232329   4.878   6.799  14.541  0.4937 -2.9409 -0.7801
 2712TIP3   OH232330   6.855   6.203  14.793  0.4848 -0.1184 -0.0688
 2712TIP3    H132331   6.761   6.214  14.811 -0.1271 -1.8186 -1.7960
 2712TIP3    H232332   6.893   6.183  14.878 -1.2245 -2.0372  0.3473
 2713TIP3   OH232333   0.794   4.579  16.342 -0.5139  0.4038 -0.9194
 2713TIP3    H132334   0.842   4.510  16.387 -1.1753  0.7079  0.2859
 2713TIP3    H232335   0.861   4.640  16.313 -0.0543  0.0539 -0.6085
 2714TIP3   OH232336   7.956   2.857  15.480  0.6537 -0.3427 -0.0959
 2714TIP3    H132337   7.968   2.930  15.419  1.8712 -0.6601 -0.2539
 2714TIP3    H232338   7.907   2.895  15.553 -1.1538 -0.0322 -1.3960
 2715TIP3   OH232339   7.624   5.928  15.901 -0.2958  0.2763 -0.0585
 2715TIP3    H132340   7.629   5.946  15.807 -2.2545 -2.0038 -0.7003
 2715TIP3    H232341   7.701   5.873  15.919 -0.0862  0.4602 -0.3765
 2716TIP3   OH232342   7.468   2.075  14.220  0.6776 -0.2674  0.0676
 2716TIP3    H132343   7.390   2.112  14.262  0.3940  0.2293 -0.8707
 2716TIP3    H232344   7.529   2.147  14.214  0.8266 -0.4089 -0.1117
 2717TIP3   OH232345   6.642   8.173  15.490  0.2324  0.3475 -0.1091
 2717TIP3    H132346   6.714   8.235  15.499  0.8702 -0.2235 -1.1492
 2717TIP3    H232347   6.629   8.165  15.396  0.3069 -1.2673  0.0011
 2718TIP3   OH232348   7.949   2.435  14.992  0.5054  0.1500 -0.2386
 2718TIP3    H132349   8.028   2.398  15.032  0.3443 -0.0877 -0.1374
 2718TIP3    H232350   7.974   2.523  14.966  0.6806  0.2230  0.1765
 2719TIP3   OH232351   6.005   4.661  15.445 -0.1553  0.0631 -0.6249
 2719TIP3    H132352   6.088   4.622  15.420  0.0689 -0.0709  0.2825
 2719TIP3    H232353   6.012   4.674  15.540 -0.6836  1.1982 -0.7186
 2720TIP3   OH232354   1.208   3.664  14.548 -0.3514  0.5531  0.6916
 2720TIP3    H132355   1.193   3.593  14.486 -1.8590 -0.9512  2.6358
 2720TIP3    H232356   1.126   3.714  14.547  1.3692  3.7925 -2.2421
 2721TIP3   OH232357   7.050   2.973  14.181  0.5657 -0.1258 -0.3295
 2721TIP3    H132358   7.050   2.901  14.244  0.4649  0.7528  0.7091
 2721TIP3    H232359   6.970   2.960  14.130 -0.0669 -0.1155  0.6256
 2722TIP3   OH232360   6.527   2.768  16.015  0.2460  0.2297 -0.2458
 2722TIP3    H132361   6.490   2.683  16.038  1.6349 -0.0501  1.1508
 2722TIP3    H232362   6.458   2.831  16.038 -0.2505 -0.4245  0.0858
 2723TIP3   OH232363   4.836   1.734  14.644 -0.3277  0.7172 -0.3081
 2723TIP3    H132364   4.875   1.649  14.665 -1.5679  0.2635  0.2520
 2723TIP3    H232365   4.855   1.789  14.720  2.3484  1.6841 -1.5300
 2724TIP3   OH232366   3.989   3.393  14.080  0.4259  0.3858 -0.1393
 2724TIP3    H132367   4.079   3.378  14.051  0.1369  2.3328 -2.2741
 2724TIP3    H232368   3.935   3.363  14.007 -0.5357  1.6992  0.0123
 2725TIP3   OH232369   3.911   1.517  15.838  0.5600 -0.6975 -0.3285
 2725TIP3    H132370   3.820   1.494  15.857  0.8764 -2.5297 -0.8019
 2725TIP3    H232371   3.962   1.450  15.884  1.8052  1.4517  1.6510
 2726TIP3   OH232372   8.119   4.874  16.341  0.5832  0.0722  0.1272
 2726TIP3    H132373   8.143   4.889  16.250 -0.2120  2.5134  0.2469
 2726TIP3    H232374   8.073   4.790  16.341 -0.3510  0.5498 -1.9076
 2727TIP3   OH232375   6.405   4.270  15.877 -0.0555  0.1654  0.0357
 2727TIP3    H132376   6.404   4.180  15.910  0.8800 -0.5167 -1.6324
 2727TIP3    H232377   6.343   4.269  15.804 -0.7270  1.1323  0.5768
 2728TIP3   OH232378   7.560   8.288  15.758  0.0600 -0.6348  0.2088
 2728TIP3    H132379   7.630   8.272  15.821  1.7568 -0.2069 -1.4603
 2728TIP3    H232380   7.573   8.379  15.730 -1.6605 -0.2908  0.4032
 2729TIP3   OH232381   2.392   6.156  15.997 -0.3979  0.1878  0.6911
 2729TIP3    H132382   2.404   6.146  16.091 -1.1077 -0.5881  0.7084
 2729TIP3    H232383   2.467   6.210  15.969  1.4477 -1.9454  1.2412
 2730TIP3   OH232384   1.887   4.267  14.657  0.5811 -0.4925  0.1155
 2730TIP3    H132385   1.906   4.252  14.750 -0.9434 -0.0265  0.5283
 2730TIP3    H232386   1.819   4.203  14.636 -0.9090  1.0376  0.0291
 2731TIP3   OH232387   7.930   6.287  15.435  0.0092  0.0762 -0.2668
 2731TIP3    H132388   7.988   6.309  15.362 -0.2823  2.7698  0.2155
 2731TIP3    H232389   7.989   6.259  15.505  0.5063  0.1636 -0.6448
 2732TIP3   OH232390   7.275   2.426  14.946 -0.0734 -0.2868  0.2164
 2732TIP3    H132391   7.318   2.341  14.958  1.3839  0.5706  1.3027
 2732TIP3    H232392   7.268   2.462  15.034  0.6037  1.2985 -0.3422
 2733TIP3   OH232393   4.110   0.469  14.632  0.5727  0.8542 -0.2877
 2733TIP3    H132394   4.043   0.443  14.695  1.5387 -0.1328  0.3730
 2733TIP3    H232395   4.191   0.429  14.665  1.4635  1.8672 -1.1459
 2734TIP3   OH232396   7.199   2.565  14.668 -0.1168 -0.1039  0.0149
 2734TIP3    H132397   7.207   2.532  14.758  1.3388  0.8968  0.2932
 2734TIP3    H232398   7.289   2.581  14.640 -0.4770 -1.2673 -1.9924
 2735TIP3   OH232399   6.465   2.569  14.781 -0.0241  0.0160 -0.8257
 2735TIP3    H132400   6.417   2.489  14.798 -0.1565  0.4308  0.9935
 2735TIP3    H232401   6.488   2.565  14.688 -2.8599 -0.5562 -1.5902
 2736TIP3   OH232402   5.471   3.847  14.505  0.0925 -0.1407 -0.3297
 2736TIP3    H132403   5.407   3.791  14.548  0.9083 -1.0323 -0.2465
 2736TIP3    H232404   5.495   3.799  14.426  1.2469 -0.1990  0.0420
 2737TIP3   OH232405   3.206   8.101  14.598  0.0736 -0.4744  0.7301
 2737TIP3    H132406   3.234   8.047  14.525  0.3682 -2.1869  2.0585
 2737TIP3    H232407   3.126   8.144  14.566  0.4194 -0.8594 -0.7211
 2738TIP3   OH232408   0.712   8.102  15.482  0.3498 -0.2211 -0.0083
 2738TIP3    H132409   0.674   8.017  15.459 -1.4363  0.5889 -0.2414
 2738TIP3    H232410   0.724   8.146  15.398  0.1248  0.2105  0.1839
 2739TIP3   OH232411   2.077   7.821  15.168 -0.4819 -0.2488 -0.6895
 2739TIP3    H132412   2.134   7.898  15.159 -1.2709  0.3845 -0.3741
 2739TIP3    H232413   2.115   7.772  15.240 -0.4200  0.2511 -0.3766
 2740TIP3   OH232414   7.078   6.968  13.883 -0.4245 -0.0467 -0.0995
 2740TIP3    H132415   7.026   6.972  13.964  1.0097  1.6594  0.8159
 2740TIP3    H232416   7.019   6.931  13.818 -1.9727 -0.4781  1.4819
 2741TIP3   OH232417   3.587   5.521  13.852 -0.6277  0.2131  0.2257
 2741TIP3    H132418   3.564   5.612  13.868  0.8251  0.4482  1.1738
 2741TIP3    H232419   3.682   5.517  13.865 -0.6187 -1.3771 -0.0683
 2742TIP3   OH232420   5.889   4.064  14.475  0.2705 -0.1137  0.8026
 2742TIP3    H132421   5.908   4.116  14.397  1.8953  1.5651  2.2107
 2742TIP3    H232422   5.794   4.055  14.476  0.1785  0.3228 -1.0421
 2743TIP3   OH232423   6.698   0.760  14.422  0.1188 -0.3573 -0.2475
 2743TIP3    H132424   6.769   0.765  14.358 -1.7728  0.1876 -2.4042
 2743TIP3    H232425   6.650   0.680  14.398 -1.3411  0.5183 -0.3506
 2744TIP3   OH232426   6.096   1.986  13.946 -0.3696  0.4523 -0.1668
 2744TIP3    H132427   6.096   1.999  13.852  0.0057 -0.0549 -0.2449
 2744TIP3    H232428   6.089   2.074  13.983  1.0601  0.7944 -0.6515
 2745TIP3   OH232429   7.465   7.924  15.126  0.2496 -0.3399  0.0228
 2745TIP3    H132430   7.370   7.934  15.132  0.1286 -0.8256 -0.9128
 2745TIP3    H232431   7.496   7.936  15.216 -0.4602  2.0350  0.0286
 2746TIP3   OH232432   4.597   5.287  15.809 -0.4970  0.4827 -0.8864
 2746TIP3    H132433   4.623   5.362  15.864  1.3124  0.9025 -2.2346
 2746TIP3    H232434   4.504   5.277  15.827 -0.4903  2.1528  0.4206
 2747TIP3   OH232435   4.660   4.750  15.414 -0.2661  0.6191  0.1388
 2747TIP3    H132436   4.753   4.748  15.395 -0.5603 -0.7525 -1.4678
 2747TIP3    H232437   4.633   4.840  15.396  0.6628  0.9201  0.2122
 2748TIP3   OH232438   6.142   1.658  15.020  0.1835  0.2707  0.3036
 2748TIP3    H132439   6.169   1.736  14.971 -1.2112  0.4422 -0.2372
 2748TIP3    H232440   6.206   1.651  15.091  2.1116  0.1871 -1.3320
 2749TIP3   OH232441   3.127   4.056  14.890  0.1940 -0.2578  0.0920
 2749TIP3    H132442   3.084   4.141  14.883  1.5286  0.6211  1.8919
 2749TIP3    H232443   3.068   4.003  14.944  0.0523 -0.0045  0.1849
 2750TIP3   OH232444   8.268   5.114  16.476 -0.4415  0.8135 -0.3647
 2750TIP3    H132445   8.223   5.031  16.465  0.1308  0.5622 -0.8710
 2750TIP3    H232446   8.289   5.142  16.387  0.1061  1.0829 -0.1565
 2751TIP3   OH232447   3.426   3.683  15.204 -0.6898  0.3502  0.4777
 2751TIP3    H132448   3.507   3.731  15.188 -0.1202 -0.3336  1.2358
 2751TIP3    H232449   3.412   3.690  15.299 -1.5818  0.5587  0.3430
 2752TIP3   OH232450   6.698   6.002  15.145 -0.1858 -0.2520 -0.8676
 2752TIP3    H132451   6.660   5.929  15.096  0.7999 -0.0952 -1.9216
 2752TIP3    H232452   6.627   6.066  15.150 -0.2003 -0.0719 -2.5643
 2753TIP3   OH232453   6.695   2.704  14.862 -0.3846 -0.7940  0.2439
 2753TIP3    H132454   6.718   2.775  14.802  1.2899 -1.3955  0.1068
 2753TIP3    H232455   6.617   2.664  14.823 -0.8344  0.4219 -0.1295
 2754TIP3   OH232456   5.775   7.552  15.758 -0.2608 -0.2938 -0.1958
 2754TIP3    H132457   5.733   7.502  15.688 -1.0933  1.7194 -1.2210
 2754TIP3    H232458   5.834   7.490  15.800 -1.1392 -2.0715 -1.4740
 2755TIP3   OH232459   2.457   2.314  13.899  0.4306 -0.2459  0.1759
 2755TIP3    H132460   2.440   2.265  13.819  0.3812 -1.2685  0.7908
 2755TIP3    H232461   2.381   2.371  13.909  0.5966  0.1398 -0.6728
 2756TIP3   OH232462   7.864   2.228  14.785  0.1888 -0.2007  0.4779
 2756TIP3    H132463   7.933   2.213  14.850  0.7811  1.3084  0.2348
 2756TIP3    H232464   7.791   2.262  14.837  0.0880 -0.5288  0.5558
 2757TIP3   OH232465   2.926   2.145  14.631 -0.3024 -0.1260  0.4174
 2757TIP3    H132466   2.951   2.227  14.673 -0.0883  0.0570 -0.0535
 2757TIP3    H232467   2.855   2.111  14.684  0.3516 -0.2029  1.2763
 2758TIP3   OH232468   7.297   3.261  15.894  0.0361  0.0044 -0.4870
 2758TIP3    H132469   7.293   3.166  15.884  0.6275 -0.0750  0.0260
 2758TIP3    H232470   7.222   3.282  15.951  0.2263 -0.2128 -0.1572
 2759TIP3   OH232471   3.065   7.825  14.136 -0.6050  0.0110 -0.2349
 2759TIP3    H132472   3.091   7.904  14.088  0.1852 -1.1239 -1.7773
 2759TIP3    H232473   3.133   7.813  14.201 -0.5478  0.4167 -0.2178
 2760TIP3   OH232474   7.350   4.647  15.870 -0.3167  0.1256 -0.6423
 2760TIP3    H132475   7.424   4.620  15.814 -0.5701  0.7832 -1.3228
 2760TIP3    H232476   7.324   4.733  15.834  1.0158  1.7235  1.9430
 2761TIP3   OH232477   1.893   3.924  14.102 -0.1474 -0.0790 -0.2689
 2761TIP3    H132478   1.804   3.890  14.094  0.4511 -1.3548 -2.1848
 2761TIP3    H232479   1.942   3.853  14.142  0.3144  0.0103 -0.6674
 2762TIP3   OH232480   5.495   4.957  15.416 -0.1805 -0.6067 -0.1447
 2762TIP3    H132481   5.534   4.999  15.339 -0.6016 -0.0229 -0.0458
 2762TIP3    H232482   5.564   4.901  15.451  0.1112 -0.6466 -0.7755
 2763TIP3   OH232483   6.170   6.392  15.916  0.0389 -0.5642 -0.3410
 2763TIP3    H132484   6.207   6.319  15.965 -1.7310 -2.4112 -1.6063
 2763TIP3    H232485   6.246   6.443  15.888  1.3066 -1.6804  0.9105
 2764TIP3   OH232486   6.570   6.227  14.866  0.3543 -0.0055 -0.4696
 2764TIP3    H132487   6.498   6.172  14.896  1.8071 -1.6622  0.2093
 2764TIP3    H232488   6.585   6.289  14.938  0.8898 -0.9999  0.3033
 2765TIP3   OH232489   3.167   6.064  14.440  0.1363 -0.5921 -0.0455
 2765TIP3    H132490   3.161   6.138  14.380  0.3146 -2.3211 -2.3088
 2765TIP3    H232491   3.244   6.015  14.411  0.1371 -1.5967  1.5133
 2766TIP3   OH232492   2.862   6.894  14.903 -0.1866 -0.5244  0.0199
 2766TIP3    H132493   2.775   6.865  14.933  0.5681 -0.5867  2.4092
 2766TIP3    H232494   2.890   6.957  14.970  1.1909  0.2833 -1.2696
 2767TIP3   OH232495   4.525   0.759  15.433 -0.4577  0.5018 -0.1546
 2767TIP3    H132496   4.618   0.780  15.439 -0.1054 -1.1159  0.4588
 2767TIP3    H232497   4.521   0.685  15.373 -1.3114  0.3115  0.1222
 2768TIP3   OH232498   8.069   7.636  14.716 -0.0390 -0.2857  0.1072
 2768TIP3    H132499   8.092   7.649  14.808 -2.5777 -2.0637  1.1057
 2768TIP3    H232500   8.008   7.708  14.697 -0.8533 -0.8750  0.4014
 2769TIP3   OH232501   2.474   8.115  15.396 -0.3563  0.0963 -0.0920
 2769TIP3    H132502   2.431   8.114  15.481 -0.2796 -1.0268 -0.0511
 2769TIP3    H232503   2.424   8.178  15.344 -1.2432 -0.2149  0.3635
 2770TIP3   OH232504   4.673   2.998  14.996  0.0971  0.1469  0.1611
 2770TIP3    H132505   4.737   2.955  15.052 -0.7845 -1.3986  0.0242
 2770TIP3    H232506   4.589   2.958  15.019 -0.2446 -0.8994 -2.5236
 2771TIP3   OH232507   2.793   6.380  15.726  0.3246 -0.2914 -0.5679
 2771TIP3    H132508   2.750   6.320  15.665  0.7352  0.1840 -1.3456
 2771TIP3    H232509   2.878   6.339  15.744 -0.2709 -1.0583  0.6998
 2772TIP3   OH232510   1.243   2.809  15.052 -0.5920  0.1969  0.0979
 2772TIP3    H132511   1.236   2.773  14.964 -0.6552  0.8974 -0.1963
 2772TIP3    H232512   1.326   2.857  15.051 -1.2541  1.3980 -0.0546
 2773TIP3   OH232513   6.090   2.653  15.245  0.0197 -0.0290  0.3739
 2773TIP3    H132514   6.133   2.636  15.329  0.7562  0.7286  0.1665
 2773TIP3    H232515   6.017   2.591  15.242  0.4237 -0.5618  1.2458
 2774TIP3   OH232516   0.605   5.629  14.893 -0.2268 -0.4754 -0.1528
 2774TIP3    H132517   0.546   5.578  14.947 -0.0044 -0.3371  0.2242
 2774TIP3    H232518   0.548   5.690  14.846 -0.3850 -0.3551  0.1954
 2775TIP3   OH232519   3.955   1.456  15.091  0.1321  0.2865 -0.3078
 2775TIP3    H132520   4.022   1.480  15.155 -1.0329  0.2972  0.9813
 2775TIP3    H232521   3.951   1.530  15.030  1.5425  0.1028 -0.6401
 2776TIP3   OH232522   2.982   7.622  14.749  0.2986 -0.2577 -0.7779
 2776TIP3    H132523   2.934   7.701  14.773 -0.6284 -0.9969 -0.1209
 2776TIP3    H232524   3.074   7.648  14.754  0.0031  0.8957 -1.0103
 2777TIP3   OH232525   6.773   4.431  15.108  0.7887 -0.1513  0.6352
 2777TIP3    H132526   6.765   4.404  15.200  0.1136 -0.7437  0.4133
 2777TIP3    H232527   6.687   4.413  15.071  0.8856  0.6025  0.0125
 2778TIP3   OH232528   4.520   6.691  14.325  0.0990 -0.0566 -0.4959
 2778TIP3    H132529   4.509   6.695  14.230  0.0024  0.5922 -0.4605
 2778TIP3    H232530   4.579   6.763  14.346  1.2081 -1.0091 -0.2054
 2779TIP3   OH232531   8.267   6.222  14.742 -0.4393 -0.1398  0.1445
 2779TIP3    H132532   8.194   6.259  14.694  0.3056  1.8091  0.4386
 2779TIP3    H232533   8.300   6.152  14.685 -0.3893  1.2508 -1.6183
 2780TIP3   OH232534   4.863   1.192  15.750  0.3391 -0.0753 -0.1938
 2780TIP3    H132535   4.802   1.258  15.784  0.9530 -0.1135  1.0355
 2780TIP3    H232536   4.812   1.111  15.753  0.7043 -0.2966  1.7942
 2781TIP3   OH232537   2.379   1.743  15.368  0.3177 -0.2092  0.5722
 2781TIP3    H132538   2.348   1.807  15.433 -0.2225 -0.5139  0.6211
 2781TIP3    H232539   2.301   1.690  15.348  0.6616 -0.5867  0.2242
 2782TIP3   OH232540   6.387   5.161  14.728 -0.0094  0.1544 -0.5083
 2782TIP3    H132541   6.362   5.232  14.668  0.4621 -1.1707 -2.3565
 2782TIP3    H232542   6.320   5.094  14.715  0.6991 -0.5946 -0.3629
 2783TIP3   OH232543   6.073   3.186  14.368  0.0556 -0.2226 -0.0098
 2783TIP3    H132544   6.017   3.211  14.294 -1.0590  1.7905  1.4150
 2783TIP3    H232545   6.146   3.247  14.364  0.0318 -0.1595  0.5009
 2784TIP3   OH232546   4.793   4.013  15.415 -0.2621  0.4964  0.2864
 2784TIP3    H132547   4.776   4.047  15.503 -2.6473 -1.3493  0.6405
 2784TIP3    H232548   4.713   3.966  15.392  1.5911 -2.1179 -1.3958
 2785TIP3   OH232549   5.381   4.954  15.148  0.0594 -0.0689  0.4685
 2785TIP3    H132550   5.330   4.877  15.126  0.6402 -0.3108 -0.0694
 2785TIP3    H232551   5.333   4.995  15.221  0.3119 -1.5128  1.4933
 2786TIP3   OH232552   1.455   8.074  14.090  0.3372  0.6863 -0.7222
 2786TIP3    H132553   1.440   8.117  14.006  1.7983 -1.2234 -2.0490
 2786TIP3    H232554   1.515   8.002  14.070 -0.7134 -0.9747  1.6321
 2787TIP3   OH232555   6.479   4.154  14.762 -0.2024  0.0482  0.0917
 2787TIP3    H132556   6.557   4.104  14.785 -0.9384 -1.2959 -0.2633
 2787TIP3    H232557   6.424   4.093  14.714 -1.0385  1.2708 -0.5625
 2788TIP3   OH232558   6.313   5.559  16.070  0.7297  0.1345 -0.2137
 2788TIP3    H132559   6.252   5.535  16.140 -0.8356  2.1146 -0.7989
 2788TIP3    H232560   6.296   5.494  16.001 -1.9004  1.4396 -0.9485
 2789TIP3   OH232561   7.588   1.453  13.956 -0.7131 -0.2260 -0.2356
 2789TIP3    H132562   7.612   1.525  14.015  1.7139 -0.2861 -1.0388
 2789TIP3    H232563   7.539   1.495  13.885 -0.5689  0.4195  0.0387
 2790TIP3   OH232564   4.289   6.125  15.425  0.1069  0.0668 -0.2881
 2790TIP3    H132565   4.205   6.171  15.438 -0.1259 -0.9220  2.4097
 2790TIP3    H232566   4.264   6.042  15.386 -0.1982 -0.1864  0.4201
 2791TIP3   OH232567   2.982   5.594  15.026 -0.6356 -0.0281  0.1779
 2791TIP3    H132568   2.897   5.602  15.069  0.5211  0.9909  2.4769
 2791TIP3    H232569   3.042   5.639  15.085  1.2808  0.5566 -2.1077
 2792TIP3   OH232570   4.947   5.335  14.652  0.0014 -0.4339  0.1553
 2792TIP3    H132571   4.860   5.309  14.683 -0.0230 -1.6712 -0.8366
 2792TIP3    H232572   4.957   5.288  14.569  1.9238 -0.9288  0.6224
 2793TIP3   OH232573   1.502   5.398  15.721 -0.1039  0.4019 -0.3479
 2793TIP3    H132574   1.526   5.490  15.707 -0.2628  0.2567 -1.6957
 2793TIP3    H232575   1.464   5.370  15.638 -0.9469 -0.6231  0.3490
 2794TIP3   OH232576   3.612   6.011  15.610  0.5846  0.2374 -0.3706
 2794TIP3    H132577   3.519   6.024  15.625  0.9226  1.8456  0.5860
 2794TIP3    H232578   3.641   5.955  15.682  0.3208 -0.5779 -0.8763
 2795TIP3   OH232579   6.238   5.336  15.362  0.2486  0.1528  0.0674
 2795TIP3    H132580   6.212   5.247  15.339 -1.4496  0.5148  0.4680
 2795TIP3    H232581   6.271   5.373  15.281 -0.1415 -0.4674 -0.3871
 2796TIP3   OH232582   5.476   3.169  15.918 -0.2170  0.1010 -0.7333
 2796TIP3    H132583   5.548   3.110  15.940 -2.7131 -2.8086  0.2848
 2796TIP3    H232584   5.511   3.257  15.934  2.0227 -1.2691  3.2718
 2797TIP3   OH232585   0.206   0.708  14.517  0.3473 -0.0966  0.2057
 2797TIP3    H132586   0.187   0.800  14.534 -0.9544  0.0613 -1.8103
 2797TIP3    H232587   0.270   0.709  14.446 -2.0128 -0.6736 -2.0683
 2798TIP3   OH232588   7.263   8.361  15.874  0.4905 -0.3446  0.8829
 2798TIP3    H132589   7.300   8.359  15.786  0.4137  2.3244  0.7147
 2798TIP3    H232590   7.318   8.301  15.924  1.6929 -0.5005 -0.5557
 2799TIP3   OH232591   3.232   2.912  15.479  0.1942 -0.0813  0.2236
 2799TIP3    H132592   3.279   2.829  15.487 -0.5052 -0.4938  0.1469
 2799TIP3    H232593   3.278   2.959  15.409  0.3823 -0.5476  0.0295
 2800TIP3   OH232594   0.082   5.415  14.459 -0.4896 -0.5583  0.1153
 2800TIP3    H132595  -0.006   5.444  14.483 -0.9018 -1.5081 -0.1972
 2800TIP3    H232596   0.130   5.414  14.542 -0.7688 -0.0288  0.2867
 2801TIP3   OH232597   4.517   2.219  14.994  0.1479 -0.0914  0.4681
 2801TIP3    H132598   4.587   2.283  15.008 -0.1691  0.4696 -0.4496
 2801TIP3    H232599   4.510   2.173  15.078 -0.0574  1.5013  1.3673
 2802TIP3   OH232600   5.668   1.251  16.217 -0.3486 -0.0255 -0.4431
 2802TIP3    H132601   5.733   1.319  16.238 -1.7953  1.1035  0.6392
 2802TIP3    H232602   5.677   1.238  16.123  2.3187 -0.8859 -0.1703
 2803TIP3   OH232603   0.540   2.009  14.642 -0.0797 -0.2383  0.0862
 2803TIP3    H132604   0.591   2.040  14.717 -0.5690  0.2620  0.2148
 2803TIP3    H232605   0.513   2.089  14.597 -1.5789 -0.4608  0.5563
 2804TIP3   OH232606   3.201   6.699  15.509 -0.2664  0.5350 -0.4235
 2804TIP3    H132607   3.126   6.749  15.541 -0.5302 -1.2298  2.0333
 2804TIP3    H232608   3.172   6.607  15.512  1.6969 -0.1326 -0.1868
 2805TIP3   OH232609   3.811   2.516  14.415 -0.6024 -1.0099 -0.0153
 2805TIP3    H132610   3.847   2.509  14.503 -0.7512 -1.9695 -0.0286
 2805TIP3    H232611   3.840   2.437  14.370  0.9279  0.2456 -1.3766
 2806TIP3   OH232612   8.416   2.376  13.918 -0.5403 -0.1311  0.0838
 2806TIP3    H132613   8.393   2.415  13.834 -1.0871 -3.5783 -1.5161
 2806TIP3    H232614   8.372   2.292  13.919  1.1796 -1.1607  2.9361
 2807TIP3   OH232615   3.920   6.400  15.009 -0.1977 -0.4126  0.3483
 2807TIP3    H132616   3.848   6.381  14.949 -0.5153  1.9624 -0.1386
 2807TIP3    H232617   3.997   6.405  14.952 -0.1749 -0.0101  0.4105
 2808TIP3   OH232618   5.098   3.294  15.696  0.4862 -0.3134  0.6181
 2808TIP3    H132619   5.105   3.390  15.695 -0.8634 -0.1680 -1.0975
 2808TIP3    H232620   5.005   3.278  15.681  0.5622 -1.9146  1.6963
 2809TIP3   OH232621   5.575   5.041  14.779 -0.3684 -0.4277  0.1782
 2809TIP3    H132622   5.489   5.071  14.808 -0.4357  1.3092 -1.5775
 2809TIP3    H232623   5.594   4.966  14.834 -3.3385 -1.3298  0.1717
 2810TIP3   OH232624   4.292   0.127  14.834  0.5323  0.3626 -0.2334
 2810TIP3    H132625   4.330   0.062  14.893  2.4855  1.5687 -0.0470
 2810TIP3    H232626   4.199   0.105  14.829  0.7259 -1.0643  1.5776
 2811TIP3   OH232627   3.926   3.716  14.931  0.1360  0.0743 -0.2678
 2811TIP3    H132628   3.875   3.683  14.857  0.5581 -0.5374 -0.3021
 2811TIP3    H232629   3.883   3.797  14.957 -0.8810 -0.4600 -0.2572
 2812TIP3   OH232630   4.977   6.003  14.671  0.5299  0.8209  0.6078
 2812TIP3    H132631   4.913   5.938  14.701  0.2844  0.5945 -0.3385
 2812TIP3    H232632   5.060   5.955  14.669  0.1619  0.1657 -1.1373
 2813TIP3   OH232633   0.355   2.923  14.511  0.0147  0.2259 -0.2000
 2813TIP3    H132634   0.372   2.993  14.574  0.9088  0.3046 -0.5109
 2813TIP3    H232635   0.441   2.882  14.498 -0.1996  0.0919 -1.2245
 2814TIP3   OH232636   1.397   8.399  14.084 -0.6316 -0.3777 -0.2875
 2814TIP3    H132637   1.393   8.362  14.172 -0.1417 -0.4703 -0.3005
 2814TIP3    H232638   1.310   8.383  14.047 -0.9105 -0.1354  0.2559
 2815TIP3   OH232639   6.146   1.970  15.928 -0.0926  0.0686  0.0956
 2815TIP3    H132640   6.223   1.919  15.953 -0.6272 -0.6705  0.2554
 2815TIP3    H232641   6.077   1.905  15.916 -0.4456  0.6316 -1.0143
 2816TIP3   OH232642   1.771   7.811  15.922 -0.5446 -0.0215  0.5275
 2816TIP3    H132643   1.710   7.882  15.943  0.3089  0.4485  1.4718
 2816TIP3    H232644   1.857   7.853  15.920 -0.3170 -0.4344 -1.9395
 2817TIP3   OH232645   1.918   3.207  15.066  0.1020  0.2484  0.6101
 2817TIP3    H132646   1.886   3.124  15.031  1.5837  1.0183 -2.9754
 2817TIP3    H232647   2.012   3.193  15.081  0.2135  1.0597  0.7444
 2818TIP3   OH232648   2.262   4.420  15.354 -0.2074  0.5225  0.1433
 2818TIP3    H132649   2.180   4.399  15.398  0.6888 -0.0174  1.6406
 2818TIP3    H232650   2.290   4.503  15.393 -0.4273  1.1243 -0.9463
 2819TIP3   OH232651   2.921   0.786  14.898 -0.2448 -0.7043 -0.8595
 2819TIP3    H132652   2.830   0.810  14.879 -0.1089 -1.4135 -2.7010
 2819TIP3    H232653   2.929   0.696  14.866  1.0352 -0.7369 -0.5193
 2820TIP3   OH232654   0.935   7.450  15.679  0.0606  0.1798 -0.3066
 2820TIP3    H132655   0.855   7.424  15.725  0.3397 -1.2818 -0.5896
 2820TIP3    H232656   0.987   7.496  15.744  0.0382 -1.0148  0.5794
 2821TIP3   OH232657   0.308   8.205  15.884  0.4218 -0.1925  0.1138
 2821TIP3    H132658   0.219   8.174  15.897  0.5320 -0.1070  1.1147
 2821TIP3    H232659   0.300   8.278  15.823 -0.4651  1.2096  1.8320
 2822TIP3   OH232660   6.877   8.366  15.094  0.4447 -0.2198  0.2384
 2822TIP3    H132661   6.886   8.401  15.183  1.1368  0.2456 -0.0080
 2822TIP3    H232662   6.896   8.273  15.102 -0.0677 -0.2957  0.6709
 2823TIP3   OH232663   6.082   5.776  14.264  0.3678  0.5130 -0.3937
 2823TIP3    H132664   6.102   5.691  14.225 -0.2636 -0.6372  1.6213
 2823TIP3    H232665   5.991   5.792  14.241  0.0419 -0.0913  0.4098
 2824TIP3   OH232666   2.048   0.282  14.729 -0.1268 -1.0491  0.1624
 2824TIP3    H132667   2.111   0.342  14.690 -0.3002 -0.8554  0.1824
 2824TIP3    H232668   1.986   0.263  14.659 -1.1061  0.1997  0.6469
 2825TIP3   OH232669   6.931   6.876  16.000 -0.1668 -0.2010 -0.0356
 2825TIP3    H132670   6.991   6.922  16.058 -1.3332 -1.3579  2.2335
 2825TIP3    H232671   6.878   6.945  15.961  0.8412  0.6352  0.0423
 2826TIP3   OH232672   6.856   5.185  14.600 -0.0800  0.0828 -0.7718
 2826TIP3    H132673   6.862   5.266  14.650  1.5332 -0.0358 -0.7409
 2826TIP3    H232674   6.765   5.183  14.568  0.0410  2.2473 -1.3862
 2827TIP3   OH232675   4.754   0.504  15.193 -0.6306  0.1211 -0.2261
 2827TIP3    H132676   4.766   0.488  15.287  0.1298  0.2959 -0.2946
 2827TIP3    H232677   4.663   0.478  15.177 -0.6262 -0.3571  0.4633
 2828TIP3   OH232678   1.440   1.967  16.335 -0.2920 -0.1951 -0.3373
 2828TIP3    H132679   1.505   1.903  16.363  0.3597  0.3328 -0.6357
 2828TIP3    H232680   1.486   2.024  16.274 -0.8771  0.5453 -0.0996
 2829TIP3   OH232681   7.041   3.491  16.213 -0.4113 -0.5134  0.2456
 2829TIP3    H132682   7.006   3.543  16.286 -0.2517 -0.2481  0.1329
 2829TIP3    H232683   6.965   3.441  16.181  0.0971 -2.9215  2.4935
 2830TIP3   OH232684   7.344   5.876  16.009  0.4407  0.2842  0.5573
 2830TIP3    H132685   7.321   5.799  16.061 -0.3995  1.0854  1.4210
 2830TIP3    H232686   7.439   5.869  15.996  0.2422 -1.4609 -0.3592
 2831TIP3   OH232687   0.898   6.959  13.713 -0.0245 -0.5907 -0.1365
 2831TIP3    H132688   0.940   7.043  13.731 -0.4899 -0.0866 -1.3423
 2831TIP3    H232689   0.806   6.981  13.697 -0.1652 -1.3442 -0.3891
 2832TIP3   OH232690   6.715   0.690  15.549 -0.3706 -0.1534 -0.3869
 2832TIP3    H132691   6.710   0.774  15.594 -0.3019 -0.5877  0.4571
 2832TIP3    H232692   6.800   0.654  15.575 -0.5065 -0.5897 -0.5461
 2833TIP3   OH232693   5.067   7.363  15.021  0.2239  0.3815  0.4728
 2833TIP3    H132694   5.157   7.331  15.010  0.5699  1.0854  1.1084
 2833TIP3    H232695   5.039   7.325  15.105  0.0800  0.5099  0.4825
 2834TIP3   OH232696   2.622   7.262  13.728 -0.1997  0.7173  0.0946
 2834TIP3    H132697   2.547   7.227  13.681  0.1526  1.4190 -1.0460
 2834TIP3    H232698   2.691   7.197  13.716 -0.6043  0.0727  1.1434
 2835TIP3   OH232699   7.943   5.227  14.717  0.4085  0.0880 -0.3082
 2835TIP3    H132700   7.990   5.216  14.634 -0.4956 -1.2769 -0.6872
 2835TIP3    H232701   7.866   5.278  14.693  1.3276  1.7616  0.1848
 2836TIP3   OH232702   5.587   1.393  15.732 -0.0692  0.2486 -0.5764
 2836TIP3    H132703   5.591   1.336  15.809 -2.6013  1.0705  0.2386
 2836TIP3    H232704   5.661   1.452  15.742  1.3236 -1.4532 -0.3086
 2837TIP3   OH232705   3.322   2.498  15.050 -0.6787  0.5582 -0.5285
 2837TIP3    H132706   3.336   2.580  15.003 -1.5509 -0.6840 -3.1481
 2837TIP3    H232707   3.256   2.452  14.998 -2.6394 -0.4692  2.6480
 2838TIP3   OH232708   0.401   4.294  15.763  0.3602  0.0216 -0.0837
 2838TIP3    H132709   0.433   4.347  15.691 -2.0331  1.2349 -0.3641
 2838TIP3    H232710   0.382   4.356  15.833  1.2821 -0.9676  1.0878
 2839TIP3   OH232711   1.170   1.853  15.914 -0.1822 -0.0931 -0.1194
 2839TIP3    H132712   1.224   1.924  15.877  0.9440 -0.8032  0.1016
 2839TIP3    H232713   1.217   1.826  15.993 -1.1536 -0.3997  0.3707
 2840TIP3   OH232714   2.696   5.807  14.946 -0.4242  0.1285  0.1543
 2840TIP3    H132715   2.601   5.819  14.956 -0.1874  0.5014  2.5757
 2840TIP3    H232716   2.718   5.858  14.868 -2.1780  0.1478 -0.3880
 2841TIP3   OH232717   3.199   4.504  15.675 -0.4846 -0.3599 -0.2579
 2841TIP3    H132718   3.196   4.563  15.750 -2.0422 -1.6180  0.7479
 2841TIP3    H232719   3.233   4.422  15.711 -0.5623 -0.7674 -1.0937
 2842TIP3   OH232720   0.241   3.170  14.778  0.7371 -0.1582  0.2415
 2842TIP3    H132721   0.241   3.205  14.688 -0.9980  0.3047  0.3836
 2842TIP3    H232722   0.207   3.242  14.831  0.2170 -0.9798  1.0367
 2843TIP3   OH232723   6.424   2.220  16.224  0.4342 -0.1907  0.7452
 2843TIP3    H132724   6.507   2.181  16.253 -0.1233 -1.1363  1.1129
 2843TIP3    H232725   6.417   2.301  16.275  1.1766 -0.0498  0.6343
 2844TIP3   OH232726   6.793   6.667  14.679  0.5509 -0.2072  0.2510
 2844TIP3    H132727   6.844   6.635  14.753  1.9347 -1.8458 -1.3378
 2844TIP3    H232728   6.732   6.595  14.659  0.0568  0.2989 -0.1041
 2845TIP3   OH232729   2.617   0.718  14.919  0.5196  0.7145 -0.5680
 2845TIP3    H132730   2.616   0.731  14.825  1.2021 -1.4144 -0.9217
 2845TIP3    H232731   2.537   0.670  14.939  1.0901 -0.1748 -0.3253
 2846TIP3   OH232732   3.487   1.180  13.600 -0.1412  0.3182 -0.0162
 2846TIP3    H132733   3.443   1.165  13.517 -0.9810  0.6498  0.3548
 2846TIP3    H232734   3.416   1.176  13.665  0.1552  2.2191  0.4671
 2847TIP3   OH232735   5.008   8.226  15.700  0.9958  0.5880  0.2392
 2847TIP3    H132736   5.041   8.252  15.614  1.4304 -0.4558  0.0743
 2847TIP3    H232737   5.016   8.305  15.754  0.5677  1.2981 -0.7064
 2848TIP3   OH232738   2.864   4.525  15.263  0.3348  0.4585 -0.0890
 2848TIP3    H132739   2.801   4.452  15.262  0.7554  0.0940 -0.5160
 2848TIP3    H232740   2.916   4.510  15.342  0.6336  0.1079 -0.3500
 2849TIP3   OH232741   4.124   4.156  15.886  0.5690  0.1206 -0.0787
 2849TIP3    H132742   4.125   4.146  15.791  2.0636 -0.3205 -0.0273
 2849TIP3    H232743   4.135   4.068  15.921 -0.3361  0.2279  0.5232
 2850TIP3   OH232744   6.846   1.870  15.873  0.5070 -0.3189  0.7413
 2850TIP3    H132745   6.913   1.900  15.934  0.6795 -1.0083  0.9029
 2850TIP3    H232746   6.784   1.821  15.927 -1.1706  1.8601  0.9197
 2851TIP3   OH232747   0.926   3.864  15.158 -0.3286  0.0033 -0.2714
 2851TIP3    H132748   0.875   3.941  15.133  0.2329  0.4679 -0.0016
 2851TIP3    H232749   1.010   3.876  15.115  0.7659  0.9600  1.9459
 2852TIP3   OH232750   6.386   0.984  15.708  0.3452  0.0103 -0.0962
 2852TIP3    H132751   6.378   1.071  15.748 -2.4933  0.1792 -0.7917
 2852TIP3    H232752   6.422   0.929  15.778  2.7810  1.7865  0.1742
 2853TIP3   OH232753   2.052   4.174  15.497 -0.3674 -0.0627 -0.6167
 2853TIP3    H132754   2.034   4.184  15.591 -0.6317 -2.1614 -0.3903
 2853TIP3    H232755   2.120   4.107  15.493  2.3831  2.5762 -1.8035
 2854TIP3   OH232756   3.525   0.678  15.676  0.2708  0.2829 -0.0477
 2854TIP3    H132757   3.618   0.670  15.655  0.3333  0.8520  0.0141
 2854TIP3    H232758   3.479   0.653  15.596  0.4887  1.0958 -0.4258
 2855TIP3   OH232759   0.585   6.319  15.559 -0.1715  0.0856  0.6784
 2855TIP3    H132760   0.563   6.273  15.641 -2.1093  0.7466  0.5828
 2855TIP3    H232761   0.500   6.338  15.519  0.7333 -1.3774 -2.1806
 2856TIP3   OH232762   0.459   1.841  14.859  0.1518 -0.4463 -0.3692
 2856TIP3    H132763   0.490   1.871  14.774  1.0415  0.7334  0.3345
 2856TIP3    H232764   0.371   1.807  14.843  1.2074 -2.5354 -2.1909
 2857TIP3   OH232765   0.647   3.071  14.407  0.0097  0.2611  0.1937
 2857TIP3    H132766   0.603   3.003  14.357  0.3903  0.6167 -0.6340
 2857TIP3    H232767   0.718   3.101  14.351  0.8276  0.2533  1.1819
 2858TIP3   OH232768   0.655   7.856  15.363 -0.2465  0.2770 -0.2406
 2858TIP3    H132769   0.720   7.786  15.373 -1.1055 -0.3279  1.4131
 2858TIP3    H232770   0.572   7.811  15.349 -1.2012  0.7750  2.9927
 2859TIP3   OH232771   4.989   6.794  13.940 -0.2864 -0.0395  0.0578
 2859TIP3    H132772   4.988   6.743  13.860  0.8310  0.4788 -0.3123
 2859TIP3    H232773   5.077   6.781  13.975 -0.5945  0.1493  0.9348
 2860TIP3   OH232774   6.549   3.777  15.050  0.3634  0.5689 -0.2256
 2860TIP3    H132775   6.635   3.748  15.079 -0.0867 -0.2573  0.3213
 2860TIP3    H232776   6.516   3.705  14.997 -1.0184 -0.2293  1.6356
 2861TIP3   OH232777   2.713   3.093  15.316  0.0379 -0.1858 -0.2070
 2861TIP3    H132778   2.703   3.002  15.343  1.6693 -0.9031 -1.8231
 2861TIP3    H232779   2.808   3.108  15.318 -0.1371  1.1529 -0.9758
 2862TIP3   OH232780   5.972   3.877  15.946 -0.3914  0.4285 -0.0323
 2862TIP3    H132781   5.930   3.962  15.932  1.0070  1.0385 -0.6760
 2862TIP3    H232782   6.043   3.874  15.883  0.8731 -0.3568  1.3634
 2863TIP3   OH232783   1.072   0.211  15.577  0.0061  0.8096  0.5694
 2863TIP3    H132784   1.096   0.302  15.596  0.0753  0.9586 -0.1946
 2863TIP3    H232785   1.063   0.170  15.663  0.8072  1.3267  0.9163
 2864TIP3   OH232786   4.828   0.826  14.119  0.4758 -0.6186  0.5583
 2864TIP3    H132787   4.793   0.901  14.072  2.0128 -1.4411 -2.0584
 2864TIP3    H232788   4.899   0.862  14.172  1.4183 -0.2244 -0.9274
 2865TIP3   OH232789   5.373   8.184  15.798  0.0776 -0.0035  0.1969
 2865TIP3    H132790   5.464   8.213  15.804  0.0119 -0.1083  2.8709
 2865TIP3    H232791   5.321   8.263  15.811 -0.2840  0.1036 -1.5792
 2866TIP3   OH232792   1.640   5.836  14.596 -0.2663  0.7255  0.2121
 2866TIP3    H132793   1.554   5.801  14.620 -0.6514  2.1288  0.9900
 2866TIP3    H232794   1.641   5.831  14.500  0.1300 -2.2889  0.2845
 2867TIP3   OH232795   3.956   5.955  15.061 -0.0759 -0.0679  0.0783
 2867TIP3    H132796   4.030   5.897  15.080 -0.6426 -0.6922  0.4396
 2867TIP3    H232797   3.989   6.043  15.079 -0.1602 -0.5025  2.8397
 2868TIP3   OH232798   8.158   1.346  15.209  0.4930 -0.3951 -0.2011
 2868TIP3    H132799   8.126   1.256  15.205 -0.8760 -0.0020  1.0715
 2868TIP3    H232800   8.123   1.381  15.291 -0.2635  1.7606 -1.3526
 2869TIP3   OH232801   6.340   6.373  15.044 -0.2410  0.2632  0.0592
 2869TIP3    H132802   6.307   6.308  14.982  0.7757  1.3091 -1.6744
 2869TIP3    H232803   6.261   6.411  15.083 -0.9326 -0.2477 -0.8098
 2870TIP3   OH232804   4.267   7.042  15.410  0.3781 -0.4692  0.1657
 2870TIP3    H132805   4.204   6.971  15.421  0.1689 -0.1101  1.3391
 2870TIP3    H232806   4.215   7.122  15.418  0.4964 -0.1459 -1.8007
 2871TIP3   OH232807   3.721   4.998  15.429 -0.9400 -0.1243 -0.0452
 2871TIP3    H132808   3.668   4.936  15.380 -0.4610 -0.0221 -0.7084
 2871TIP3    H232809   3.781   4.943  15.480 -1.3262 -0.2246  0.3104
 2872TIP3   OH232810   2.445   2.749  15.398 -0.3355  0.1308 -0.8923
 2872TIP3    H132811   2.516   2.754  15.462 -0.9572 -0.8124 -0.0827
 2872TIP3    H232812   2.372   2.794  15.441 -0.1400  1.4507 -1.8820
 2873TIP3   OH232813   2.030   0.487  15.600  0.2639  0.0621  0.2786
 2873TIP3    H132814   2.118   0.451  15.589 -0.5202 -2.0828  0.4202
 2873TIP3    H232815   1.987   0.472  15.516  0.6809  3.2686 -0.6092
 2874TIP3   OH232816   7.870   3.545  15.752  0.0908  0.2464  0.3518
 2874TIP3    H132817   7.892   3.549  15.659  0.6833 -0.5273  0.4441
 2874TIP3    H232818   7.955   3.549  15.797 -0.0071 -1.4031  0.7731
 2875TIP3   OH232819   5.544   1.608  14.684  0.5765  0.5839 -0.7613
 2875TIP3    H132820   5.492   1.539  14.642 -0.4226 -0.0654  1.4249
 2875TIP3    H232821   5.493   1.687  14.670  0.7559  0.5714 -1.5837
 2876TIP3   OH232822   5.720   2.110  16.177 -0.4365 -0.0114 -0.3745
 2876TIP3    H132823   5.690   2.019  16.172 -0.4387 -0.0551  0.4090
 2876TIP3    H232824   5.652   2.160  16.132 -0.3874 -0.4048 -0.8967
 2877TIP3   OH232825   2.489   0.148  15.225 -0.2173 -0.6314  0.5492
 2877TIP3    H132826   2.536   0.137  15.307 -0.5458  1.0650  0.9981
 2877TIP3    H232827   2.543   0.208  15.174 -1.4385  0.6741  0.7342
 2878TIP3   OH232828   5.326   1.315  15.805  0.2375 -0.1435  0.0430
 2878TIP3    H132829   5.413   1.281  15.784 -0.3607 -0.9282 -1.2817
 2878TIP3    H232830   5.272   1.293  15.729 -1.0875  0.4790  0.7626
 2879TIP3   OH232831   0.903   3.296  14.000 -0.1956 -0.7836 -0.2859
 2879TIP3    H132832   0.839   3.348  13.952  0.3672  0.2835  0.0872
 2879TIP3    H232833   0.978   3.354  14.012 -0.1976 -1.0827  1.6303
 2880TIP3   OH232834   6.468   0.521  14.956 -0.4140  0.2990 -0.4030
 2880TIP3    H132835   6.440   0.433  14.932 -0.6378  0.1252  0.4803
 2880TIP3    H232836   6.439   0.532  15.046  1.7121  0.3659  0.3318
 2881TIP3   OH232837   3.139   2.551  14.656  0.1462  0.3035  0.2205
 2881TIP3    H132838   3.193   2.600  14.593 -1.1288 -0.7190 -1.7676
 2881TIP3    H232839   3.130   2.611  14.731  0.0032  2.4668 -1.4188
 2882TIP3   OH232840   2.330   6.562  15.779  0.0556  0.1791  0.1280
 2882TIP3    H132841   2.247   6.573  15.825  0.2007  0.4809  0.3254
 2882TIP3    H232842   2.370   6.649  15.780 -0.3458  0.4157 -1.3730
 2883TIP3   OH232843   1.440   0.890  15.375 -0.6065 -0.0589 -0.0685
 2883TIP3    H132844   1.509   0.824  15.380 -1.1350 -0.5596  1.0357
 2883TIP3    H232845   1.448   0.939  15.457  0.6482  2.2074 -1.4222
 2884TIP3   OH232846   6.996   3.245  15.369  0.4682  0.2907 -0.2366
 2884TIP3    H132847   6.917   3.241  15.423  0.4285 -2.1315 -0.3902
 2884TIP3    H232848   6.974   3.307  15.299 -0.8805  0.5112  0.3639
 2885TIP3   OH232849   1.595   1.517  16.179 -0.2486 -0.0598  0.8048
 2885TIP3    H132850   1.685   1.489  16.196 -0.4615 -0.2913  1.6066
 2885TIP3    H232851   1.560   1.452  16.119 -0.3523 -0.8475  1.6937
 2886TIP3   OH232852   3.076   3.611  14.917 -0.1409 -0.4624 -0.0026
 2886TIP3    H132853   3.104   3.702  14.910  0.2786 -0.6171 -0.3449
 2886TIP3    H232854   2.984   3.612  14.891 -0.6123  0.1204  1.5535
 2887TIP3   OH232855   1.728   3.068  14.897  0.2044 -0.1675  0.1814
 2887TIP3    H132856   1.645   3.030  14.924  0.5062  0.3553  2.0120
 2887TIP3    H232857   1.753   3.020  14.818 -2.0660  0.0371 -0.7231
 2888TIP3   OH232858   2.073   4.044  13.873 -0.5941  0.4951 -0.2639
 2888TIP3    H132859   2.014   3.997  13.932 -1.3238  1.2770 -0.3343
 2888TIP3    H232860   2.124   3.976  13.830 -0.9414 -0.1614  0.3433
 2889TIP3   OH232861   8.313   3.489  14.635  0.0007  0.3236  0.1232
 2889TIP3    H132862   8.221   3.480  14.662 -0.2261  0.0356 -0.7075
 2889TIP3    H232863   8.360   3.510  14.715 -0.5789 -0.9235  0.8090
 2890TIP3   OH232864   1.958   5.492  15.783 -0.0018 -0.7134  0.3169
 2890TIP3    H132865   1.963   5.585  15.760  1.7743 -0.8005  0.2509
 2890TIP3    H232866   1.893   5.489  15.853  0.3116  0.6519  0.6983
 2891TIP3   OH232867   2.126   4.314  13.956  0.1930 -0.0519 -0.3963
 2891TIP3    H132868   2.114   4.231  13.910 -0.1322  0.7136 -1.7545
 2891TIP3    H232869   2.179   4.367  13.897  1.2995  0.3724  0.9063
 2892TIP3   OH232870   0.468   2.392  14.088 -0.1770  0.7844 -0.2028
 2892TIP3    H132871   0.444   2.300  14.090 -1.2090  1.0528  0.7526
 2892TIP3    H232872   0.394   2.435  14.044  1.0379  0.9733 -2.1551
 2893TIP3   OH232873   2.879   0.361  15.382  0.7266 -0.6280  0.1292
 2893TIP3    H132874   2.894   0.271  15.356  1.6276 -0.0193 -1.5750
 2893TIP3    H232875   2.935   0.413  15.324 -0.4273  1.0827  0.4719
 2894TIP3   OH232876   5.214   4.389  14.655 -0.2808 -0.7557  0.3524
 2894TIP3    H132877   5.253   4.432  14.732 -0.3901 -0.7615  0.4101
 2894TIP3    H232878   5.286   4.338  14.618 -0.4082 -1.3112  0.8527
 2895TIP3   OH232879   2.623   1.029  14.980 -0.1290  0.4599 -0.2496
 2895TIP3    H132880   2.553   1.058  15.039  0.6001 -0.0146  0.9000
 2895TIP3    H232881   2.607   0.935  14.969 -0.4180  0.5997 -1.0387
 2896TIP3   OH232882   2.079   7.211  13.733 -0.0674  0.2162 -0.2103
 2896TIP3    H132883   2.168   7.180  13.716 -0.5943 -1.4613 -0.1310
 2896TIP3    H232884   2.054   7.166  13.814 -0.4980  1.7622  0.5399
 2897TIP3   OH232885   0.908   2.478  15.353  0.2858 -0.0225  0.1522
 2897TIP3    H132886   0.947   2.396  15.382 -0.4965 -0.9249 -1.2266
 2897TIP3    H232887   0.978   2.523  15.306  0.1625 -0.8697 -0.8764
 2898TIP3   OH232888   1.459   4.123  16.168  0.1546  0.0181 -0.0677
 2898TIP3    H132889   1.493   4.141  16.080  1.6071 -0.0732  0.4477
 2898TIP3    H232890   1.364   4.129  16.159  0.1747 -1.5866 -2.0140
 2899TIP3   OH232891   1.175   8.272  14.514 -0.6351  0.3690  0.2102
 2899TIP3    H132892   1.247   8.264  14.451  1.2093 -0.0194  2.2774
 2899TIP3    H232893   1.158   8.366  14.519  0.4358  0.5550  0.4492
 2900TIP3   OH232894   3.175   7.395  14.357 -0.1333 -0.1088 -0.4678
 2900TIP3    H132895   3.082   7.405  14.333 -0.5678  2.4429  1.8999
 2900TIP3    H232896   3.185   7.301  14.373 -2.4949 -0.3639 -0.1152
 2901TIP3   OH232897   7.905   6.847  14.873 -0.4856 -0.9315 -0.1419
 2901TIP3    H132898   7.967   6.807  14.933 -0.6193 -1.1144 -0.1254
 2901TIP3    H232899   7.820   6.836  14.916 -0.5450 -0.7999 -0.2249
 2902TIP3   OH232900   6.173   6.111  13.741 -0.0464  0.3811 -0.1280
 2902TIP3    H132901   6.207   6.078  13.658 -0.2185 -0.8387  0.2690
 2902TIP3    H232902   6.236   6.178  13.768  0.9430 -0.4222 -0.3903
 2903TIP3   OH232903   5.292   8.139  16.059 -0.2042 -0.5260  0.4553
 2903TIP3    H132904   5.308   8.181  15.974 -0.0139 -0.6242  0.4417
 2903TIP3    H232905   5.359   8.071  16.064  2.5218  2.0811  2.5126
 2904TIP3   OH232906   7.980   8.021  15.891 -0.2415 -0.2738 -0.3859
 2904TIP3    H132907   8.038   8.038  15.965 -0.6716  1.2140 -0.3589
 2904TIP3    H232908   8.026   7.957  15.838  1.4536  0.8939 -0.3875
 2905TIP3   OH232909   6.406   6.256  13.717  0.0186  0.1705 -0.6944
 2905TIP3    H132910   6.415   6.295  13.630  0.0608  2.2498  0.1745
 2905TIP3    H232911   6.420   6.329  13.777 -1.6187 -0.8520  1.0393
 2906TIP3   OH232912   2.753   7.914  15.629  0.1620 -0.3895  0.4362
 2906TIP3    H132913   2.816   7.939  15.562  1.2426 -0.6586  1.3309
 2906TIP3    H232914   2.701   7.844  15.588  0.8351 -0.5853 -0.1017
 2907TIP3   OH232915   2.216   2.684  14.525  0.3536  0.6914  0.1927
 2907TIP3    H132916   2.231   2.770  14.566  0.7468  0.2764  0.9322
 2907TIP3    H232917   2.121   2.671  14.530  0.2452  1.2702 -0.3015
 2908TIP3   OH232918   2.565   1.960  13.551  0.4038 -0.3852 -0.5404
 2908TIP3    H132919   2.639   1.921  13.597  0.4399  0.1246 -0.1457
 2908TIP3    H232920   2.512   1.886  13.521 -0.1525 -0.7408  1.1968
 2909TIP3   OH232921   1.486   4.486  14.316 -0.4524 -0.0307  0.1952
 2909TIP3    H132922   1.429   4.543  14.368 -1.4499 -2.7927  2.4009
 2909TIP3    H232923   1.430   4.412  14.293  1.6820 -1.8993  0.6823
 2910TIP3   OH232924   7.255   6.347  14.802 -0.0104  0.0650  0.0683
 2910TIP3    H132925   7.219   6.366  14.889  0.9817  2.4987  0.0167
 2910TIP3    H232926   7.349   6.363  14.810  0.3581 -1.3177 -1.0579
 2911TIP3   OH232927   5.909   7.248  13.981 -0.3103 -0.1662 -0.5132
 2911TIP3    H132928   5.848   7.175  13.986  0.4137 -0.7319  0.5386
 2911TIP3    H232929   5.960   7.232  13.902  0.8940 -1.7070  0.5018
 2912TIP3   OH232930   2.456   2.637  14.377  0.7750 -0.1535 -0.0642
 2912TIP3    H132931   2.367   2.635  14.411  0.6567 -1.0066 -0.3897
 2912TIP3    H232932   2.451   2.690  14.297  0.6047 -0.0367  0.0244
 2913TIP3   OH232933   8.088   0.659  15.460 -0.3904  0.1841 -0.4106
 2913TIP3    H132934   8.104   0.748  15.427 -0.3260  1.4251  2.5949
 2913TIP3    H232935   7.994   0.646  15.449 -0.4405  0.7340 -0.6769
 2914TIP3   OH232936   1.903   6.105  14.707 -0.3000 -0.3130  0.3061
 2914TIP3    H132937   1.827   6.077  14.758 -0.3263 -0.0889  0.3936
 2914TIP3    H232938   1.929   6.028  14.657 -2.5701  0.4165 -2.2767
 2915TIP3   OH232939   6.552   4.047  15.133  0.1967 -0.2477 -0.3317
 2915TIP3    H132940   6.470   4.093  15.117 -1.3200 -1.5343  3.0255
 2915TIP3    H232941   6.550   3.972  15.073 -0.1099  0.7659 -1.6294
 2916TIP3   OH232942   7.538   0.423  14.751  0.4053 -0.1600 -0.1878
 2916TIP3    H132943   7.514   0.376  14.831  0.6117  0.3390  0.1728
 2916TIP3    H232944   7.456   0.462  14.721  0.2328 -0.7474 -0.4905
 2917TIP3   OH232945   7.912   7.736  15.810  0.3312  0.8773 -0.1760
 2917TIP3    H132946   7.847   7.778  15.867  1.9756  0.8542  1.8110
 2917TIP3    H232947   7.886   7.644  15.808 -0.0822  0.9858  0.0278
 2918TIP3   OH232948   3.138   7.348  13.979  0.1407 -0.6978  0.1946
 2918TIP3    H132949   3.107   7.438  13.977  0.7714 -0.4744  0.4231
 2918TIP3    H232950   3.068   7.299  14.022  0.2687 -0.1338  1.0638
 2919TIP3   OH232951   7.673   6.836  14.618  0.1282 -0.6825 -0.2249
 2919TIP3    H132952   7.764   6.858  14.600  0.0231  1.3564  1.3285
 2919TIP3    H232953   7.623   6.878  14.548  0.2805 -0.2466 -0.0769
 2920TIP3   OH232954   7.804   7.601  16.137 -0.0070  0.1385 -0.5622
 2920TIP3    H132955   7.805   7.692  16.107 -1.3661  0.5506  0.5596
 2920TIP3    H232956   7.877   7.594  16.198  0.5767  0.2548 -1.2395
 2921TIP3   OH232957   6.256   7.198  15.564  0.0746 -0.2317  0.2040
 2921TIP3    H132958   6.290   7.287  15.552 -0.1486 -0.2467 -0.5732
 2921TIP3    H232959   6.170   7.210  15.603  0.1313 -0.1124  0.2933
 2922TIP3   OH232960   6.084   5.419  15.560  0.0079  0.2286 -0.3814
 2922TIP3    H132961   6.149   5.394  15.494  2.0368 -0.5417  1.7743
 2922TIP3    H232962   6.042   5.497  15.523 -0.2934 -1.1847 -3.3635
 2923TIP3   OH232963   0.338   3.836  15.979 -0.0894  0.5050 -0.7587
 2923TIP3    H132964   0.275   3.888  16.030 -0.3913 -0.3659 -0.2332
 2923TIP3    H232965   0.354   3.889  15.901 -2.3028  0.2907 -1.4336
 2924TIP3   OH232966   1.526   4.752  13.987 -0.5026  0.2840  0.2096
 2924TIP3    H132967   1.507   4.723  13.898 -2.3762 -1.8082  1.1975
 2924TIP3    H232968   1.482   4.837  13.994 -1.4779 -0.1470 -0.4593
 2925TIP3   OH232969   8.408   3.467  14.896  0.5253 -0.0030 -0.2197
 2925TIP3    H132970   8.492   3.440  14.933  1.0563  0.2458 -1.1924
 2925TIP3    H232971   8.417   3.562  14.884  0.0178  0.0594 -0.0985
 2926TIP3   OH232972   4.412   5.806  14.591  0.1233  0.0246 -0.1725
 2926TIP3    H132973   4.408   5.721  14.549 -1.1038 -0.1262  0.1973
 2926TIP3    H232974   4.374   5.866  14.527  0.1506  0.1394 -0.0819
 2927TIP3   OH232975   0.095   2.760  15.432 -0.0777 -0.3931  0.3178
 2927TIP3    H132976   0.128   2.697  15.496  1.0350  0.3261  0.4830
 2927TIP3    H232977   0.007   2.782  15.462  0.8241  0.7887  2.3100
 2928TIP3   OH232978   6.151   8.204  13.638 -0.0095 -0.2442  0.6553
 2928TIP3    H132979   6.068   8.171  13.674 -0.5923  0.0170 -0.3985
 2928TIP3    H232980   6.188   8.258  13.708 -1.8471  1.5008  0.3719
 2929TIP3   OH232981   2.408   4.014  14.651  0.6442  0.0996  0.2235
 2929TIP3    H132982   2.464   4.019  14.574  0.9942  0.9368  0.5176
 2929TIP3    H232983   2.331   4.066  14.628  0.1701 -0.7038 -0.0251
 2930TIP3   OH232984   0.237   6.731  15.648  0.0275 -0.4759  0.3004
 2930TIP3    H132985   0.271   6.742  15.737  1.1464  0.1731 -0.1804
 2930TIP3    H232986   0.145   6.755  15.655  0.1726 -0.1337  1.2364
 2931TIP3   OH232987   3.374   0.371  15.098 -0.3850 -0.4851  0.4128
 2931TIP3    H132988   3.395   0.358  15.191 -0.7440 -2.7162  0.2231
 2931TIP3    H232989   3.457   0.356  15.052 -0.8996 -2.9725  0.1565
 2932TIP3   OH232990   1.838   7.428  14.669  0.2003  0.2025 -0.1537
 2932TIP3    H132991   1.887   7.504  14.638  0.6242 -0.3786 -0.9717
 2932TIP3    H232992   1.901   7.378  14.720  0.5498 -0.6658 -1.4035
 2933TIP3   OH232993   0.393   0.969  15.016 -0.5442  0.2223  0.1580
 2933TIP3    H132994   0.299   0.984  15.008 -0.8224 -0.8723  1.1433
 2933TIP3    H232995   0.428   1.052  15.047 -1.0490  0.9127 -1.0697
 2934TIP3   OH232996   0.074   2.814  13.645 -0.0190 -0.5022  0.0143
 2934TIP3    H132997   0.131   2.889  13.626  0.8899 -0.7216  1.6832
 2934TIP3    H232998   0.003   2.850  13.697  1.8497 -1.0691  3.2953
 2935TIP3   OH232999   8.373   5.658  15.705  0.0235  0.2986 -0.4287
 2935TIP3    H133000   8.463   5.660  15.673 -0.2938 -0.1379 -1.3579
 2935TIP3    H233001   8.321   5.627  15.631 -1.1276  2.0764 -0.4389
 2936TIP3   OH233002   6.968   5.102  14.892 -0.1676  0.1479  0.0772
 2936TIP3    H133003   6.955   5.009  14.877 -0.4807 -0.0203  1.2440
 2936TIP3    H233004   6.879   5.136  14.905  0.0426  0.3000  1.2146
 2937TIP3   OH233005   1.861   4.411  13.996  0.3021  0.2428 -0.5399
 2937TIP3    H133006   1.934   4.354  14.020 -0.0335  0.1510  0.3297
 2937TIP3    H233007   1.795   4.394  14.064  0.0318  1.3555 -0.5103
 2938TIP3   OH233008   3.143   7.464  15.617  0.2005 -0.1971 -0.0846
 2938TIP3    H133009   3.174   7.408  15.546  0.5915 -0.5647  0.3760
 2938TIP3    H233010   3.222   7.504  15.653  0.2024 -1.3437  1.2673
 2939TIP3   OH233011   5.807   7.149  15.174  0.1600  0.2353 -0.3784
 2939TIP3    H133012   5.837   7.231  15.135  0.2373 -0.5653 -2.0932
 2939TIP3    H233013   5.886   7.095  15.180  0.1759  0.3640  1.0647
 2940TIP3   OH233014   3.006   7.271  15.355 -0.8404  0.2212  0.1052
 2940TIP3    H133015   3.054   7.320  15.288  1.2396 -3.0197 -1.0477
 2940TIP3    H233016   2.925   7.244  15.311 -0.0134 -0.9139 -0.7812
 2941TIP3   OH233017   1.403   1.744  15.507  0.3773  0.4360  0.4575
 2941TIP3    H133018   1.379   1.729  15.415 -1.8865  1.5334  0.7959
 2941TIP3    H233019   1.395   1.658  15.548  3.3520 -0.4932 -0.6761
 2942TIP3   OH233020   0.678   7.019  14.567  0.2127 -0.4232  0.2347
 2942TIP3    H133021   0.599   6.991  14.521  1.3685 -1.2659 -1.3361
 2942TIP3    H233022   0.681   7.114  14.556  0.4002 -0.5928 -1.3657
 2943TIP3   OH233023   6.464   2.948  14.474  0.3816 -0.0031  0.7734
 2943TIP3    H133024   6.511   2.931  14.393  0.3401  2.1424  0.2384
 2943TIP3    H233025   6.399   2.877  14.480  0.3376 -0.1554 -1.0990
 2944TIP3   OH233026   6.860   2.759  16.038  0.1814  0.0761  0.2405
 2944TIP3    H133027   6.804   2.716  16.102  1.6837  0.1572  1.6495
 2944TIP3    H233028   6.923   2.692  16.011  0.9703  0.6638  0.5716
 2945TIP3   OH233029   2.868   6.578  15.049 -0.2866 -0.4809 -0.5015
 2945TIP3    H133030   2.821   6.599  15.130 -0.0123  0.9600 -0.6930
 2945TIP3    H233031   2.960   6.594  15.070  0.0709 -2.4615 -0.3886
 2946TIP3   OH233032   0.863   2.676  14.506 -0.1843  0.0644 -0.1771
 2946TIP3    H133033   0.839   2.634  14.588 -0.7697  0.9694  0.1266
 2946TIP3    H233034   0.899   2.761  14.532  0.3397  0.0507 -0.8201
 2947TIP3   OH233035   5.473   2.829  15.759 -0.6503  0.0759 -0.4915
 2947TIP3    H133036   5.521   2.750  15.732 -0.9469  0.1980 -1.4256
 2947TIP3    H233037   5.522   2.862  15.834 -0.0066 -0.5103 -0.6375
 2948TIP3   OH233038   2.192   4.487  15.672 -0.2833  0.2867 -0.1552
 2948TIP3    H133039   2.233   4.402  15.659  1.4934  1.2863 -1.4889
 2948TIP3    H233040   2.260   4.541  15.712 -1.3724  1.1124  0.6652
 2949TIP3   OH233041   3.608   2.457  15.139  0.0595  0.4363 -0.0757
 2949TIP3    H133042   3.523   2.457  15.095  0.6968 -1.9424 -1.4579
 2949TIP3    H233043   3.642   2.545  15.123 -0.5399  0.2761 -2.8910
 2950TIP3   OH233044   5.338   6.590  15.595 -0.0337 -0.0331 -0.3833
 2950TIP3    H133045   5.291   6.673  15.604  1.4414  0.9187 -0.9207
 2950TIP3    H233046   5.430   6.616  15.586  0.3787 -1.6766 -1.4630
 2951TIP3   OH233047   5.845   3.257  15.683  0.3807 -0.4560 -0.0414
 2951TIP3    H133048   5.764   3.297  15.651  0.0845 -0.4159  0.7478
 2951TIP3    H233049   5.893   3.330  15.723  0.5541 -0.5860 -0.0136
 2952TIP3   OH233050   2.169   1.786  15.116 -0.4492 -0.0007 -0.0326
 2952TIP3    H133051   2.127   1.703  15.139  1.2880 -0.8698  0.1845
 2952TIP3    H233052   2.164   1.837  15.196 -0.2918 -0.4395  0.2635
 2953TIP3   OH233053   0.510   3.877  14.688  0.1506 -0.7386 -0.0625
 2953TIP3    H133054   0.600   3.870  14.721  0.8044  0.0374 -1.5670
 2953TIP3    H233055   0.472   3.950  14.738  0.7864 -0.2314 -0.2976
 2954TIP3   OH233056   5.785   0.776  16.269  0.0592 -0.5906  0.0263
 2954TIP3    H133057   5.755   0.738  16.187 -0.6291 -1.1894  0.5385
 2954TIP3    H233058   5.742   0.724  16.337 -1.3613  1.4405  0.7679
 2955TIP3   OH233059   0.867   3.157  14.665 -0.0579 -0.3655  0.5201
 2955TIP3    H133060   0.812   3.184  14.591  0.4894  1.1696  0.6268
 2955TIP3    H233061   0.955   3.187  14.643  0.0739  0.3566  1.8838
 2956TIP3   OH233062   5.095   7.499  14.743  0.2681 -0.2063 -0.2018
 2956TIP3    H133063   5.070   7.448  14.821  1.1212  1.6600  1.3814
 2956TIP3    H233064   5.017   7.550  14.722  0.8686  1.4213  1.2697
 2957TIP3   OH233065   0.213   1.455  14.885 -0.0910  0.6394  0.4142
 2957TIP3    H133066   0.257   1.426  14.965 -0.2986 -0.5117  0.1266
 2957TIP3    H233067   0.236   1.388  14.820  0.0078  1.5180 -0.4723
 2958TIP3   OH233068   4.932   5.181  15.621  0.7610 -0.3022 -0.7985
 2958TIP3    H133069   4.839   5.201  15.610  0.8133 -0.1751 -1.0317
 2958TIP3    H233070   4.973   5.215  15.541  1.1916  0.7975 -0.1395
 2959TIP3   OH233071   8.431   4.371  15.392 -0.3971  0.0266 -0.8299
 2959TIP3    H133072   8.418   4.281  15.363 -1.8015 -0.3577  0.7868
 2959TIP3    H233073   8.510   4.368  15.446 -0.9115 -0.4450 -0.0841
 2960TIP3   OH233074   3.024   6.565  15.281 -0.0501 -0.3346 -0.3988
 2960TIP3    H133075   3.117   6.562  15.260  0.2751  1.9208  0.5023
 2960TIP3    H233076   3.006   6.479  15.320  2.3693  0.1030  2.0542
 2961TIP3   OH233077   5.301   5.589  15.258  0.4439 -0.1558  0.5536
 2961TIP3    H133078   5.321   5.526  15.189 -2.4241  0.2451 -0.7734
 2961TIP3    H233079   5.311   5.675  15.216 -1.0297  0.1019  0.6847
 2962TIP3   OH233080   2.817   2.692  14.426  0.1957 -0.0935  0.1743
 2962TIP3    H133081   2.772   2.741  14.495 -1.0370  1.1100 -1.4241
 2962TIP3    H233082   2.841   2.758  14.361 -0.2816 -1.4266 -1.4084
 2963TIP3   OH233083   2.310   0.377  15.591 -0.1196  0.0320 -0.4104
 2963TIP3    H133084   2.406   0.376  15.591 -0.0226  1.9212  0.9918
 2963TIP3    H233085   2.285   0.325  15.667 -0.1753 -0.0912 -0.5139
 2964TIP3   OH233086   3.137   1.833  15.126  0.0946  0.8694  0.0055
 2964TIP3    H133087   3.053   1.863  15.092 -1.1297 -2.1961 -0.0159
 2964TIP3    H233088   3.128   1.840  15.221 -1.3068 -1.8057  0.1590
 2965TIP3   OH233089   7.627   1.902  14.450  0.1320 -0.5427  0.0666
 2965TIP3    H133090   7.685   1.925  14.522  0.0885 -1.0214  0.2620
 2965TIP3    H233091   7.549   1.956  14.463 -1.0376 -2.5040  1.9785
 2966TIP3   OH233092   6.889   7.702  15.196  0.4020 -0.0073 -0.2715
 2966TIP3    H133093   6.975   7.741  15.214  0.5174 -0.7122  0.7876
 2966TIP3    H233094   6.898   7.611  15.223 -0.5716 -0.1813 -0.5116
 2967TIP3   OH233095   2.468   7.532  14.811  0.7555 -0.5156  0.3160
 2967TIP3    H133096   2.559   7.557  14.791  1.3672 -1.8040  1.3614
 2967TIP3    H233097   2.456   7.557  14.903 -0.8934  2.1393 -0.4910
 2968TIP3   OH233098   7.271   5.782  15.712  0.5496 -0.4105  0.3491
 2968TIP3    H133099   7.198   5.722  15.719  1.6285 -1.6208  1.8011
 2968TIP3    H233100   7.283   5.817  15.800  1.3089  0.2847 -0.0113
 2969TIP3   OH233101   1.905   5.270  15.608  0.2526 -0.1110  0.5174
 2969TIP3    H133102   1.977   5.209  15.592  0.8790  0.3687  1.3828
 2969TIP3    H233103   1.935   5.324  15.682 -1.0502  0.0031  1.0047
 2970TIP3   OH233104   7.359   6.137  15.867  0.1119  0.2950  0.7150
 2970TIP3    H133105   7.426   6.116  15.803 -1.1854  0.6632 -0.8381
 2970TIP3    H233106   7.356   6.060  15.925 -1.0376 -1.7088 -1.7870
 2971TIP3   OH233107   7.358   2.503  15.664  0.1232 -0.0385  0.2608
 2971TIP3    H133108   7.284   2.478  15.608 -1.2103  1.4208  1.2840
 2971TIP3    H233109   7.435   2.497  15.607 -0.9177 -0.6051 -1.1275
 2972TIP3   OH233110   2.624   1.583  15.701  0.2867  0.0092  1.2310
 2972TIP3    H133111   2.619   1.597  15.607  0.2700 -0.2392  1.1942
 2972TIP3    H233112   2.570   1.506  15.717  0.0931  0.1926  1.4760
 2973TIP3   OH233113   3.540   8.363  14.392 -0.3348 -0.3209 -0.3864
 2973TIP3    H133114   3.565   8.377  14.301 -1.1371 -1.2346 -0.7643
 2973TIP3    H233115   3.586   8.432  14.441 -0.2601  0.4648 -1.5288
 2974TIP3   OH233116   1.316   4.271  14.242  0.2324 -0.4450 -0.4993
 2974TIP3    H133117   1.306   4.226  14.326  0.0335  0.7248  0.1295
 2974TIP3    H233118   1.260   4.222  14.182 -2.5194  0.7564  0.8928
 2975TIP3   OH233119   1.805   5.008  15.014  0.4493  0.1147  0.3373
 2975TIP3    H133120   1.865   5.040  14.947 -0.1192  0.6168  0.0612
 2975TIP3    H233121   1.813   4.913  15.009 -0.1820  0.1159 -1.0043
 2976TIP3   OH233122   6.517   3.231  15.364  0.3837  0.0765 -0.1908
 2976TIP3    H133123   6.450   3.182  15.412 -0.3997  1.1015 -0.1845
 2976TIP3    H233124   6.469   3.305  15.326  1.4425  0.6040 -0.5404
 2977TIP3   OH233125   4.746   4.295  14.431  0.2804 -0.3462  0.5342
 2977TIP3    H133126   4.684   4.267  14.364  0.2637  1.6636 -0.3645
 2977TIP3    H233127   4.832   4.272  14.396  0.1739 -1.1175  0.7650
 2978TIP3   OH233128   1.946   1.855  14.704 -0.1465  0.5048 -0.4050
 2978TIP3    H133129   2.018   1.793  14.719 -0.7759  0.1643  1.5240
 2978TIP3    H233130   1.910   1.830  14.619  2.3995  1.1220 -1.7468
 2979TIP3   OH233131   7.467   4.882  15.321 -0.0511  0.1306 -0.2836
 2979TIP3    H133132   7.424   4.870  15.237 -1.5131  0.1133  0.4235
 2979TIP3    H233133   7.422   4.821  15.380 -0.2554  1.3699  0.8912
 2980TIP3   OH233134   4.322   1.325  15.785  0.9451 -0.6478  0.3884
 2980TIP3    H133135   4.245   1.318  15.842  0.7528 -0.6955  0.1265
 2980TIP3    H233136   4.346   1.234  15.767  0.2577 -0.6423 -0.6037
 2981TIP3   OH233137   0.825   4.467  15.794  0.2447  0.7141 -0.0225
 2981TIP3    H133138   0.888   4.482  15.723 -0.1585 -0.2912 -0.6233
 2981TIP3    H233139   0.875   4.422  15.862  0.3316  0.4931 -0.2300
 2982TIP3   OH233140   6.727   4.652  15.621  0.4191  0.5703 -0.0426
 2982TIP3    H133141   6.648   4.605  15.595  1.3298 -0.3697 -1.2606
 2982TIP3    H233142   6.710   4.743  15.598 -0.7945  0.6091  0.9373
 2983TIP3   OH233143   7.818   1.253  15.917 -0.2748  0.6551 -0.0382
 2983TIP3    H133144   7.855   1.278  15.832 -0.5205 -0.2490 -0.4151
 2983TIP3    H233145   7.773   1.332  15.946  0.1242  1.0930 -0.5741
 2984TIP3   OH233146   0.587   3.071  15.641  0.2218  0.6552 -0.0512
 2984TIP3    H133147   0.636   3.029  15.571  1.4944 -1.6249  2.0383
 2984TIP3    H233148   0.496   3.070  15.611  0.7983  0.3405 -1.8974
 2985TIP3   OH233149   2.224   1.519  13.704  0.2500 -0.3499  0.3322
 2985TIP3    H133150   2.277   1.564  13.770  0.4574 -0.8115  0.4836
 2985TIP3    H233151   2.283   1.455  13.665  0.3796  0.4980 -0.9070
 2986TIP3   OH233152   0.843   0.097  15.495  0.4489 -0.1416  0.4556
 2986TIP3    H133153   0.927   0.141  15.511 -0.3673  1.4936  0.4642
 2986TIP3    H233154   0.835   0.034  15.567  1.3643  0.1728  0.8472
 2987TIP3   OH233155   2.487   6.850  15.767  0.2201 -0.1038 -0.0807
 2987TIP3    H133156   2.539   6.920  15.806  0.5075 -1.0290  1.2707
 2987TIP3    H233157   2.410   6.894  15.732  1.0996  1.0726 -0.6091
 2988TIP3   OH233158   7.553   5.784  15.220  0.2096 -0.4608 -0.1819
 2988TIP3    H133159   7.524   5.818  15.136 -0.2392  0.7004  0.4143
 2988TIP3    H233160   7.505   5.702  15.231  0.6994 -0.9075 -1.2952
 2989TIP3   OH233161   1.073   6.785  15.664  1.1784  0.2917  1.0949
 2989TIP3    H133162   1.168   6.800  15.666  1.2106  0.8738 -1.5503
 2989TIP3    H233163   1.064   6.691  15.653  1.6841  0.5308 -2.5564
 2990TIP3   OH233164   0.799   5.294  15.789 -0.2610  0.0980  0.2766
 2990TIP3    H133165   0.793   5.205  15.821  0.3056 -0.1040 -0.1668
 2990TIP3    H233166   0.738   5.296  15.714 -0.6381  0.2207  0.5850
 2991TIP3   OH233167   5.060   7.387  13.684 -0.1277 -0.4281  0.0214
 2991TIP3    H133168   5.114   7.354  13.756  0.9697  1.1456 -0.0344
 2991TIP3    H233169   5.023   7.469  13.717  2.0880  1.4519 -1.8515
 2992TIP3   OH233170   6.351   2.097  14.091  1.1582  0.1639  0.1371
 2992TIP3    H133171   6.324   2.005  14.081 -0.3674  0.3315  2.1789
 2992TIP3    H233172   6.301   2.143  14.023 -1.2327 -0.0297  1.6355
 2993TIP3   OH233173   0.745   4.610  14.573 -0.3110  0.6912 -0.0264
 2993TIP3    H133174   0.811   4.608  14.642  1.3101  2.1918 -1.3936
 2993TIP3    H233175   0.662   4.620  14.618  0.7127  1.8178  1.7194
 2994TIP3   OH233176   3.300   4.533  14.479  0.4915 -0.0452  0.1522
 2994TIP3    H133177   3.375   4.486  14.445 -0.4544 -0.7266 -1.0997
 2994TIP3    H233178   3.232   4.521  14.412  0.1225  2.9253 -0.1749
 2995TIP3   OH233179   0.677   4.190  15.804  0.2249 -0.6123  0.3587
 2995TIP3    H133180   0.716   4.274  15.831  0.7520 -0.5742 -0.4740
 2995TIP3    H233181   0.583   4.207  15.802  0.3679  0.1648 -0.4335
 2996TIP3   OH233182   7.892   2.906  15.780 -0.3513  0.9650 -0.2165
 2996TIP3    H133183   7.946   2.910  15.859 -0.5256  0.3055 -0.0639
 2996TIP3    H233184   7.914   2.986  15.732 -0.1197  1.2848  0.4172
 2997TIP3   OH233185   6.173   3.290  13.729  0.4423  0.2769 -0.0333
 2997TIP3    H133186   6.135   3.255  13.648  0.2601 -0.4871  0.3746
 2997TIP3    H233187   6.100   3.295  13.790  0.6213  0.6403  0.1503
 2998TIP3   OH233188   5.717   0.664  14.672 -0.3823 -0.3508  0.1644
 2998TIP3    H133189   5.643   0.724  14.668 -0.5786 -0.5287  0.9831
 2998TIP3    H233190   5.737   0.645  14.581 -0.5577  0.6642 -0.1007
 2999TIP3   OH233191   1.052   2.258  15.448 -1.0141 -0.2695 -0.3287
 2999TIP3    H133192   1.028   2.286  15.536 -0.1422  0.8065 -0.4198
 2999TIP3    H233193   1.131   2.206  15.459 -1.5823 -1.1731 -0.3671
 3000TIP3   OH233194   5.535   6.743  13.680 -0.7188 -0.0463  0.0807
 3000TIP3    H133195   5.528   6.783  13.593  1.6726  2.8427  1.0344
 3000TIP3    H233196   5.487   6.803  13.738 -2.7203 -2.2002  0.7567
 3001TIP3   OH233197   2.470   7.770  15.662  0.7439  0.2142  0.1048
 3001TIP3    H133198   2.527   7.754  15.737 -2.5578 -0.5924  2.6854
 3001TIP3    H233199   2.383   7.746  15.693 -1.0097  1.0048 -3.6709
 3002TIP3   OH233200   4.855   7.599  14.662  0.0127 -0.2825 -0.5828
 3002TIP3    H133201   4.871   7.612  14.569  1.0139  1.5019 -0.2146
 3002TIP3    H233202   4.784   7.659  14.683 -1.3546 -1.8690 -0.4782
 3003TIP3   OH233203   1.108   2.560  14.263 -1.0424  0.2467  0.2933
 3003TIP3    H133204   1.137   2.527  14.348  0.3203 -1.2217 -0.6788
 3003TIP3    H233205   1.062   2.486  14.223  0.7747 -0.0819 -1.3419
 3004TIP3   OH233206   4.059   4.376  15.173 -0.1787 -0.3114 -0.1334
 3004TIP3    H133207   4.055   4.436  15.247  0.3803 -0.1720 -0.2134
 3004TIP3    H233208   4.043   4.431  15.096  0.5500 -0.2175 -0.2255
 3005TIP3   OH233209   3.024   4.985  15.387 -0.0333 -0.3100 -0.1452
 3005TIP3    H133210   2.948   5.042  15.370 -3.7374 -3.4908  3.4571
 3005TIP3    H233211   3.016   4.915  15.322 -1.8465 -1.8421  1.5745
 3006TIP3   OH233212   5.533   7.126  15.193 -0.1058 -0.3936 -0.2659
 3006TIP3    H133213   5.530   7.051  15.133 -1.5313 -0.8931  0.3824
 3006TIP3    H233214   5.622   7.160  15.184 -0.7203  0.6901 -4.0207
 3007TIP3   OH233215   3.583   2.064  15.674 -0.0422 -0.0602  0.7355
 3007TIP3    H133216   3.648   2.133  15.689  1.7461 -1.6493  0.6935
 3007TIP3    H233217   3.634   1.989  15.642 -2.1393 -0.8068 -1.1678
 3008TIP3   OH233218   6.393   2.497  15.654 -0.0836 -0.1448  0.1412
 3008TIP3    H133219   6.449   2.574  15.652  0.2796 -0.3948  0.5783
 3008TIP3    H233220   6.400   2.463  15.743 -2.4649  0.9367  0.8298
 3009TIP3   OH233221   0.270   2.345  14.418 -0.0502  0.6004  0.1072
 3009TIP3    H133222   0.275   2.406  14.492  0.9675  1.9241 -1.0177
 3009TIP3    H233223   0.360   2.316  14.405 -0.0183  1.2756 -1.3264
 3010TIP3   OH233224   1.126   3.371  15.669  0.0423  0.1028 -0.0887
 3010TIP3    H133225   1.070   3.424  15.726 -1.2879 -1.3408  0.0569
 3010TIP3    H233226   1.181   3.434  15.623 -0.9250  1.5287  0.6145
 3011TIP3   OH233227   0.490   1.631  15.032  0.0067 -0.0476  1.1923
 3011TIP3    H133228   0.399   1.635  15.064 -0.4361 -1.3096  0.1549
 3011TIP3    H233229   0.503   1.716  14.989 -0.5738  0.2667  1.6163
 3012TIP3   OH233230   4.276   4.927  15.638  0.3495 -0.3916  0.0308
 3012TIP3    H133231   4.314   4.859  15.693 -1.0328 -2.1574 -1.0772
 3012TIP3    H233232   4.200   4.958  15.687 -0.9450 -2.0407 -0.8128
 3013TIP3   OH233233   7.144   4.656  14.948  0.7158  0.5130  0.6155
 3013TIP3    H133234   7.050   4.661  14.928  0.5006 -1.4676  0.9681
 3013TIP3    H233235   7.184   4.720  14.889 -0.8132  1.1766  0.2457
 3014TIP3   OH233236   4.376   1.252  14.274  0.1427  0.1005  0.3875
 3014TIP3    H133237   4.358   1.178  14.331  0.7785 -0.5149 -0.1812
 3014TIP3    H233238   4.382   1.213  14.186 -1.4122  1.0974 -0.2060
 3015TIP3   OH233239   4.522   4.430  15.416  0.1198 -0.6227  0.5366
 3015TIP3    H133240   4.520   4.498  15.483 -0.1831  0.4683 -0.5382
 3015TIP3    H233241   4.614   4.405  15.408  0.9297  2.5024 -1.7498
 3016TIP3   OH233242   7.036   6.252  14.103  0.3148  0.2605  0.4705
 3016TIP3    H133243   7.000   6.312  14.038  1.2018 -0.3931 -0.6530
 3016TIP3    H233244   7.129   6.248  14.084  0.7285  0.5374  2.2022
 3017TIP3   OH233245   2.776   4.598  14.117  0.2200 -0.7473  0.0728
 3017TIP3    H133246   2.708   4.664  14.111  0.2682 -0.6936  0.1201
 3017TIP3    H233247   2.837   4.619  14.046 -0.9626 -2.1125 -1.4264
 3018TIP3   OH233248   0.845   7.648  15.338  0.0892 -0.3162 -0.2318
 3018TIP3    H133249   0.895   7.607  15.410  0.2451  0.0918 -0.1077
 3018TIP3    H233250   0.799   7.575  15.297  0.3622 -0.6207 -0.0043
 3019TIP3   OH233251   6.217   6.204  14.397 -0.8010 -0.0164  0.3716
 3019TIP3    H133252   6.285   6.234  14.457 -1.3067  1.9759  0.0306
 3019TIP3    H233253   6.241   6.242  14.313 -0.2970 -2.4661 -0.6719
 3020TIP3   OH233254   7.843   5.456  15.006  0.6325 -0.6718  0.3943
 3020TIP3    H133255   7.861   5.526  14.943 -1.0436 -1.9918 -1.7081
 3020TIP3    H233256   7.765   5.412  14.971  0.2029 -2.1135  2.9098
 3021TIP3   OH233257   0.368   0.076  15.139  0.1965  0.7769 -0.5452
 3021TIP3    H133258   0.456   0.049  15.165  0.0348  0.1597 -0.6134
 3021TIP3    H233259   0.353   0.158  15.185  1.2803  1.5378 -1.5031
 3022TIP3   OH233260   6.858   1.339  15.374 -0.5041  0.2592 -0.1458
 3022TIP3    H133261   6.917   1.395  15.425  0.2059  0.9411 -1.6523
 3022TIP3    H233262   6.905   1.255  15.369 -0.6206  0.1586  0.3869
 3023TIP3   OH233263   0.898   7.789  15.052 -0.3340 -0.1885  0.6163
 3023TIP3    H133264   0.944   7.747  15.125  0.1934  1.9214  1.5612
 3023TIP3    H233265   0.805   7.785  15.076 -0.3893 -1.6076  0.2363
 3024TIP3   OH233266   1.322   7.240  16.040  0.2828 -0.3955 -0.0057
 3024TIP3    H133267   1.251   7.229  16.104  0.0430 -1.3665 -0.4307
 3024TIP3    H233268   1.305   7.326  16.000  0.3849  0.1856  1.1582
 3025TIP3   OH233269   7.899   1.717  14.084 -0.0283  0.3226  0.0516
 3025TIP3    H133270   7.904   1.799  14.132 -0.7914 -0.4499  1.5215
 3025TIP3    H233271   7.986   1.707  14.044  0.8436  0.7307  1.7646
 3026TIP3   OH233272   5.725   7.189  15.652 -0.1549 -0.6336  0.1413
 3026TIP3    H133273   5.683   7.198  15.737  0.0127  1.7533  0.0306
 3026TIP3    H233274   5.697   7.103  15.620 -1.0760 -1.1101  2.1177
 3027TIP3   OH233275   1.992   3.885  15.198 -0.0605  0.0664 -0.6881
 3027TIP3    H133276   2.029   3.969  15.170 -1.7912  1.1827  0.1496
 3027TIP3    H233277   1.938   3.857  15.124 -0.6712  0.4766 -0.4069
 3028TIP3   OH233278   6.579   5.547  16.013 -0.3073 -0.8308  0.0509
 3028TIP3    H133279   6.500   5.571  16.061 -0.2046 -1.3786  0.5111
 3028TIP3    H233280   6.552   5.473  15.958 -0.0836 -1.1335  0.3374
 3029TIP3   OH233281   6.529   4.014  14.393 -0.1421 -0.5657 -0.6229
 3029TIP3    H133282   6.473   4.082  14.355  1.9132  1.1591 -0.7882
 3029TIP3    H233283   6.551   3.957  14.319 -1.8890 -1.4900 -0.4841
 3030TIP3   OH233284   6.985   6.622  15.508 -0.1647  0.2496  0.3167
 3030TIP3    H133285   7.035   6.540  15.507 -0.8879 -0.2244 -1.5761
 3030TIP3    H233286   7.039   6.682  15.558  0.9323 -1.0545  0.7744
 3031TIP3   OH233287   7.646   7.410  15.991 -0.4631 -0.1423 -0.2817
 3031TIP3    H133288   7.686   7.490  16.027 -0.1180 -0.4031 -0.0773
 3031TIP3    H233289   7.607   7.439  15.909 -0.0877  0.1827 -0.3541
 3032TIP3   OH233290   4.784   2.033  14.192 -0.8109 -0.2220 -0.2000
 3032TIP3    H133291   4.860   2.065  14.240 -2.2073  1.4513  1.0472
 3032TIP3    H233292   4.715   2.097  14.211 -2.0892 -0.7327 -2.6284
 3033TIP3   OH233293   4.291   5.473  15.716 -0.2307 -0.2803  0.9888
 3033TIP3    H133294   4.333   5.557  15.732 -2.1828  1.0421 -0.3314
 3033TIP3    H233295   4.206   5.496  15.679 -1.0867 -2.8460  1.1754
 3034TIP3   OH233296   7.323   1.904  15.366  0.1052 -0.1574 -0.4673
 3034TIP3    H133297   7.327   1.999  15.357  2.2939 -0.2092 -0.4968
 3034TIP3    H233298   7.352   1.870  15.282  2.4748 -0.7755  0.5233
 3035TIP3   OH233299   2.796   4.982  15.025 -0.0361  0.3735 -0.1727
 3035TIP3    H133300   2.776   4.926  15.100 -0.0678 -0.0089 -0.4601
 3035TIP3    H233301   2.714   5.027  15.006 -0.2265 -0.0808 -0.4320
 3036TIP3   OH233302   0.389   2.498  15.663  0.1294 -0.3381  0.3248
 3036TIP3    H133303   0.481   2.490  15.688 -0.2924 -0.4645  1.9674
 3036TIP3    H233304   0.365   2.587  15.688 -0.4177 -0.5983  0.7572
 3037TIP3   OH233305   6.632   1.612  16.053  0.0724  0.0387  0.0781
 3037TIP3    H133306   6.610   1.611  15.960  0.7902  0.6012 -0.1117
 3037TIP3    H233307   6.584   1.538  16.090 -1.5743  0.8200 -0.4105
 3038TIP3   OH233308   6.428   6.512  14.780 -0.6353  0.0412  0.0751
 3038TIP3    H133309   6.497   6.489  14.842 -0.6535 -0.6363 -0.1446
 3038TIP3    H233310   6.361   6.555  14.833 -0.8009 -0.8240  0.5851
 3039TIP3   OH233311   7.683   1.563  15.430  0.1633  0.0927  0.5828
 3039TIP3    H133312   7.607   1.539  15.377  0.3858 -0.0714  0.3310
 3039TIP3    H233313   7.721   1.480  15.456  2.3024  0.0352 -2.2605
 3040TIP3   OH233314   7.778   0.454  15.543  0.5053  0.0978 -0.0621
 3040TIP3    H133315   7.840   0.505  15.490  0.6008 -1.1413 -1.1922
 3040TIP3    H233316   7.831   0.420  15.615  0.4178  1.6351  0.7690
 3041TIP3   OH233317   1.095   4.502  15.979  0.1212  0.6247  0.2964
 3041TIP3    H133318   1.072   4.412  15.954 -0.0984  0.4382  1.1395
 3041TIP3    H233319   1.013   4.551  15.970  0.2558  0.7627 -0.2248
 3042TIP3   OH233320   1.637   6.989  15.057  0.1171  0.2083 -0.0855
 3042TIP3    H133321   1.593   6.922  15.004 -0.0472 -0.3795  0.7681
 3042TIP3    H233322   1.572   7.059  15.066  0.2236  0.4052 -0.8321
 3043TIP3   OH233323   6.190   5.992  15.500  0.4987 -0.1052 -0.2957
 3043TIP3    H133324   6.223   6.070  15.544  0.6387  0.0291 -0.6355
 3043TIP3    H233325   6.190   6.015  15.407  0.0568 -0.3295 -0.3524
 3044TIP3   OH233326   1.083   0.039  14.240 -0.2542 -0.1926 -0.2104
 3044TIP3    H133327   1.107   0.097  14.168  0.7326 -0.9142 -0.4967
 3044TIP3    H233328   1.085   0.095  14.318  1.2452  0.0644 -0.3954
 3045TIP3   OH233329   5.930   0.324  14.348  0.0097 -0.4931 -0.0714
 3045TIP3    H133330   5.984   0.397  14.319  0.2239 -0.1181  1.2322
 3045TIP3    H233331   5.850   0.330  14.295 -0.2765  1.1183  0.4957
 3046TIP3   OH233332   3.015   1.371  15.671 -0.6418 -0.2612  0.0768
 3046TIP3    H133333   3.107   1.393  15.690 -0.7650  0.3656 -0.0224
 3046TIP3    H233334   2.969   1.455  15.676 -1.2530 -0.6043  0.3555
 3047TIP3   OH233335   7.403   6.026  15.347  0.3621  0.4964  0.0760
 3047TIP3    H133336   7.468   5.959  15.326 -2.2533 -2.1753 -0.2031
 3047TIP3    H233337   7.380   6.064  15.262  0.3818  0.2337 -0.0488
 3048TIP3   OH233338   7.163   1.059  14.484 -0.0225  0.2677  0.0572
 3048TIP3    H133339   7.203   1.114  14.417  0.1278  0.6287  0.4378
 3048TIP3    H233340   7.226   1.059  14.556 -0.0481 -0.3583  0.0854
 3049TIP3   OH233341   6.457   4.679  15.801 -0.7902 -0.1287  0.4904
 3049TIP3    H133342   6.444   4.620  15.726 -0.7093  1.8900 -1.2039
 3049TIP3    H233343   6.379   4.665  15.856 -2.0785  0.0053 -1.2023
 3050TIP3   OH233344   6.740   3.326  14.516  0.0503  0.2452  0.2151
 3050TIP3    H133345   6.775   3.280  14.440 -0.2021 -1.6762  1.1986
 3050TIP3    H233346   6.804   3.309  14.585 -0.2380  1.0888  0.6928
 3051TIP3   OH233347   6.199   6.076  13.459  0.0122 -0.3288 -0.0175
 3051TIP3    H133348   6.126   6.137  13.463  0.8117  0.6074  0.7451
 3051TIP3    H233349   6.162   5.996  13.422 -0.9924  0.6991 -1.3251
 3052TIP3   OH233350   6.824   7.248  14.506  0.5367  0.1170 -0.6373
 3052TIP3    H133351   6.751   7.186  14.506  0.3623  0.3224 -0.0140
 3052TIP3    H233352   6.882   7.217  14.575 -0.1053  1.2907  0.4606
 3053TIP3   OH233353   3.426   2.084  13.626 -0.5193 -0.2183  0.4062
 3053TIP3    H133354   3.477   2.015  13.584 -0.3263  0.4647 -0.5188
 3053TIP3    H233355   3.344   2.042  13.651 -0.7559 -0.5978 -0.9250
 3054TIP3   OH233356   5.186   6.853  15.920  0.9313  0.2773 -0.2360
 3054TIP3    H133357   5.196   6.935  15.872  0.6844  0.7695  0.5333
 3054TIP3    H233358   5.275   6.826  15.941  1.0047  0.4297 -0.3538
 3055TIP3   OH233359   0.910   2.935  16.456 -0.2989  1.0593  0.0254
 3055TIP3    H133360   0.921   3.027  16.481  0.6656  1.0648 -0.3802
 3055TIP3    H233361   0.974   2.922  16.386 -1.1692  0.3634 -0.6662
 3056TIP3   OH233362   2.954   2.886  14.168  0.4213 -0.6646  0.0437
 3056TIP3    H133363   3.047   2.895  14.186  0.8408 -0.8780 -1.7998
 3056TIP3    H233364   2.943   2.921  14.079 -1.5371  0.8182  0.7744
 3057TIP3   OH233365   1.841   7.919  15.319  0.0742 -0.2535 -0.5224
 3057TIP3    H133366   1.865   8.012  15.316 -1.6943  0.2941  0.6830
 3057TIP3    H233367   1.890   7.880  15.247  1.9405  1.3321 -0.2258
 3058TIP3   OH233368   2.782   1.795  15.996  0.5506 -0.2912  0.2297
 3058TIP3    H133369   2.855   1.732  16.004  1.2758  0.6870  1.7469
 3058TIP3    H233370   2.718   1.765  16.060  0.2676 -0.2781 -0.0445
 3059TIP3   OH233371   3.092   4.452  14.314  0.7089  0.1936 -0.1334
 3059TIP3    H133372   3.118   4.446  14.222  1.1652  0.6564 -0.0375
 3059TIP3    H233373   2.996   4.459  14.311  0.7512  0.6686 -0.5973
 3060TIP3   OH233374   6.080   4.643  14.146 -0.3673  0.6008 -0.3849
 3060TIP3    H133375   6.092   4.666  14.054 -0.2179 -0.9650 -0.7900
 3060TIP3    H233376   6.137   4.568  14.159  3.2427  3.4525  2.2316
 3061TIP3   OH233377   1.507   0.859  15.968  0.5299  0.4318  0.1831
 3061TIP3    H133378   1.467   0.854  16.054 -0.0694  1.3822 -0.0270
 3061TIP3    H233379   1.446   0.813  15.910  0.9159 -0.1777  0.2495
 3062TIP3   OH233380   1.566   6.046  14.790  0.2367  0.2492 -0.0685
 3062TIP3    H133381   1.613   5.998  14.723 -0.6282 -1.6626  0.5976
 3062TIP3    H233382   1.491   6.084  14.745  0.5522  0.3638 -0.4914
 3063TIP3   OH233383   0.420   1.799  15.941 -0.1835 -0.2268 -1.0100
 3063TIP3    H133384   0.509   1.828  15.960 -0.0185 -0.5433 -1.2980
 3063TIP3    H233385   0.368   1.834  16.013  0.4588 -1.5222  0.1428
 3064TIP3   OH233386   0.899   5.650  15.422 -0.1467 -0.7271 -0.1514
 3064TIP3    H133387   0.826   5.710  15.403 -0.3996 -0.7806  0.6126
 3064TIP3    H233388   0.914   5.660  15.516 -0.4221 -2.1105  0.0601
 3065TIP3   OH233389   6.905   3.794  15.792  0.0990 -0.0460 -0.3466
 3065TIP3    H133390   6.890   3.828  15.880  0.6990  0.0931 -0.2909
 3065TIP3    H233391   6.960   3.717  15.806 -0.4722 -0.4949 -0.5424
 3066TIP3   OH233392   2.201   5.281  16.012 -0.1129  0.1074 -1.0017
 3066TIP3    H133393   2.248   5.273  15.929  1.7462 -1.3421  0.0918
 3066TIP3    H233394   2.232   5.363  16.049  1.6064 -0.7875 -0.3373
 3067TIP3   OH233395   5.310   0.970  15.121 -0.0330 -0.6264 -0.2334
 3067TIP3    H133396   5.347   1.010  15.042  1.1464  0.3861  0.8023
 3067TIP3    H233397   5.374   0.988  15.189 -1.9509  0.3093  1.4185
 3068TIP3   OH233398   7.116   6.490  14.612 -0.2413 -0.2759 -0.2482
 3068TIP3    H133399   7.080   6.433  14.544  0.7191 -2.9068  1.2908
 3068TIP3    H233400   7.137   6.430  14.684  0.3478  2.1519  1.7181
 3069TIP3   OH233401   4.568   0.516  14.204  0.5359 -0.0220 -0.1434
 3069TIP3    H133402   4.636   0.551  14.145  0.9847 -0.3295  0.1861
 3069TIP3    H233403   4.541   0.591  14.257  0.2917  0.2054 -0.5847
 3070TIP3   OH233404   7.604   1.708  14.043  0.6766  0.0448 -0.4331
 3070TIP3    H133405   7.545   1.783  14.039 -0.7023 -0.9542  0.3023
 3070TIP3    H233406   7.690   1.747  14.059 -0.2071  1.4395  1.4777
 3071TIP3   OH233407   3.102   2.945  16.086 -0.5389  0.1121  0.4762
 3071TIP3    H133408   3.029   2.918  16.142 -0.2221  0.2812  0.9748
 3071TIP3    H233409   3.094   2.889  16.008 -1.2076  0.1430  0.5158
 3072TIP3   OH233410   2.617   4.863  15.704 -0.3979 -0.5457  0.7858
 3072TIP3    H133411   2.614   4.952  15.669  0.4158 -0.1141  1.7538
 3072TIP3    H233412   2.528   4.847  15.736 -0.8630 -0.5460 -0.4388
 3073TIP3   OH233413   2.710   7.152  14.445  0.1816  0.3758  0.5943
 3073TIP3    H133414   2.731   7.223  14.506  2.7576  2.0117 -1.9356
 3073TIP3    H233415   2.794   7.129  14.405 -0.9636 -2.5114 -0.4288
 3074TIP3   OH233416   5.121   7.715  14.019  0.0955  0.0363  0.0252
 3074TIP3    H133417   5.091   7.664  13.943  1.3442  1.8646 -1.7962
 3074TIP3    H233418   5.114   7.806  13.991  1.8341  0.7201  1.6319
 3075TIP3   OH233419   7.387   5.475  15.895  0.4042  0.3038 -0.1227
 3075TIP3    H133420   7.430   5.415  15.957  1.5375  0.1470 -1.0324
 3075TIP3    H233421   7.446   5.550  15.889  1.4706 -0.6389 -2.6590
 3076TIP3   OH233422   1.776   7.511  15.347 -0.2819  0.4466 -0.1365
 3076TIP3    H133423   1.858   7.463  15.346 -0.6314 -0.1929  0.2772
 3076TIP3    H233424   1.741   7.502  15.259 -1.0442 -1.3677  0.2890
 3077TIP3   OH233425   5.758   4.837  16.148 -0.5019 -0.2405 -0.1396
 3077TIP3    H133426   5.691   4.877  16.204  0.8531  0.7983  0.8262
 3077TIP3    H233427   5.709   4.797  16.076 -2.1031  1.5015 -0.1101
 3078TIP3   OH233428   3.606   7.884  14.108  0.2248  0.4342  0.2686
 3078TIP3    H133429   3.664   7.872  14.183  0.7173  0.1817 -0.1426
 3078TIP3    H233430   3.649   7.836  14.037 -0.5726  0.1206 -0.0059
 3079TIP3   OH233431   5.521   6.334  14.585  0.3858  0.5039  0.7435
 3079TIP3    H133432   5.531   6.240  14.603 -0.4242  0.0118 -1.1288
 3079TIP3    H233433   5.427   6.346  14.576  0.5944  1.0980 -0.9055
 3080TIP3   OH233434   8.381   5.554  14.175  0.0707 -0.1774  0.5841
 3080TIP3    H133435   8.410   5.468  14.205  1.8480 -0.3859 -1.4437
 3080TIP3    H233436   8.460   5.595  14.140 -1.2062  1.2865 -0.7642
 3081TIP3   OH233437   2.570   1.820  13.934  0.2032  0.6706  0.0593
 3081TIP3    H133438   2.614   1.888  13.883  0.7426  1.3107  1.3257
 3081TIP3    H233439   2.640   1.759  13.958 -0.0577  0.3335 -0.0346
 3082TIP3   OH233440   7.325   5.822  14.241 -0.3140  0.4312  0.0204
 3082TIP3    H133441   7.241   5.867  14.246  0.2363  1.5076 -0.2689
 3082TIP3    H233442   7.348   5.804  14.332 -1.1119 -0.3842  0.0787
 3083TIP3   OH233443   5.989   0.080  14.442  0.1892 -0.2872 -0.2365
 3083TIP3    H133444   5.943   0.164  14.431  2.0895  0.7150 -1.0114
 3083TIP3    H233445   6.001   0.047  14.353  0.4114 -0.8376 -0.0087
 3084TIP3   OH233446   1.112   1.416  14.582 -0.1500 -0.3334  0.3822
 3084TIP3    H133447   1.033   1.366  14.603 -0.6613  0.0564 -0.5234
 3084TIP3    H233448   1.136   1.387  14.494 -0.7257  1.3031 -0.3556
 3085TIP3   OH233449   1.073   8.319  14.927  0.6902  0.1922 -0.0317
 3085TIP3    H133450   1.042   8.258  14.860  1.4040  0.7046 -0.8451
 3085TIP3    H233451   0.996   8.337  14.981  0.3712 -1.0980 -0.0201
 3086TIP3   OH233452   6.456   5.286  15.564  0.0440 -0.1145  0.4949
 3086TIP3    H133453   6.493   5.303  15.477  1.8458 -0.9315  1.0608
 3086TIP3    H233454   6.465   5.192  15.575  0.4323  0.0650  1.8194
 3087TIP3   OH233455   8.140   1.273  16.199  0.2739 -0.2753 -0.1543
 3087TIP3    H133456   8.078   1.280  16.272  0.3738  0.0760 -0.1001
 3087TIP3    H233457   8.121   1.187  16.159  2.2230 -1.8665  2.0982
 3088TIP3   OH233458   8.345   1.425  14.894 -0.0221 -0.4866  0.0517
 3088TIP3    H133459   8.438   1.448  14.895 -0.3012  0.7733 -0.9087
 3088TIP3    H233460   8.344   1.332  14.870  0.9217  0.4314 -4.5028
 3089TIP3   OH233461   1.277   4.611  14.469 -0.2286  0.2738  0.2235
 3089TIP3    H133462   1.208   4.545  14.462  1.0521 -1.0723 -0.3110
 3089TIP3    H233463   1.309   4.603  14.559  0.9964 -1.0354 -0.2755
 3090TIP3   OH233464   2.126   3.775  13.834 -0.0382 -0.2158  0.2103
 3090TIP3    H133465   2.035   3.751  13.812 -0.1599  0.5239 -0.1089
 3090TIP3    H233466   2.179   3.721  13.776 -0.2851 -0.3510  0.1056
 3091TIP3   OH233467   6.687   6.400  13.911  0.0563  0.0189  0.0032
 3091TIP3    H133468   6.674   6.334  13.843  1.1713  0.0012 -0.2115
 3091TIP3    H233469   6.628   6.471  13.887  0.2617 -0.0900 -0.8579
 3092TIP3   OH233470   4.454   0.758  15.880  0.2344 -0.5885 -0.5365
 3092TIP3    H133471   4.363   0.785  15.878  0.0540 -1.1757 -0.4683
 3092TIP3    H233472   4.462   0.703  15.958  0.9454  0.4846  0.1683
 3093TIP3   OH233473   6.955   6.441  14.312  0.1141  0.0271 -0.6484
 3093TIP3    H133474   6.965   6.367  14.252  2.3228  0.7307 -1.2355
 3093TIP3    H233475   6.942   6.400  14.398  1.2170 -1.0811 -0.9768
 3094TIP3   OH233476   0.020   8.252  14.796  0.4944 -0.2398 -0.2280
 3094TIP3    H133477   0.101   8.256  14.745  0.8316 -0.4382  0.2836
 3094TIP3    H233478   0.048   8.226  14.883 -0.0328  0.4815  0.1698
 3095TIP3   OH233479   5.161   5.809  14.639  0.2251 -0.8841 -0.1030
 3095TIP3    H133480   5.114   5.755  14.704 -0.1322  1.0952  1.3858
 3095TIP3    H233481   5.110   5.799  14.559  0.2985 -2.8920  0.0550
 3096TIP3   OH233482   2.224   1.938  14.441 -0.7614  0.2183  0.3872
 3096TIP3    H133483   2.158   1.995  14.401  0.3097  2.3941  1.5830
 3096TIP3    H233484   2.251   1.984  14.520  1.4435 -1.1157  0.4785
 3097TIP3   OH233485   7.817   0.649  16.383  0.3982 -0.0049  0.5875
 3097TIP3    H133486   7.837   0.685  16.470  3.2598 -1.2002  0.5161
 3097TIP3    H233487   7.886   0.683  16.327 -2.2062  1.9563 -1.7129
 3098TIP3   OH233488   1.630   7.429  14.519  0.4266  0.2830  0.8291
 3098TIP3    H133489   1.567   7.497  14.546 -1.3095 -0.6679 -0.5640
 3098TIP3    H233490   1.693   7.424  14.591 -1.8539  0.3767  2.9841
 3099TIP3   OH233491   7.098   6.743  14.730 -0.9279 -0.1840 -0.4912
 3099TIP3    H133492   7.117   6.808  14.663  1.9488 -0.4951 -0.1057
 3099TIP3    H233493   7.094   6.660  14.682  0.2780 -0.2985 -0.4207
 3100TIP3   OH233494   6.142   2.353  16.228 -0.1898 -0.4864 -0.2464
 3100TIP3    H133495   6.051   2.350  16.198  0.0608 -1.5548 -0.9182
 3100TIP3    H233496   6.188   2.290  16.174  0.8293 -0.4615  0.5580
 3101TIP3   OH233497   5.918   6.187  14.154 -0.5060  0.4521 -0.4025
 3101TIP3    H133498   6.002   6.165  14.113 -1.5163 -1.9430 -1.3229
 3101TIP3    H233499   5.867   6.226  14.083 -0.5181  1.0385 -0.0788
 3102TIP3   OH233500   3.339   4.637  15.198 -0.4693 -0.2666 -0.0660
 3102TIP3    H133501   3.289   4.614  15.120 -0.5943 -1.6655  0.3917
 3102TIP3    H233502   3.307   4.577  15.266  1.7074 -1.1568  0.2705
 3103TIP3   OH233503   1.221   4.064  15.733  0.6871 -0.4561 -0.3995
 3103TIP3    H133504   1.130   4.068  15.762  0.3853 -1.4502 -1.1783
 3103TIP3    H233505   1.217   4.084  15.640  1.0885 -1.8442 -0.7352
 3104TIP3   OH233506   6.900   7.406  15.164  0.6479  0.0437 -0.3886
 3104TIP3    H133507   6.936   7.318  15.162 -1.2450 -0.7695 -1.8837
 3104TIP3    H233508   6.900   7.434  15.072 -0.3197  0.9143 -0.1424
 3105TIP3   OH233509   2.972   3.394  14.574 -0.6123  0.2570  0.5143
 3105TIP3    H133510   2.905   3.330  14.551 -2.0795  1.9936 -0.3067
 3105TIP3    H233511   2.924   3.465  14.618  0.7831  1.2529  0.5228
 3106TIP3   OH233512   2.059   4.957  13.803  0.4778  0.1456 -0.4258
 3106TIP3    H133513   2.074   4.946  13.709 -0.9962  3.8521 -1.2493
 3106TIP3    H233514   1.970   4.925  13.817  0.9171 -1.0012 -0.0777
 3107TIP3   OH233515   2.395   7.705  14.305 -0.0045 -0.2060  0.0695
 3107TIP3    H133516   2.384   7.635  14.241  0.2965  0.3819 -0.6533
 3107TIP3    H233517   2.388   7.663  14.390 -0.2238 -1.0387 -0.3576
 3108TIP3   OH233518   8.177   0.893  14.204 -0.8685 -0.3542  0.1568
 3108TIP3    H133519   8.096   0.908  14.155 -1.0862 -0.0066  0.6218
 3108TIP3    H233520   8.230   0.838  14.146 -0.8698  0.5499 -0.7359
 3109TIP3   OH233521   1.354   0.178  13.642  0.6680  0.0401  0.4673
 3109TIP3    H133522   1.419   0.211  13.703  1.9961  1.0938 -1.4302
 3109TIP3    H233523   1.311   0.257  13.608 -1.3811 -0.6147  1.3809
 3110TIP3   OH233524   2.647   6.558  15.434 -0.1483  0.0228  0.3902
 3110TIP3    H133525   2.734   6.523  15.416 -0.1955 -1.2044  2.2228
 3110TIP3    H233526   2.587   6.491  15.402 -0.3021 -0.5586  1.8080
 3111TIP3   OH233527   2.897   1.589  15.757  0.2773  0.0776 -0.9251
 3111TIP3    H133528   2.802   1.589  15.744  0.1942 -0.4757 -0.3470
 3111TIP3    H233529   2.910   1.642  15.835  0.2013 -1.9643  0.5488
 3112TIP3   OH233530   4.983   0.555  14.199 -0.1934  0.5184 -0.0393
 3112TIP3    H133531   4.929   0.592  14.269 -0.7766 -0.0896 -0.1494
 3112TIP3    H233532   5.043   0.625  14.174 -0.1865  0.8450  0.8554
 3113TIP3   OH233533   7.783   2.692  14.860  0.0612  0.6483 -0.1407
 3113TIP3    H133534   7.756   2.685  14.951  1.5126 -0.7216  0.2476
 3113TIP3    H233535   7.703   2.678  14.809 -0.6899  1.0453  0.9112
 3114TIP3   OH233536   6.385   0.948  15.116 -0.0435 -0.2204  0.4275
 3114TIP3    H133537   6.476   0.935  15.141  0.1938  0.2076 -0.1878
 3114TIP3    H233538   6.390   0.988  15.029 -0.8429 -1.6998 -0.3383
 3115TIP3   OH233539   4.246   7.292  15.837  0.0176  0.2256 -0.3103
 3115TIP3    H133540   4.192   7.214  15.849  0.8013 -0.6514 -2.0669
 3115TIP3    H233541   4.199   7.344  15.771 -0.1418  0.9034  0.3273
 3116TIP3   OH233542   3.855   6.826  15.878 -0.1499 -0.2415 -0.4160
 3116TIP3    H133543   3.774   6.853  15.836 -0.8410 -0.3657  0.8076
 3116TIP3    H233544   3.898   6.771  15.812 -1.0587 -0.1929 -1.0717
 3117TIP3   OH233545   1.623   2.284  15.870 -0.2358 -0.2365  0.2087
 3117TIP3    H133546   1.678   2.314  15.798  0.3708  2.6302  1.7485
 3117TIP3    H233547   1.559   2.354  15.882 -1.0705 -1.2064  1.6967
 3118TIP3   OH233548   6.051   0.823  15.413  0.1813  0.1157  0.0640
 3118TIP3    H133549   6.086   0.779  15.336 -2.1584 -0.2740 -0.8587
 3118TIP3    H233550   5.971   0.775  15.434 -0.9542  2.1835  0.7525
 3119TIP3   OH233551   7.672   6.011  14.021  0.1240 -0.2508  0.2118
 3119TIP3    H133552   7.700   6.097  13.988 -0.9592 -0.3672 -1.1097
 3119TIP3    H233553   7.709   5.948  13.959  1.6651 -0.8501  1.6703
 3120TIP3   OH233554   1.761   5.942  14.304  0.0718  0.1234 -0.3505
 3120TIP3    H133555   1.849   5.962  14.273  0.5757 -0.2905  0.7437
 3120TIP3    H233556   1.727   6.025  14.336 -0.2764  0.4579 -1.5364
 3121TIP3   OH233557   8.176   6.760  14.712  0.2822 -0.6210 -0.6485
 3121TIP3    H133558   8.168   6.802  14.626  2.5900  1.0361 -0.1427
 3121TIP3    H233559   8.178   6.666  14.693 -0.6565 -0.3556 -2.2464
 3122TIP3   OH233560   3.752   1.482  14.678 -0.0253  0.2253 -0.2016
 3122TIP3    H133561   3.728   1.564  14.723  4.7792  0.7553  2.0436
 3122TIP3    H233562   3.740   1.501  14.585 -3.0497  1.8663  0.4031
 3123TIP3   OH233563   8.203   5.509  15.862 -0.0123 -0.6379 -0.0514
 3123TIP3    H133564   8.247   5.586  15.827  1.8743 -1.7751 -0.3102
 3123TIP3    H233565   8.175   5.461  15.784  0.8625 -1.3229  0.0430
 3124TIP3   OH233566   0.602   2.752  14.474 -0.1258  0.1511  0.2948
 3124TIP3    H133567   0.692   2.719  14.474  0.0101  0.4541  1.9055
 3124TIP3    H233568   0.595   2.803  14.554 -2.0619 -0.7951  0.7957
 3125TIP3   OH233569   3.868   3.702  14.401  0.8196  0.2865  0.2939
 3125TIP3    H133570   3.891   3.770  14.339  3.1176  1.2168  2.0091
 3125TIP3    H233571   3.827   3.633  14.348  1.1239  1.7294 -1.9331
 3126TIP3   OH233572   4.260   4.945  15.149 -0.0934  0.2959  0.1196
 3126TIP3    H133573   4.195   4.875  15.152  0.1569  0.0797  2.8975
 3126TIP3    H233574   4.343   4.900  15.134 -0.0469  0.0638  1.0158
 3127TIP3   OH233575   3.757   0.050  13.883  0.7060 -0.2955  0.4008
 3127TIP3    H133576   3.851   0.069  13.876  0.8330  0.3078  2.7747
 3127TIP3    H233577   3.720   0.079  13.800  2.8972 -2.7021 -1.5936
 3128TIP3   OH233578   7.980   2.026  14.494  0.0829 -0.7701  0.0368
 3128TIP3    H133579   7.941   2.026  14.582  0.4291 -0.8600  0.1963
 3128TIP3    H233580   7.936   1.955  14.448  0.4834 -1.2818  0.4166
 3129TIP3   OH233581   7.464   6.658  15.287  0.0166  0.0582  0.7355
 3129TIP3    H133582   7.387   6.707  15.316 -1.3850 -2.4356  1.5640
 3129TIP3    H233583   7.442   6.630  15.198 -0.2121 -0.9630  1.1056
 3130TIP3   OH233584   5.142   1.739  15.433 -0.6739 -0.5917  0.1355
 3130TIP3    H133585   5.080   1.695  15.491  1.7811 -0.5400  3.0364
 3130TIP3    H233586   5.215   1.677  15.425  0.0036  0.3224 -1.1262
 3131TIP3   OH233587   0.886   4.371  16.511  0.6793 -0.1563  0.1251
 3131TIP3    H133588   0.913   4.434  16.578 -0.6024 -0.0302  0.5663
 3131TIP3    H233589   0.957   4.307  16.507  1.1468  0.2859  1.0258
 3132TIP3   OH233590   1.149   2.257  13.811 -0.7205 -0.3230  0.8267
 3132TIP3    H133591   1.219   2.275  13.748 -1.4193  0.8822  0.3644
 3132TIP3    H233592   1.069   2.285  13.767 -1.2954 -0.0426  2.0093
 3133TIP3   OH233593   7.906   7.479  15.298  0.2420  0.3249 -0.1654
 3133TIP3    H133594   7.959   7.430  15.361 -0.4284  0.4719  0.5313
 3133TIP3    H233595   7.910   7.427  15.218  1.2553  0.2271 -0.0683
 3134TIP3   OH233596   6.669   0.925  15.192  0.7083  0.1434 -0.1338
 3134TIP3    H133597   6.715   0.868  15.131 -0.0674  1.5798 -2.1620
 3134TIP3    H233598   6.683   1.013  15.158 -1.0389  0.8741  0.8940
 3135TIP3   OH233599   4.151   4.693  15.143  0.0245  0.4586  0.2803
 3135TIP3    H133600   4.233   4.654  15.171  0.0662 -0.2208 -0.7258
 3135TIP3    H233601   4.086   4.661  15.206  0.2997 -0.1213  0.2707
 3136TIP3   OH233602   1.658   7.068  14.743  0.1863  0.1291  0.0760
 3136TIP3    H133603   1.637   7.158  14.767 -0.3428  0.2477 -0.7952
 3136TIP3    H233604   1.574   7.029  14.718  0.8353  0.3775 -2.7231
 3137TIP3   OH233605   6.695   1.387  14.660 -0.2562  0.1680  0.1015
 3137TIP3    H133606   6.697   1.483  14.650 -1.0403  0.3596  1.4743
 3137TIP3    H233607   6.617   1.360  14.613  0.3814  0.0852 -0.9492
 3138TIP3   OH233608   0.006   1.871  14.756  0.4262  0.1270  0.3279
 3138TIP3    H133609  -0.066   1.830  14.805  1.0861  0.1459  1.3442
 3138TIP3    H233610   0.067   1.800  14.738 -0.5871 -0.2487 -2.0425
 3139TIP3   OH233611   5.592   0.323  15.611  0.4856 -1.1333 -0.1673
 3139TIP3    H133612   5.513   0.341  15.561  0.0516 -1.5271  0.3637
 3139TIP3    H233613   5.660   0.310  15.545  0.0955 -0.8572 -0.6292
 3140TIP3   OH233614   7.485   6.931  15.951 -0.1472 -0.4403  0.4796
 3140TIP3    H133615   7.492   6.893  15.863 -0.3297 -2.2490  1.2063
 3140TIP3    H233616   7.542   7.009  15.948 -0.2473 -0.3902 -1.2539
 3141TIP3   OH233617   6.048   3.266  14.919 -0.1906  0.4205 -0.6355
 3141TIP3    H133618   5.980   3.217  14.964 -1.1612  1.1706 -1.2497
 3141TIP3    H233619   6.034   3.246  14.826  2.3982 -1.9112 -0.6588
 3142TIP3   OH233620   0.229   4.023  15.486  0.1287  0.4311  0.0736
 3142TIP3    H133621   0.273   4.100  15.450  0.0887 -0.0932 -1.1253
 3142TIP3    H233622   0.157   4.059  15.538  2.6408  1.3884  3.1932
 3143TIP3   OH233623   4.222   0.290  15.442 -0.1371  0.4420  0.4821
 3143TIP3    H133624   4.296   0.284  15.503  2.6510 -1.5779 -2.7192
 3143TIP3    H233625   4.237   0.372  15.395 -0.6453  0.6139  0.6183
 3144TIP3   OH233626   2.284   1.842  15.899 -0.2322 -0.0802  0.3550
 3144TIP3    H133627   2.376   1.868  15.896  0.2456 -1.6964 -2.4063
 3144TIP3    H233628   2.236   1.920  15.871  0.6156 -0.2152 -1.5667
 3145TIP3   OH233629   0.577   3.206  15.917  0.5291  0.2929 -0.1872
 3145TIP3    H133630   0.596   3.142  15.848 -1.6738  1.2494 -1.7748
 3145TIP3    H233631   0.586   3.156  15.998 -1.2262 -2.1402 -1.3549
 3146TIP3   OH233632   4.305   2.831  15.903 -0.0315 -0.0210 -0.3477
 3146TIP3    H133633   4.386   2.801  15.861  1.3254  0.3437  1.8763
 3146TIP3    H233634   4.308   2.926  15.894 -1.1898 -0.0842 -1.8567
 3147TIP3   OH233635   1.188   1.098  15.925 -0.0890  0.4227  0.2701
 3147TIP3    H133636   1.194   1.080  15.832 -0.4703 -0.0694  0.3399
 3147TIP3    H233637   1.278   1.117  15.952  0.2513 -0.8433  0.0824
 3148TIP3   OH233638   2.566   1.350  14.379  0.2344  0.6515  0.1813
 3148TIP3    H133639   2.485   1.300  14.393  1.0385 -0.1956  2.2245
 3148TIP3    H233640   2.542   1.440  14.398 -0.0261  0.2499  1.9894
 3149TIP3   OH233641   7.711   2.692  15.788  0.2591  0.2840 -0.1837
 3149TIP3    H133642   7.786   2.751  15.788  0.1654  0.4584 -1.6340
 3149TIP3    H233643   7.649   2.733  15.727 -1.1873  0.3461  1.2716
 3150TIP3   OH233644   3.142   7.041  15.464 -1.3577 -0.1667 -0.0961
 3150TIP3    H133645   3.172   6.994  15.386 -0.8646 -0.4948  0.2913
 3150TIP3    H233646   3.088   7.112  15.429  0.3464  0.8226 -0.8493
 3151TIP3   OH233647   7.179   3.347  15.665 -0.1379  0.3009 -0.2139
 3151TIP3    H133648   7.263   3.305  15.683 -0.8974 -1.1271  0.2043
 3151TIP3    H233649   7.173   3.418  15.729  0.3904 -0.1197  0.3122
 3152TIP3   OH233650   6.227   2.564  15.463 -0.1710  0.3737  0.2342
 3152TIP3    H133651   6.276   2.515  15.530 -1.3064 -0.7987  0.2486
 3152TIP3    H233652   6.138   2.569  15.499 -0.8002 -0.2824 -1.1783
 3153TIP3   OH233653   6.081   3.864  14.545 -0.1175  0.6073 -0.3206
 3153TIP3    H133654   6.018   3.800  14.514 -0.5213  0.4023  0.8606
 3153TIP3    H233655   6.032   3.946  14.549 -0.6128  0.2763  1.4355
 3154TIP3   OH233656   5.220   7.298  13.906 -0.1801 -0.0850 -0.7622
 3154TIP3    H133657   5.182   7.330  13.988 -0.1721 -0.1996 -0.7134
 3154TIP3    H233658   5.261   7.215  13.930  0.5914  0.3041 -0.6886
 3155TIP3   OH233659   0.580   0.020  15.533 -0.8616 -0.7801 -0.3041
 3155TIP3    H133660   0.619  -0.059  15.570  0.6394  0.6192  1.2522
 3155TIP3    H233661   0.654   0.076  15.512 -1.8116 -0.3345 -2.8260
 3156TIP3   OH233662   2.595   2.134  14.083  0.2525  0.3671  0.3718
 3156TIP3    H133663   2.644   2.102  14.007 -0.1263  0.9373 -0.1167
 3156TIP3    H233664   2.532   2.196  14.047 -2.8984 -2.4476  0.5158
 3157TIP3   OH233665   3.483   8.122  14.494 -0.4249  0.1463  0.1161
 3157TIP3    H133666   3.559   8.133  14.552 -1.8086 -0.8777  2.2606
 3157TIP3    H233667   3.484   8.200  14.438  1.0656  1.1428  1.4319
 3158TIP3   OH233668   1.956   8.379  15.055 -0.5328  0.0503  0.1770
 3158TIP3    H133669   2.021   8.435  15.012 -0.4967  0.2993  0.5487
 3158TIP3    H233670   1.879   8.435  15.065 -1.4745 -0.7647 -1.9083
 3159TIP3   OH233671   6.299   6.181  16.019 -0.3031  0.0934 -0.0911
 3159TIP3    H133672   6.286   6.119  16.091 -0.9354 -0.3381 -0.5755
 3159TIP3    H233673   6.393   6.176  16.000 -0.3938 -0.9402 -0.3203
 3160TIP3   OH233674   0.446   0.956  14.406 -0.3704  0.6258  0.3070
 3160TIP3    H133675   0.385   0.907  14.351 -1.3567  1.2801  0.7944
 3160TIP3    H233676   0.506   0.890  14.441 -2.5050 -0.4857  2.0669
 3161TIP3   OH233677   6.455   7.869  14.847 -0.2516 -0.1122 -0.2402
 3161TIP3    H133678   6.486   7.867  14.938  1.9826  0.2318 -0.9347
 3161TIP3    H233679   6.467   7.779  14.817 -0.8655 -0.1955 -0.2385
 3162TIP3   OH233680   6.491   2.554  15.087 -0.2097  0.5548  0.1376
 3162TIP3    H133681   6.561   2.489  15.088 -2.9620 -2.7121 -0.2399
 3162TIP3    H233682   6.464   2.561  15.179 -0.3657  0.6290  0.0855
 3163TIP3   OH233683   7.099   0.822  14.386 -0.0183 -0.1642 -0.2206
 3163TIP3    H133684   7.111   0.916  14.398 -0.9229 -0.1293  0.4582
 3163TIP3    H233685   7.030   0.815  14.320 -0.9732 -0.3280  0.7675
 3164TIP3   OH233686   4.987   4.454  15.362  0.3519 -0.2643  0.0002
 3164TIP3    H133687   5.065   4.421  15.316  0.7321  2.8837 -1.9275
 3164TIP3    H233688   5.018   4.474  15.450  0.5131 -3.1094  0.6897
 3165TIP3   OH233689   6.535   6.982  13.924 -0.5383 -0.2284 -0.2528
 3165TIP3    H133690   6.586   6.903  13.941  0.6868  0.6929  0.5778
 3165TIP3    H233691   6.589   7.033  13.863  0.0128  1.1445  1.2929
 3166TIP3   OH233692   1.287   2.684  14.098  0.6165 -0.7432  0.0431
 3166TIP3    H133693   1.205   2.652  14.136  1.1951 -0.8416  1.2328
 3166TIP3    H233694   1.347   2.610  14.103  0.8735 -0.5865 -0.5752
 3167TIP3   OH233695   8.323   6.722  15.199  0.1609  0.5938  0.3611
 3167TIP3    H133696   8.263   6.675  15.257 -0.0394 -1.6847 -1.5404
 3167TIP3    H233697   8.406   6.676  15.209 -0.0331 -0.2642 -1.5292
 3168TIP3   OH233698   3.294   3.273  14.093  0.5554  0.3775 -0.3683
 3168TIP3    H133699   3.343   3.221  14.030  1.4501  0.8888 -0.1095
 3168TIP3    H233700   3.244   3.334  14.040 -0.1303 -0.4135 -0.6530
 3169TIP3   OH233701   0.502   2.481  15.183 -0.9271 -0.8838 -0.2144
 3169TIP3    H133702   0.440   2.554  15.175 -0.1756 -0.3614 -1.5159
 3169TIP3    H233703   0.523   2.478  15.276 -0.6551  0.8462 -0.1869
 3170TIP3   OH233704   1.116   4.888  13.726 -0.2358 -0.2627 -0.0856
 3170TIP3    H133705   1.111   4.961  13.665  0.3053 -0.8186 -0.8106
 3170TIP3    H233706   1.042   4.901  13.785 -1.0072  0.0689 -1.0915
 3171TIP3   OH233707   8.046   1.447  14.923 -0.4402  0.5871 -0.1743
 3171TIP3    H133708   8.123   1.412  14.968  0.3966  2.0353 -0.3905
 3171TIP3    H233709   8.034   1.534  14.962 -0.8616  1.1018 -1.4072
 3172TIP3   OH233710   8.090   0.477  16.085 -0.3981  0.3773 -0.0676
 3172TIP3    H133711   8.168   0.445  16.130  0.9925  1.5582 -1.4943
 3172TIP3    H233712   8.064   0.555  16.134 -0.8246 -0.1482  0.5444
 3173TIP3   OH233713   6.606   7.444  14.440 -0.5245  0.1682  0.6192
 3173TIP3    H133714   6.684   7.485  14.403 -1.1748  1.3429  0.4786
 3173TIP3    H233715   6.638   7.390  14.512  0.4156  0.6606  0.5872
 3174TIP3   OH233716   5.436   8.309  15.332 -0.7715  0.4454  0.0392
 3174TIP3    H133717   5.497   8.339  15.399 -1.0291  0.4838  0.2595
 3174TIP3    H233718   5.458   8.217  15.319 -0.1797  0.6501 -0.4189
 3175TIP3   OH233719   0.776   2.408  14.447 -0.0013  0.4002  0.6023
 3175TIP3    H133720   0.742   2.427  14.360  1.1555 -0.5443 -0.0780
 3175TIP3    H233721   0.829   2.485  14.469  0.3261  0.3128  0.1366
 3176TIP3   OH233722   7.686   0.817  14.925  0.8115  0.0443 -0.1535
 3176TIP3    H133723   7.765   0.764  14.934  1.2490  0.8330  0.9054
 3176TIP3    H233724   7.616   0.764  14.964  0.8580 -0.5480 -0.8630
 3177TIP3   OH233725   3.241   1.593  16.173 -0.0145  0.3311  0.3363
 3177TIP3    H133726   3.275   1.677  16.203  0.3905  0.7139 -1.1151
 3177TIP3    H233727   3.262   1.531  16.243 -1.0435  1.5687  1.8040
 3178TIP3   OH233728   7.182   1.190  15.203 -0.0813  0.2239  0.2962
 3178TIP3    H133729   7.193   1.277  15.241 -0.1553  0.6445 -0.6173
 3178TIP3    H233730   7.233   1.193  15.122 -1.8542  0.1369 -0.8580
 3179TIP3   OH233731   3.888   5.728  14.163  0.3261 -0.5367  0.6360
 3179TIP3    H133732   3.879   5.752  14.071 -0.1844 -0.6796  0.6504
 3179TIP3    H233733   3.874   5.633  14.165  2.9093 -1.0161  0.4946
 3180TIP3   OH233734   0.673   2.756  15.241 -0.2049  0.1690  0.1543
 3180TIP3    H133735   0.750   2.759  15.184 -1.1574 -0.4727 -1.2379
 3180TIP3    H233736   0.680   2.671  15.285  1.1146  1.1269  1.9190
 3181TIP3   OH233737   0.530   2.227  14.473 -0.1792  0.3614 -0.2173
 3181TIP3    H133738   0.597   2.279  14.518  1.8528 -0.8931 -1.6109
 3181TIP3    H233739   0.572   2.200  14.391 -1.9525 -1.5503 -0.5713
 3182TIP3   OH233740   6.118   5.507  14.775 -1.0092  0.0784  0.6810
 3182TIP3    H133741   6.059   5.535  14.846 -0.4947  1.0412  0.7410
 3182TIP3    H233742   6.073   5.534  14.695 -0.2815  1.5854  0.7564
 3183TIP3   OH233743   0.640   2.165  16.313  0.3710 -0.0158 -0.1974
 3183TIP3    H133744   0.632   2.200  16.402  0.1136 -1.0868  0.2096
 3183TIP3    H233745   0.633   2.070  16.323  1.8038 -0.2602 -1.2042
 3184TIP3   OH233746   5.089   0.510  14.912 -0.6118  0.2375  0.3597
 3184TIP3    H133747   5.180   0.518  14.884 -0.0303  0.8029  2.2617
 3184TIP3    H233748   5.079   0.576  14.980 -2.4776  0.2218  0.1542
 3185TIP3   OH233749   0.563   5.570  15.550  0.0068 -0.2436  0.1773
 3185TIP3    H133750   0.486   5.610  15.589  1.2370  1.0410  1.4234
 3185TIP3    H233751   0.588   5.629  15.479  1.9370  1.5315  2.1397
 3186TIP3   OH233752   6.996   6.911  15.584 -0.4858 -0.0187 -0.4424
 3186TIP3    H133753   6.930   6.932  15.518  1.3185  2.3380 -1.6379
 3186TIP3    H233754   6.997   6.987  15.642 -1.2022 -1.5480  1.7041
 3187TIP3   OH233755   3.224   7.776  15.183  0.4327 -0.3996  0.3322
 3187TIP3    H133756   3.153   7.839  15.174 -0.5877 -1.6657 -0.8845
 3187TIP3    H233757   3.209   7.735  15.268  0.3277  0.0635  0.5403
 3188TIP3   OH233758   1.511   0.534  15.531  1.0157 -0.0385 -0.8384
 3188TIP3    H133759   1.584   0.556  15.589 -0.0076  1.0677  0.0878
 3188TIP3    H233760   1.494   0.441  15.548  1.0559  0.1460  0.2872
 3189TIP3   OH233761   8.191   6.542  14.411  0.1961 -0.0169  0.5020
 3189TIP3    H133762   8.200   6.448  14.397 -2.4160 -0.0625 -1.7460
 3189TIP3    H233763   8.278   6.577  14.395  0.7713 -1.8526 -0.6927
 3190TIP3   OH233764   0.784   6.981  15.203  0.2052  0.3753 -0.3272
 3190TIP3    H133765   0.698   6.974  15.244  0.7672 -0.1308  0.8327
 3190TIP3    H233766   0.791   7.073  15.177 -0.5632  0.4927 -0.1442
 3191TIP3   OH233767   6.271   5.443  15.120 -0.2806  0.0213  0.3463
 3191TIP3    H133768   6.311   5.501  15.056  0.2886 -0.6156  0.1157
 3191TIP3    H233769   6.255   5.361  15.073  3.1141 -1.6336  1.7162
 3192TIP3   OH233770   3.258   6.254  13.798  0.3493 -0.0375  0.2627
 3192TIP3    H133771   3.337   6.308  13.806  1.2747 -1.4543  1.2546
 3192TIP3    H233772   3.289   6.165  13.814 -1.8136 -0.3981  3.0916
 3193TIP3   OH233773   7.771   4.761  16.060 -0.1248 -0.5509  0.0749
 3193TIP3    H133774   7.799   4.838  16.109 -0.2198  1.4850 -2.7740
 3193TIP3    H233775   7.677   4.776  16.044 -0.6364 -2.3157  1.1280
 3194TIP3   OH233776   5.463   8.054  14.951  1.0329  0.4970 -0.0412
 3194TIP3    H133777   5.547   8.008  14.958  0.4026 -0.5338  1.1607
 3194TIP3    H233778   5.459   8.082  14.860  1.9627 -0.8907 -0.5474
 3195TIP3   OH233779   5.118   3.479  14.506 -0.1659 -0.2028 -0.1090
 3195TIP3    H133780   5.027   3.501  14.523  0.1185  0.0148  1.2631
 3195TIP3    H233781   5.123   3.384  14.519 -0.2634 -0.2704 -0.5473
 3196TIP3   OH233782   0.544   2.123  15.737  0.1137 -0.6902  0.0714
 3196TIP3    H133783   0.633   2.098  15.762  0.2088 -0.6499 -0.2183
 3196TIP3    H233784   0.505   2.043  15.703 -0.1970 -0.8757  0.8386
 3197TIP3   OH233785   0.971   8.261  15.482  0.5915  0.7461  0.3338
 3197TIP3    H133786   1.016   8.242  15.400  2.0294  1.5031  0.9108
 3197TIP3    H233787   0.905   8.192  15.490 -2.0381  2.5415 -3.1674
 3198TIP3   OH233788   7.904   3.984  14.855 -0.4837  0.0637 -0.4608
 3198TIP3    H133789   7.814   3.965  14.880 -0.6987 -0.5075 -1.6030
 3198TIP3    H233790   7.957   3.946  14.924 -1.0851 -0.6059 -0.3545
 3199TIP3   OH233791   6.708   6.569  15.215  0.0191 -0.2162  0.3753
 3199TIP3    H133792   6.657   6.638  15.257  0.2313 -0.5675  1.2340
 3199TIP3    H233793   6.799   6.592  15.234  0.1058 -0.5489  0.3772
 3200TIP3   OH233794   7.113   4.366  14.437  0.2914  0.3992  0.1532
 3200TIP3    H133795   7.188   4.413  14.475 -0.8942  2.9659 -0.4229
 3200TIP3    H233796   7.129   4.367  14.343  0.9440 -1.7547  0.2027
 3201TIP3   OH233797   6.837   7.606  15.932  0.0953 -0.2298  0.2747
 3201TIP3    H133798   6.887   7.685  15.908  0.0404 -0.7910 -1.8497
 3201TIP3    H233799   6.755   7.615  15.885  0.2056 -1.6919 -0.2220
 3202TIP3   OH233800   4.839   4.998  14.608  0.6402  0.1319 -0.0653
 3202TIP3    H133801   4.813   4.955  14.689  1.3029  2.5625  1.5356
 3202TIP3    H233802   4.773   5.067  14.595  0.6235 -0.1169 -1.5529
 3203TIP3   OH233803   4.581   6.416  16.021 -0.2007 -0.0394 -0.6999
 3203TIP3    H133804   4.623   6.406  16.106 -2.1967 -2.2254  0.1481
 3203TIP3    H233805   4.653   6.411  15.958  1.1031 -0.7529  0.7762
 3204TIP3   OH233806   1.585   7.417  15.778 -0.0559 -0.3901 -0.0061
 3204TIP3    H133807   1.544   7.502  15.792  0.1407 -0.2643 -0.1861
 3204TIP3    H233808   1.670   7.424  15.821 -0.0386 -0.4948 -0.0224
 3205TIP3   OH233809   6.115   6.750  15.809 -0.2503 -0.0305 -0.1830
 3205TIP3    H133810   6.101   6.656  15.816 -1.9581  0.0102 -2.0653
 3205TIP3    H233811   6.210   6.760  15.811 -0.0460 -1.7092  0.6317
 3206TIP3   OH233812   6.763   4.429  15.379  0.0267 -0.0066 -0.5112
 3206TIP3    H133813   6.720   4.512  15.402 -1.5736 -1.2389  1.2311
 3206TIP3    H233814   6.748   4.373  15.455  2.9552 -1.2364 -0.7332
 3207TIP3   OH233815   0.924   7.539  16.003  0.2056 -0.5958 -0.4008
 3207TIP3    H133816   0.940   7.517  16.095 -0.9935 -0.5432 -0.1699
 3207TIP3    H233817   1.012   7.543  15.964  1.1200  3.0276  1.5467
 3208TIP3   OH233818   5.686   5.831  14.491 -0.5693 -0.0270 -0.0467
 3208TIP3    H133819   5.768   5.848  14.446 -0.1559  0.3280  0.8027
 3208TIP3    H233820   5.621   5.824  14.422  0.3065 -1.1014 -0.7806
 3209TIP3   OH233821   4.510   1.094  14.076  0.9500  0.0575 -0.4842
 3209TIP3    H133822   4.470   1.115  13.991 -0.1785 -0.2684 -0.0578
 3209TIP3    H233823   4.603   1.113  14.064  0.4919  2.2076 -1.0963
 3210TIP3   OH233824   7.721   0.910  15.187 -0.0252  0.3456 -0.1666
 3210TIP3    H133825   7.651   0.917  15.121 -1.1208  1.2957  1.0413
 3210TIP3    H233826   7.794   0.870  15.140 -1.5525 -1.2221 -1.3430
 3211TIP3   OH233827   1.033   2.781  16.248 -0.2053  0.1950  0.6210
 3211TIP3    H133828   0.950   2.774  16.199 -0.3348  1.5640  0.6288
 3211TIP3    H233829   1.046   2.693  16.283 -0.6677 -0.5546 -0.9733
 3212TIP3   OH233830   3.703   7.474  15.232 -0.4005 -0.2180 -0.7044
 3212TIP3    H133831   3.666   7.454  15.318  0.1663  0.0316 -0.3938
 3212TIP3    H233832   3.633   7.521  15.186 -0.1428  1.1378  0.2354
 3213TIP3   OH233833   3.345   2.391  14.062 -0.6920  0.2830  0.1675
 3213TIP3    H133834   3.314   2.480  14.077  1.4823  1.3216 -1.2314
 3213TIP3    H233835   3.312   2.368  13.975 -0.6482 -0.0385  0.2326
 3214TIP3   OH233836   0.137   6.022  14.340 -0.4399  0.0820 -0.4278
 3214TIP3    H133837   0.171   5.940  14.305  3.0166  1.2905 -0.2586
 3214TIP3    H233838   0.081   6.056  14.270 -0.4258 -1.4844 -1.2614
 3215TIP3   OH233839   3.113   3.740  14.617  0.3083 -0.9747  0.1185
 3215TIP3    H133840   3.126   3.834  14.607  1.1401 -1.1810 -0.8707
 3215TIP3    H233841   3.031   3.733  14.667  0.8538  0.2711  1.2432
 3216TIP3   OH233842   5.168   1.332  16.033  0.3640  0.0176  1.4175
 3216TIP3    H133843   5.230   1.335  15.959  0.3736 -1.8030  1.3026
 3216TIP3    H233844   5.222   1.348  16.110  0.4758  1.2415  1.0993
 3217TIP3   OH233845   7.690   3.327  14.956 -0.0118  0.3075  0.0285
 3217TIP3    H133846   7.659   3.288  14.875 -0.2455 -0.4544  0.4794
 3217TIP3    H233847   7.703   3.420  14.934  0.0113  0.0965 -0.8939
 3218TIP3   OH233848   0.975   7.011  15.528 -0.4538 -0.2681 -0.1700
 3218TIP3    H133849   0.994   6.929  15.573 -0.1912 -1.0308 -1.6228
 3218TIP3    H233850   0.880   7.021  15.537 -0.5397 -0.9236 -0.2925
 3219TIP3   OH233851   5.237   4.732  14.649 -0.0321  0.5313 -0.3844
 3219TIP3    H133852   5.291   4.681  14.710  0.9141  0.0242 -1.6016
 3219TIP3    H233853   5.151   4.688  14.651 -0.4556  1.3375  1.5605
 3220TIP3   OH233854   6.889   7.589  14.232 -0.9200 -0.4914 -0.0743
 3220TIP3    H133855   6.970   7.616  14.276 -0.2730  2.7058 -2.7981
 3220TIP3    H233856   6.919   7.542  14.154 -1.5215  1.2963 -1.4667
 3221TIP3   OH233857   0.559   0.636  15.484  0.0388 -0.2903 -0.5447
 3221TIP3    H133858   0.527   0.656  15.572  1.2594  0.5430 -0.2656
 3221TIP3    H233859   0.519   0.551  15.463 -1.5405  0.2539  0.1398
 3222TIP3   OH233860   8.010   3.944  15.479  0.3124  0.0267 -0.0452
 3222TIP3    H133861   7.963   3.943  15.562 -0.4190 -3.9270 -0.3144
 3222TIP3    H233862   7.942   3.931  15.413  1.1723  0.2903 -1.0181
 3223TIP3   OH233863   8.083   5.586  15.290  0.1551  0.4641  0.0574
 3223TIP3    H133864   8.013   5.555  15.232  0.7909 -0.7044 -0.1295
 3223TIP3    H233865   8.115   5.506  15.333  2.1814  0.7710 -0.7656
 3224TIP3   OH233866   7.981   7.194  14.545 -0.7037  0.1171  0.3090
 3224TIP3    H133867   8.075   7.176  14.537 -0.3431  0.9082  2.0709
 3224TIP3    H233868   7.943   7.113  14.580 -0.6522 -0.1455 -0.2401
 3225TIP3   OH233869   4.100   1.972  15.233 -0.1233  0.2030  0.6665
 3225TIP3    H133870   4.156   1.996  15.160 -0.4502 -1.4200 -0.1496
 3225TIP3    H233871   4.025   2.031  15.226  0.1472  0.4827  0.0810
 3226TIP3   OH233872   3.209   7.704  14.898  0.1892 -0.3117 -0.1475
 3226TIP3    H133873   3.227   7.720  14.991  0.3750 -2.1577  0.1653
 3226TIP3    H233874   3.275   7.640  14.871 -1.7835 -2.2631 -0.6740
 3227TIP3   OH233875   0.109   1.631  14.683 -0.5790 -0.3822 -0.9315
 3227TIP3    H133876   0.126   1.564  14.749 -1.3588  0.3844  0.0762
 3227TIP3    H233877   0.118   1.585  14.599 -1.2171 -1.7726 -0.2639
 3228TIP3   OH233878   5.691   7.878  15.059  0.3428 -0.5798  0.1321
 3228TIP3    H133879   5.629   7.840  15.121  0.2800 -2.3799 -0.9377
 3228TIP3    H233880   5.672   7.833  14.976  0.5222  1.6241 -1.1745
 3229TIP3   OH233881   5.091   8.416  15.229  0.3472 -0.1004 -0.1374
 3229TIP3    H133882   5.157   8.482  15.208  0.5626  0.0297  0.8842
 3229TIP3    H233883   5.133   8.333  15.206  0.7720  0.0009  0.2538
 3230TIP3   OH233884   0.434   2.820  15.402  0.2438 -0.1555 -0.2143
 3230TIP3    H133885   0.517   2.816  15.353  1.4051  1.2754  1.5022
 3230TIP3    H233886   0.430   2.910  15.435 -1.5848 -0.4505  0.4694
 3231TIP3   OH233887   6.009   4.236  14.269 -0.2756 -0.7335 -0.3746
 3231TIP3    H133888   6.080   4.298  14.253  0.8574 -1.5429  1.2490
 3231TIP3    H233889   5.998   4.189  14.187  2.1967 -1.7025 -0.2182
 3232TIP3   OH233890   7.126   5.857  14.591  0.1531 -0.4159  0.3694
 3232TIP3    H133891   7.167   5.917  14.654 -2.6776  1.6042  0.4738
 3232TIP3    H233892   7.199   5.824  14.539  2.0021  2.6758  0.7360
 3233TIP3   OH233893   3.414   2.259  14.561 -0.4006 -0.1846  0.4833
 3233TIP3    H133894   3.455   2.185  14.606  1.7916 -0.0690 -1.1516
 3233TIP3    H233895   3.408   2.327  14.628  1.2186 -0.5662  1.0668
 3234TIP3   OH233896   3.347   7.796  14.191 -0.0872  0.6075  0.1067
 3234TIP3    H133897   3.438   7.809  14.164  0.1195  0.1213  0.5532
 3234TIP3    H233898   3.347   7.710  14.233 -1.0587 -0.0448 -1.1780
 3235TIP3   OH233899   4.259   1.122  15.393  0.4616 -0.2177  0.3498
 3235TIP3    H133900   4.231   1.203  15.435  0.8855 -0.3975  0.9818
 3235TIP3    H233901   4.214   1.123  15.308  0.5289  0.7138  0.3140
 3236TIP3   OH233902   0.106   1.583  16.030  0.0640  0.3627  0.2853
 3236TIP3    H133903   0.048   1.612  15.959 -0.4511 -0.8719  0.1753
 3236TIP3    H233904   0.151   1.662  16.058 -0.8229  1.1366 -0.4189
 3237TIP3   OH233905   6.207   5.859  14.712 -0.5836 -0.4022 -0.0632
 3237TIP3    H133906   6.209   5.897  14.623 -0.2838 -1.5394 -0.5557
 3237TIP3    H233907   6.114   5.861  14.736 -0.5577  0.8745  0.0425
 3238TIP3   OH233908   7.310   4.704  15.443 -0.3632  0.1257 -0.1349
 3238TIP3    H133909   7.285   4.639  15.509  1.0566  0.2044  0.5291
 3238TIP3    H233910   7.256   4.683  15.367  0.6321 -2.4007 -0.2476
 3239TIP3   OH233911   3.058   3.439  13.985  0.2631  0.2591  0.1127
 3239TIP3    H133912   2.987   3.415  14.044 -0.9775 -1.0600 -1.7806
 3239TIP3    H233913   3.080   3.529  14.010 -2.0905  0.7323  0.8152
 3240TIP3   OH233914   0.282   5.761  14.306 -0.2118 -0.4434  0.4223
 3240TIP3    H133915   0.370   5.796  14.290 -0.3249 -0.2825  0.1334
 3240TIP3    H233916   0.289   5.668  14.285  0.4052 -0.8861  2.3870
 3241TIP3   OH233917   6.539   6.763  14.210 -0.1098 -0.7372  0.5526
 3241TIP3    H133918   6.573   6.675  14.229  1.9348 -0.1499 -0.1494
 3241TIP3    H233919   6.508   6.758  14.120  2.9828  0.0077 -0.6634
 3242TIP3   OH233920   3.178   2.124  14.859 -0.1837  0.7765  0.3712
 3242TIP3    H133921   3.136   2.058  14.804 -0.8877  0.5347  1.1866
 3242TIP3    H233922   3.160   2.096  14.949  1.0778  1.0891  0.7385
 3243TIP3   OH233923   5.808   0.725  15.506  0.3125 -0.5156  0.0853
 3243TIP3    H133924   5.714   0.737  15.519  0.1143 -2.1176  0.2883
 3243TIP3    H233925   5.818   0.632  15.484  1.5500  0.1756 -2.7163
 3244TIP3   OH233926   2.658   3.566  14.609 -0.3451 -0.1074 -0.4513
 3244TIP3    H133927   2.627   3.645  14.653 -1.9182 -0.5393 -0.7172
 3244TIP3    H233928   2.630   3.494  14.665 -0.8976 -0.5725 -1.2994
 3245TIP3   OH233929   7.674   3.534  14.307 -0.5000 -0.0600 -0.3597
 3245TIP3    H133930   7.582   3.513  14.294 -0.9511  1.7901 -0.3595
 3245TIP3    H233931   7.686   3.534  14.402 -0.7718  0.7843 -0.3241
 3246TIP3   OH233932   1.126   7.915  14.952 -0.1366  0.6705  0.6507
 3246TIP3    H133933   1.053   7.859  14.976 -0.5922  0.2432 -1.5478
 3246TIP3    H233934   1.089   7.977  14.888  1.6836 -0.5260 -1.7068
 3247TIP3   OH233935   8.233   2.589  14.903 -0.1106 -0.1448 -0.9016
 3247TIP3    H133936   8.224   2.526  14.832  0.9401 -1.0805 -0.2546
 3247TIP3    H233937   8.298   2.549  14.961 -0.3388  0.9755  0.1583
 3248TIP3   OH233938   7.167   5.688  16.184  0.0035 -0.0096  0.1460
 3248TIP3    H133939   7.194   5.661  16.271  1.8216 -1.3033 -0.7562
 3248TIP3    H233940   7.137   5.607  16.143 -2.8016  0.9046  0.1713
 3249TIP3   OH233941   0.711   6.745  15.871 -0.0227 -0.3899  1.0091
 3249TIP3    H133942   0.752   6.829  15.889 -1.2073 -0.1070  2.6790
 3249TIP3    H233943   0.726   6.730  15.778 -1.2846  2.5171  0.2151
 3250TIP3   OH233944   7.557   7.540  14.095  0.7344  0.6196  0.1376
 3250TIP3    H133945   7.547   7.524  14.189  0.0433  1.3378  0.1921
 3250TIP3    H233946   7.572   7.634  14.088  0.3855  0.6313 -0.4982
 3251TIP3   OH233947   7.327   3.571  13.873  0.2039 -0.3657  0.5234
 3251TIP3    H133948   7.298   3.661  13.857 -0.1927 -0.6844 -0.6482
 3251TIP3    H233949   7.256   3.516  13.839  0.6346 -1.1242  0.8305
 3252TIP3   OH233950   5.552   0.831  15.529  0.4623  0.0034  0.3124
 3252TIP3    H133951   5.460   0.856  15.519  0.8181  0.6582 -1.8585
 3252TIP3    H233952   5.594   0.907  15.569 -0.2330 -1.0525  3.2987
 3253TIP3   OH233953   2.935   1.005  15.888  0.1611 -0.0961 -0.6676
 3253TIP3    H133954   2.885   0.936  15.932 -0.4795  0.5980 -0.2710
 3253TIP3    H233955   2.921   1.082  15.943  3.3367 -0.3008  0.6127
 3254TIP3   OH233956   6.404   4.549  15.058 -0.4656  0.3388  0.0185
 3254TIP3    H133957   6.404   4.634  15.013 -1.2085  0.2150 -0.2350
 3254TIP3    H233958   6.348   4.564  15.134  0.8944  0.5904  1.0162
 3255TIP3   OH233959   3.434   0.868  14.664  0.3957  0.3045  0.5662
 3255TIP3    H133960   3.416   0.907  14.750  1.3759 -0.1323  0.9816
 3255TIP3    H233961   3.511   0.914  14.633  0.1635  0.3185 -0.0013
 3256TIP3   OH233962   4.613   6.845  15.579 -0.1583  0.0595 -0.1188
 3256TIP3    H133963   4.611   6.845  15.674  0.0928 -0.5831 -0.1063
 3256TIP3    H233964   4.706   6.847  15.557 -0.2194  0.8822 -0.3669
 3257TIP3   OH233965   2.528   7.893  14.640 -0.4976  0.1663  0.1905
 3257TIP3    H133966   2.441   7.891  14.601 -0.5264  0.9694  0.2169
 3257TIP3    H233967   2.569   7.972  14.605 -0.0134  0.1423  0.6889
 3258TIP3   OH233968   5.259   4.317  15.504  0.0437 -0.4405 -0.0155
 3258TIP3    H133969   5.288   4.321  15.595  0.6171 -3.4093  0.0479
 3258TIP3    H233970   5.331   4.355  15.453 -0.5485  1.8272  0.7278
 3259TIP3   OH233971   7.922   0.102  15.205  0.0074 -0.6144 -0.3835
 3259TIP3    H133972   7.999   0.156  15.185  0.8053 -1.0678  1.2754
 3259TIP3    H233973   7.957   0.012  15.207 -0.9746 -1.0472 -1.4959
 3260TIP3   OH233974   0.853   2.237  16.149 -0.0359  0.6389 -0.0159
 3260TIP3    H133975   0.905   2.157  16.159  0.6728  1.2140  1.2210
 3260TIP3    H233976   0.774   2.221  16.201  0.1711  0.7776  0.3498
 3261TIP3   OH233977   3.430   1.569  14.497 -0.1891 -0.7095 -0.2006
 3261TIP3    H133978   3.436   1.482  14.457 -0.1719 -0.9036  0.2231
 3261TIP3    H233979   3.392   1.624  14.428  0.9807 -0.7564 -0.9238
 3262TIP3   OH233980   0.173   0.096  16.223 -0.3415 -0.1580 -0.2079
 3262TIP3    H133981   0.182   0.103  16.318 -0.9618 -0.5303 -0.1159
 3262TIP3    H233982   0.118   0.171  16.199 -0.3150 -0.1539 -0.2566
 3263TIP3   OH233983   3.459   1.215  15.871 -0.2678  0.0471  0.4057
 3263TIP3    H133984   3.446   1.279  15.941 -0.2840 -0.7162  1.1180
 3263TIP3    H233985   3.428   1.132  15.908  0.3583 -0.5031 -0.2614
 3264TIP3   OH233986   7.951   6.681  14.424 -0.8288  0.3511 -0.1683
 3264TIP3    H133987   7.893   6.610  14.453 -0.8760  0.8461  0.9771
 3264TIP3    H233988   8.037   6.640  14.415 -1.0500 -0.0579 -0.4585
 3265TIP3   OH233989   2.916   2.290  14.047  0.1133  0.2990 -0.1014
 3265TIP3    H133990   2.898   2.266  14.138 -0.3122  0.4401 -0.1461
 3265TIP3    H233991   2.993   2.238  14.024 -0.5124 -0.6776 -0.0505
 3266TIP3   OH233992   2.668   2.284  15.836 -0.6129 -0.2971 -0.2980
 3266TIP3    H133993   2.697   2.219  15.901 -1.2910 -0.1578  0.1567
 3266TIP3    H233994   2.747   2.303  15.785 -0.3844 -1.4293 -0.4033
 3267TIP3   OH233995   3.841   3.452  15.366 -0.1842  0.2217  0.6701
 3267TIP3    H133996   3.860   3.472  15.274  0.1239  0.4388  0.7782
 3267TIP3    H233997   3.838   3.357  15.370  1.7711  0.1126  0.8069
 3268TIP3   OH233998   6.857   2.062  15.330 -0.1373 -0.4627  0.0141
 3268TIP3    H133999   6.855   1.983  15.385 -0.8873  0.2049  0.9714
 3268TIP3    H234000   6.946   2.096  15.342  0.5863 -1.7547 -1.3166
 3269TIP3   OH234001   1.049   6.309  14.609  0.0299 -0.1334 -0.0665
 3269TIP3    H134002   1.137   6.337  14.634  1.0772 -2.5404 -0.8442
 3269TIP3    H234003   1.034   6.229  14.658 -1.7274  0.1813 -0.0231
 3270TIP3   OH234004   4.222   0.377  14.991 -0.0249 -0.1485 -0.3580
 3270TIP3    H134005   4.129   0.388  14.970 -0.0452 -2.2660 -1.6182
 3270TIP3    H234006   4.237   0.283  14.988  1.8572  0.0090  1.3607
 3271TIP3   OH234007   3.396   1.000  16.105 -0.7884  0.2397  0.3798
 3271TIP3    H134008   3.460   0.929  16.101  0.4145  1.3496 -1.3128
 3271TIP3    H234009   3.312   0.958  16.086 -0.0693 -0.7194 -0.8357
 3272TIP3   OH234010   5.442   1.790  14.280  0.5486  0.7930 -0.3304
 3272TIP3    H134011   5.373   1.855  14.269 -0.2759  0.0346  0.1933
 3272TIP3    H234012   5.437   1.766  14.373  0.5393 -0.3215 -0.5994
 3273TIP3   OH234013   1.944   4.056  16.032 -0.4208  0.0813 -0.0335
 3273TIP3    H134014   1.857   4.034  16.064 -1.1470  3.5816  0.8742
 3273TIP3    H234015   2.002   3.992  16.071 -2.4934 -2.1406 -0.3871
 3274TIP3   OH234016   5.952   5.949  14.736  0.0740  0.0687 -0.3608
 3274TIP3    H134017   5.958   5.980  14.826 -1.3054  1.4516 -0.6928
 3274TIP3    H234018   5.885   5.880  14.739 -0.6580  0.7580 -0.4530
 3275TIP3   OH234019   4.241   1.479  15.575 -0.4729 -0.5509 -0.3823
 3275TIP3    H134020   4.255   1.569  15.604 -0.8361 -0.5780 -0.1088
 3275TIP3    H234021   4.290   1.426  15.639 -0.1158 -0.5422 -0.6435
 3276TIP3   OH234022   3.375   7.460  15.038 -0.5299  0.1131 -0.1491
 3276TIP3    H134023   3.385   7.485  14.947 -0.0820  0.0698 -0.1156
 3276TIP3    H234024   3.431   7.521  15.086 -0.6353  0.0316  0.0799
 3277TIP3   OH234025   2.463   8.041  15.720 -0.0655 -0.3726  0.4140
 3277TIP3    H134026   2.496   7.955  15.693  0.1070 -0.5029  1.0306
 3277TIP3    H234027   2.498   8.054  15.808  0.0333  0.3990  0.2729
 3278TIP3   OH234028   6.549   7.995  15.695 -0.2015  0.4983  0.1314
 3278TIP3    H134029   6.467   7.970  15.652  0.8515 -0.9566 -1.1520
 3278TIP3    H234030   6.580   8.069  15.644 -0.3778  0.6186  0.1965
 3279TIP3   OH234031   7.146   3.024  16.101  0.8782 -0.3276  0.2471
 3279TIP3    H134032   7.155   2.930  16.111  0.9613 -0.7699 -3.0627
 3279TIP3    H234033   7.170   3.060  16.187  1.3791 -3.2428  1.4172
 3280TIP3   OH234034   5.120   5.021  14.778  0.0929  0.0086 -0.0151
 3280TIP3    H134035   5.057   5.069  14.832  1.3657  1.1877  0.5045
 3280TIP3    H234036   5.094   4.929  14.786 -1.0059  0.3759  0.9079
 3281TIP3   OH234037   8.342   1.586  14.461 -0.4585  0.0106 -0.2036
 3281TIP3    H134038   8.380   1.628  14.384 -0.7791 -1.3513 -1.1348
 3281TIP3    H234039   8.253   1.562  14.434 -0.3009 -1.2193  0.3006
 3282TIP3   OH234040   5.841   5.950  14.286  0.1569  0.0263 -0.1458
 3282TIP3    H134041   5.749   5.949  14.261 -0.0362  0.2803  0.5569
 3282TIP3    H234042   5.874   6.035  14.256  0.5784 -0.6826 -1.8373
 3283TIP3   OH234043   6.298   0.898  14.018  0.2544  0.2068 -0.1096
 3283TIP3    H134044   6.279   0.851  13.937 -2.2122 -0.0564  0.5435
 3283TIP3    H234045   6.295   0.831  14.086 -1.8007  0.9574  0.6416
 3284TIP3   OH234046   7.952   5.062  15.344 -0.1665  0.3463  0.6288
 3284TIP3    H134047   7.862   5.029  15.355  0.2616 -1.4905 -0.7742
 3284TIP3    H234048   7.942   5.140  15.290 -0.8261 -1.0787 -1.4337
 3285TIP3   OH234049   0.235   4.152  15.042  0.7016  0.3725  0.2142
 3285TIP3    H134050   0.196   4.219  14.985  1.6372  1.6851  1.0673
 3285TIP3    H234051   0.243   4.195  15.127  2.6803 -0.3258  0.4140
 3286TIP3   OH234052   5.804   3.660  15.661  0.2416  0.6845 -0.4429
 3286TIP3    H134053   5.899   3.660  15.672  0.2748  0.5211 -0.7152
 3286TIP3    H234054   5.770   3.674  15.749  0.4836 -1.3634  0.0212
 3287TIP3   OH234055   5.258   1.314  15.140 -0.6038  0.0670  0.0584
 3287TIP3    H134056   5.215   1.346  15.060  0.4245  0.2992 -0.4148
 3287TIP3    H234057   5.351   1.315  15.119 -0.2955  0.4055  1.3708
 3288TIP3   OH234058   6.465   5.062  13.616  0.4952  0.6168  0.0655
 3288TIP3    H134059   6.398   5.125  13.592  1.2795  1.6223  0.4157
 3288TIP3    H234060   6.455   5.051  13.710 -0.1234 -0.3773 -0.1085
 3289TIP3   OH234061   0.344   4.020  15.730  0.1331  0.0942 -0.2817
 3289TIP3    H134062   0.311   4.030  15.641  1.1652  1.6973 -0.5289
 3289TIP3    H234063   0.357   4.110  15.761 -1.0752 -0.4181  1.8430
 3290TIP3   OH234064   0.367   2.181  15.972  0.1205 -0.6576 -0.3086
 3290TIP3    H134065   0.422   2.119  15.925 -0.7323 -0.0817 -2.1879
 3290TIP3    H234066   0.427   2.249  16.002  0.4771  0.2036 -2.7229
 3291TIP3   OH234067   0.257   0.851  16.096 -0.9391  0.9800 -0.7212
 3291TIP3    H134068   0.168   0.885  16.083 -1.6380 -0.7030 -0.6783
 3291TIP3    H234069   0.243   0.759  16.122  0.8352  0.5592 -1.1571
 3292TIP3   OH234070   4.445   4.866  13.801  0.0833  0.6664 -0.0606
 3292TIP3    H134071   4.413   4.835  13.886  0.7569 -1.5629 -0.5364
 3292TIP3    H234072   4.522   4.918  13.822  0.2687  0.1087  0.7111
 3293TIP3   OH234073   3.693   8.199  13.766  0.2586  0.0900  0.0129
 3293TIP3    H134074   3.613   8.250  13.772  0.0870 -0.0687 -0.8296
 3293TIP3    H234075   3.762   8.265  13.752  0.0995  0.1372 -0.5880
 3294TIP3   OH234076   1.798   2.814  16.132  0.6013 -0.1628 -0.6085
 3294TIP3    H134077   1.784   2.724  16.164  0.1752 -0.1143 -0.6606
 3294TIP3    H234078   1.749   2.818  16.050 -0.7676  0.6140  0.2041
 3295TIP3   OH234079   7.356   2.209  14.629 -0.2361 -0.5653 -0.5547
 3295TIP3    H134080   7.305   2.147  14.576 -0.0955 -0.7868 -0.4341
 3295TIP3    H234081   7.388   2.274  14.566  0.0594 -0.9124 -0.7645
 3296TIP3   OH234082   6.128   7.793  15.424  0.4279  0.4740 -0.2880
 3296TIP3    H134083   6.050   7.756  15.465  0.1876  1.6802  0.3873
 3296TIP3    H234084   6.094   7.846  15.352  0.7316 -0.1312 -0.8877
 3297TIP3   OH234085   4.643   5.551  14.621  0.7464  0.3224 -0.1864
 3297TIP3    H134086   4.642   5.455  14.621 -1.7632  0.2610 -0.6025
 3297TIP3    H234087   4.668   5.574  14.531 -0.1245 -0.0302 -0.5419
 3298TIP3   OH234088   3.427   8.429  15.749  0.1831  0.0279 -0.0017
 3298TIP3    H134089   3.499   8.465  15.801  1.3153  1.9556 -2.6529
 3298TIP3    H234090   3.461   8.429  15.659 -2.9334  0.4882 -1.2964
 3299TIP3   OH234091   6.884   0.756  14.227 -0.1878 -0.1565  0.1209
 3299TIP3    H134092   6.884   0.845  14.191  0.1082 -0.0625  0.3442
 3299TIP3    H234093   6.897   0.699  14.151 -1.1980 -0.0597 -0.1296
 3300TIP3   OH234094   4.115   1.919  14.769 -0.2375  0.3604 -0.0768
 3300TIP3    H134095   4.024   1.893  14.755 -0.4384  1.1137 -0.2032
 3300TIP3    H234096   4.163   1.874  14.700 -0.1955 -1.7077  1.2135
 3301TIP3   OH234097   0.943   6.561  13.853 -0.2085 -0.1828  0.3289
 3301TIP3    H134098   0.860   6.537  13.895 -1.5988  0.5778 -1.8203
 3301TIP3    H234099   0.999   6.485  13.865 -0.6853 -0.1937  3.0402
 3302TIP3   OH234100   1.023   3.756  14.284  0.0486  0.3102  0.6045
 3302TIP3    H134101   1.011   3.819  14.355 -0.5117  0.7906  0.0998
 3302TIP3    H234102   0.936   3.747  14.245  0.4374  0.4459 -0.3251
 3303TIP3   OH234103   2.234   3.720  14.447  0.1817 -0.5829  0.6289
 3303TIP3    H134104   2.329   3.725  14.452  0.1387  0.4129  0.6263
 3303TIP3    H234105   2.209   3.792  14.388 -0.3902 -2.4554 -1.5628
 3304TIP3   OH234106   5.279   3.576  15.499 -0.0026  0.4978  0.2519
 3304TIP3    H134107   5.192   3.608  15.523 -1.6004 -1.2519 -2.5331
 3304TIP3    H234108   5.288   3.600  15.406  2.0853 -0.2067  0.2252
 3305TIP3   OH234109   0.865   4.871  14.753 -0.3106 -0.1497  0.1460
 3305TIP3    H134110   0.824   4.957  14.755  0.8721  0.4303  1.2766
 3305TIP3    H234111   0.792   4.809  14.751 -1.1819  0.8588 -0.5495
 3306TIP3   OH234112   7.907   8.341  14.643 -0.0993 -0.6160 -0.1448
 3306TIP3    H134113   7.848   8.271  14.670 -1.6293 -0.0595 -1.8391
 3306TIP3    H234114   7.867   8.378  14.564 -1.0631  4.2118  2.2294
 3307TIP3   OH234115   5.462   0.809  15.973 -0.4839 -0.2945 -0.3888
 3307TIP3    H134116   5.461   0.740  15.907  0.6289 -1.5259  0.8032
 3307TIP3    H234117   5.390   0.787  16.032 -1.2914  0.6343 -1.0126
 3308TIP3   OH234118   3.908   5.568  14.883 -0.3691 -0.0535 -0.4809
 3308TIP3    H134119   3.968   5.606  14.819  1.2298 -1.6564  0.0019
 3308TIP3    H234120   3.924   5.474  14.879  1.6007 -0.1149  3.9200
 3309TIP3   OH234121   1.579   8.017  15.952  0.0291 -0.3165  0.2421
 3309TIP3    H134122   1.549   8.010  15.862 -0.2595  0.4566  0.2646
 3309TIP3    H234123   1.527   8.089  15.989  0.8029  0.0012  0.7442
 3310TIP3   OH234124   3.533   2.424  15.654  0.0589 -0.4993  0.5430
 3310TIP3    H134125   3.574   2.386  15.732 -0.8259  0.5400  1.5642
 3310TIP3    H234126   3.571   2.376  15.581  0.8458 -1.5858  1.6181
 3311TIP3   OH234127   1.684   7.326  15.535 -0.6342  0.1254 -0.0152
 3311TIP3    H134128   1.705   7.401  15.480  0.3881  1.0605  1.5627
 3311TIP3    H234129   1.625   7.361  15.602 -1.6351 -0.9220 -0.3172
 3312TIP3   OH234130   4.120   2.774  14.040  0.4901  0.0128  0.1420
 3312TIP3    H134131   4.087   2.849  14.089 -0.6205 -0.2400 -0.2019
 3312TIP3    H234132   4.110   2.699  14.099  1.6614  0.1162  0.5112
 3313TIP3   OH234133   5.809   3.596  15.922  0.3045 -0.4348  0.2466
 3313TIP3    H134134   5.851   3.667  15.971  0.6640 -0.9496  0.6997
 3313TIP3    H234135   5.882   3.541  15.892 -0.0538 -1.6893  1.5865
 3314TIP3   OH234136   2.035   2.284  14.999 -0.0565 -0.0262 -0.2874
 3314TIP3    H134137   2.006   2.197  14.972 -0.1754  0.2320 -1.0250
 3314TIP3    H234138   2.123   2.271  15.033 -0.1738 -0.4737 -0.1466
 3315TIP3   OH234139   3.802   5.129  14.515 -0.0455  0.2395 -0.4873
 3315TIP3    H134140   3.718   5.174  14.509  0.8551  2.1743  0.5697
 3315TIP3    H234141   3.797   5.079  14.596 -0.4571 -0.2782 -0.8289
 3316TIP3   OH234142   7.350   3.085  14.790  0.0326 -0.4287  0.7357
 3316TIP3    H134143   7.352   2.991  14.809  1.9137 -0.7067 -0.6458
 3316TIP3    H234144   7.300   3.092  14.709 -1.0753 -0.0896  1.4302
 3317TIP3   OH234145   2.050   7.948  15.877 -0.4639 -0.3117  0.7457
 3317TIP3    H134146   2.000   8.018  15.919 -0.5190 -0.7152  1.3678
 3317TIP3    H234147   2.063   7.978  15.787 -0.7778  0.3423  0.9135
 3318TIP3   OH234148   3.744   3.180  13.639  0.0253 -0.2778  0.2416
 3318TIP3    H134149   3.684   3.195  13.567  0.5336  3.0131  0.3317
 3318TIP3    H234150   3.825   3.150  13.597  1.0250  3.5655 -1.0373
 3319TIP3   OH234151   5.220   6.887  15.550 -0.2036  1.0400 -0.3051
 3319TIP3    H134152   5.187   6.934  15.626 -1.7731  1.8399 -1.4390
 3319TIP3    H234153   5.279   6.950  15.507 -0.5802  1.1706 -0.6280
 3320TIP3   OH234154   6.873   3.997  14.642 -0.0232  0.0438 -0.9002
 3320TIP3    H134155   6.780   3.975  14.652  0.1537 -0.0471  0.8410
 3320TIP3    H234156   6.894   3.970  14.552 -1.2524 -1.5401 -0.7733
 3321TIP3   OH234157   7.397   5.981  14.040 -0.2398  0.5033 -0.0112
 3321TIP3    H134158   7.373   5.908  14.097 -1.4586  1.4673  0.7552
 3321TIP3    H234159   7.492   5.972  14.029 -0.2755 -0.8344  0.5630
 3322TIP3   OH234160   5.245   1.024  14.497  0.4543  0.2435 -0.1549
 3322TIP3    H134161   5.175   1.088  14.483 -0.2043 -0.6235 -0.9477
 3322TIP3    H234162   5.314   1.050  14.436 -0.4847 -0.7406 -1.6834
 3323TIP3   OH234163   6.590   7.367  13.975 -0.3966 -0.3303  0.1464
 3323TIP3    H134164   6.518   7.400  13.922  1.7920 -0.7812 -3.4271
 3323TIP3    H234165   6.639   7.445  14.001  0.3915 -0.2344 -1.5135
 3324TIP3   OH234166   7.523   1.897  15.159 -0.2098 -0.4258  0.0538
 3324TIP3    H134167   7.599   1.895  15.102 -0.1003 -0.7341  0.2100
 3324TIP3    H234168   7.545   1.963  15.226 -0.4907  0.2061 -0.4621
 3325TIP3   OH234169   7.393   6.272  15.485 -0.5581 -0.4215  0.3893
 3325TIP3    H134170   7.457   6.319  15.538 -1.3789  0.8992  0.2379
 3325TIP3    H234171   7.445   6.212  15.431  0.4070 -0.5393  1.4315
 3326TIP3   OH234172   5.629   3.280  15.324  0.2508  0.6986  0.2413
 3326TIP3    H134173   5.631   3.329  15.406 -0.7982  0.3834  0.4798
 3326TIP3    H234174   5.702   3.314  15.273  0.9678  0.8543  1.3337
 3327TIP3   OH234175   5.686   2.006  15.170 -0.3523  0.1978 -0.0763
 3327TIP3    H134176   5.739   1.927  15.179  2.0770  1.8431  0.9629
 3327TIP3    H234177   5.693   2.029  15.077 -0.0971 -0.1549 -0.1484
 3328TIP3   OH234178   5.742   6.608  13.805 -0.4071  0.9005 -0.2600
 3328TIP3    H134179   5.712   6.659  13.880 -1.0152  0.0082  0.1269
 3328TIP3    H234180   5.690   6.641  13.732  0.0945  1.6830 -0.2769
 3329TIP3   OH234181   6.150   7.799  14.219 -0.9102  0.2360  0.0560
 3329TIP3    H134182   6.130   7.739  14.148 -2.4696  0.6116  0.1408
 3329TIP3    H234183   6.123   7.753  14.299  0.4301 -0.0118  0.4062
 3330TIP3   OH234184   2.542   3.372  14.766 -0.3757  0.6303 -0.0404
 3330TIP3    H134185   2.454   3.406  14.782 -0.9156  0.7693 -2.8417
 3330TIP3    H234186   2.530   3.277  14.762 -0.5370  0.6801 -0.9783
 3331TIP3   OH234187   1.778   5.476  15.464  0.4680  0.4299 -0.6822
 3331TIP3    H134188   1.709   5.519  15.514  2.2500  3.6228 -0.7371
 3331TIP3    H234189   1.813   5.410  15.523 -1.0950  0.3232  0.1753
 3332TIP3   OH234190   6.972   4.861  15.683 -0.0719 -0.1659 -0.4802
 3332TIP3    H134191   6.921   4.809  15.621  2.7974 -2.0441 -1.4175
 3332TIP3    H234192   6.995   4.800  15.753  1.5685  0.3701 -0.5104
 3333TIP3   OH234193   2.244   1.712  14.291 -0.4230 -0.4581 -0.3702
 3333TIP3    H134194   2.226   1.786  14.349 -1.4138  0.2378 -1.5071
 3333TIP3    H234195   2.306   1.747  14.227 -1.4379 -0.3508 -1.3409
 3334TIP3   OH234196   7.972   0.304  16.391 -0.1861 -0.4560 -0.0089
 3334TIP3    H134197   8.051   0.302  16.338 -1.3169 -0.3536 -1.7716
 3334TIP3    H234198   7.981   0.384  16.444  0.6789 -0.1974 -0.5193
 3335TIP3   OH234199   5.249   0.156  15.599  0.1317  0.4448  0.1326
 3335TIP3    H134200   5.197   0.212  15.655  2.1764  1.3049  1.2748
 3335TIP3    H234201   5.223   0.180  15.510  0.5745  2.8546  0.6033
 3336TIP3   OH234202   3.109   0.095  15.563  0.1316  0.4322 -0.0423
 3336TIP3    H134203   3.127   0.022  15.622 -0.5734  2.1643  2.4375
 3336TIP3    H234204   3.014   0.091  15.548  0.2331  0.2974 -0.6775
 3337TIP3   OH234205   1.133   1.889  13.779  0.0890  0.2561  0.1719
 3337TIP3    H134206   1.094   1.826  13.840 -0.7012  1.5164  0.9996
 3337TIP3    H234207   1.212   1.920  13.824  1.1862 -1.0338 -0.7773
 3338TIP3   OH234208   6.909   6.845  13.689  0.2413 -0.6499 -0.5071
 3338TIP3    H134209   6.836   6.821  13.745 -0.3319 -0.6061 -1.2219
 3338TIP3    H234210   6.872   6.903  13.623  0.7567 -1.2143 -1.3196
 3339TIP3   OH234211   2.917   4.260  14.918  0.5479  0.2071 -0.3651
 3339TIP3    H134212   2.883   4.350  14.916  2.0991  0.8988  1.2877
 3339TIP3    H234213   2.991   4.264  14.979 -0.6241 -2.6245  1.4707
 3340TIP3   OH234214   2.694   3.313  13.745 -0.4108 -0.1254  0.2408
 3340TIP3    H134215   2.598   3.312  13.751 -0.4574 -0.3133 -0.4782
 3340TIP3    H234216   2.718   3.402  13.769 -0.8227  0.1416 -0.2949
 3341TIP3   OH234217   0.337   4.281  15.323 -0.2440 -0.0811 -0.1257
 3341TIP3    H134218   0.367   4.325  15.403 -0.4200 -0.2225  0.0175
 3341TIP3    H234219   0.343   4.349  15.256  0.4132 -0.1035 -0.1037
 3342TIP3   OH234220   5.818   4.573  15.250  0.1280  0.7636 -0.4835
 3342TIP3    H134221   5.883   4.601  15.314 -1.4570 -1.0832  2.1272
 3342TIP3    H234222   5.748   4.639  15.256  1.1270  2.0984 -2.4320
 3343TIP3   OH234223   6.173   5.081  16.024 -0.4071 -0.5011 -0.2398
 3343TIP3    H134224   6.265   5.099  16.006 -0.9204  1.1926 -1.4057
 3343TIP3    H234225   6.142   5.159  16.070 -1.0788 -1.4086  0.8867
 3344TIP3   OH234226   3.232   6.475  15.801  0.1610  0.2321 -0.1786
 3344TIP3    H134227   3.176   6.442  15.732  0.3514  1.3607 -0.9041
 3344TIP3    H234228   3.198   6.563  15.820  0.1349 -0.0374  1.1343
 3345TIP3   OH234229   5.111   7.827  14.707 -0.0147 -0.3217 -0.4943
 3345TIP3    H134230   5.091   7.806  14.798 -1.5124 -1.8417 -1.1230
 3345TIP3    H234231   5.206   7.834  14.704  0.0593 -0.3189  1.1666
 3346TIP3   OH234232   1.231   0.242  15.357  0.3401  0.0012 -0.2714
 3346TIP3    H134233   1.245   0.151  15.329  2.4993 -0.0140  0.7087
 3346TIP3    H234234   1.161   0.237  15.422  0.9811 -1.1009  0.3604
 3347TIP3   OH234235   0.061   7.752  14.703 -0.0298  0.1221  0.1683
 3347TIP3    H134236   0.147   7.764  14.743  1.2835 -0.1859 -2.3432
 3347TIP3    H234237   0.018   7.837  14.711  0.1968  0.1017  2.0273
 3348TIP3   OH234238   4.900   7.253  15.853  0.3878  0.0833  0.4669
 3348TIP3    H134239   4.868   7.187  15.915  1.2221 -0.3952  0.4038
 3348TIP3    H234240   4.879   7.218  15.767 -0.6368  0.6790  0.4569
 3349TIP3   OH234241   2.466   6.257  14.114  0.4610  0.0014 -0.0863
 3349TIP3    H134242   2.427   6.310  14.044  1.1416  3.2119  1.7667
 3349TIP3    H234243   2.547   6.303  14.137  0.0627 -0.6429  3.0506
 3350TIP3   OH234244   2.262   7.961  14.286 -0.3410 -0.1800 -0.0772
 3350TIP3    H134245   2.312   8.041  14.271 -1.1505  0.4517  0.5241
 3350TIP3    H234246   2.327   7.890  14.279  0.0982  0.3451 -2.4277
 3351TIP3   OH234247   6.093   0.312  15.596  0.2294  0.9656 -0.4150
 3351TIP3    H134248   6.168   0.322  15.654 -0.7175 -1.1485  1.3077
 3351TIP3    H234249   6.124   0.253  15.527 -0.0511 -0.7299  0.8425
 3352TIP3   OH234250   2.935   1.308  15.150 -0.0468  0.2053  0.0468
 3352TIP3    H134251   2.936   1.287  15.057  0.1179  0.1641  0.0584
 3352TIP3    H234252   2.931   1.404  15.153 -0.8046  0.1826 -0.0048
 3353TIP3   OH234253   4.322   2.857  13.868 -0.1648  0.1720  0.1245
 3353TIP3    H134254   4.369   2.778  13.844  0.2455 -0.0346  1.5587
 3353TIP3    H234255   4.250   2.827  13.923 -1.1891  0.6241 -0.9070
 3354TIP3   OH234256   5.394   4.763  14.160  0.1694 -0.4801 -0.3162
 3354TIP3    H134257   5.452   4.836  14.137  0.9725 -0.6051  1.2040
 3354TIP3    H234258   5.306   4.799  14.152  0.5319  0.4456 -0.2474
 3355TIP3   OH234259   7.700   1.229  14.492 -0.0009 -0.2445 -0.3715
 3355TIP3    H134260   7.606   1.246  14.484 -0.1634 -1.0275 -0.1735
 3355TIP3    H234261   7.740   1.316  14.485 -0.7104  0.0578 -0.8285
 3356TIP3   OH234262   2.677   7.152  14.050  0.0527 -0.1034 -0.3986
 3356TIP3    H134263   2.645   7.185  13.966 -0.3332 -2.1187 -1.1117
 3356TIP3    H234264   2.605   7.165  14.111  0.4043  1.5544 -0.2814
 3357TIP3   OH234265   6.382   2.423  14.342 -0.1267 -1.1792  0.0293
 3357TIP3    H134266   6.378   2.472  14.424  1.0546 -0.2237 -0.4661
 3357TIP3    H234267   6.290   2.413  14.316 -0.4163  0.2839  0.4296
 3358TIP3   OH234268   8.260   4.808  15.740 -0.5410  0.2790 -0.5616
 3358TIP3    H134269   8.240   4.837  15.651  0.8557 -0.4368 -1.1351
 3358TIP3    H234270   8.328   4.741  15.729 -1.6173 -1.1525  0.9036
 3359TIP3   OH234271   2.895   7.332  14.330 -0.4222 -0.1718 -0.2866
 3359TIP3    H134272   2.914   7.282  14.250  0.7447  0.1441 -0.2338
 3359TIP3    H234273   2.878   7.421  14.300 -0.0924 -0.0777 -0.2076
 3360TIP3   OH234274   7.573   3.244  14.721  0.0641 -0.1301 -0.0487
 3360TIP3    H134275   7.601   3.184  14.651 -1.4412 -1.9225  0.7933
 3360TIP3    H234276   7.486   3.214  14.745  0.1092  1.1044  1.8799
 3361TIP3   OH234277   2.210   0.778  14.429  0.2769  0.1478  0.1256
 3361TIP3    H134278   2.124   0.805  14.395  1.1058  0.0450 -2.2382
 3361TIP3    H234279   2.195   0.689  14.462 -0.5354  0.1387 -0.2345
 3362TIP3   OH234280   4.499   5.354  14.403  0.1478 -0.0407 -0.1718
 3362TIP3    H134281   4.509   5.354  14.308 -0.5243 -0.9646 -0.2593
 3362TIP3    H234282   4.498   5.447  14.428  0.7833  0.1960 -1.0093
 3363TIP3   OH234283   7.534   1.865  15.710  0.6465  0.7500 -0.4016
 3363TIP3    H134284   7.577   1.863  15.795  0.4053  0.8362 -0.2779
 3363TIP3    H234285   7.586   1.928  15.659  0.5506  1.0044 -0.1889
 3364TIP3   OH234286   2.411   3.425  14.422 -0.0915 -0.8373  0.1643
 3364TIP3    H134287   2.450   3.509  14.448 -1.9681  0.4170 -0.9067
 3364TIP3    H234288   2.401   3.431  14.327 -0.3479 -2.2456  0.0849
 3365TIP3   OH234289   0.934   4.633  14.272  0.4427  0.0146 -0.0403
 3365TIP3    H134290   0.915   4.699  14.205 -2.9882  0.9398  1.5960
 3365TIP3    H234291   0.945   4.683  14.353  1.8324 -1.2388  0.5920
 3366TIP3   OH234292   8.319   1.323  14.357  0.1935 -0.4804  0.4372
 3366TIP3    H134293   8.342   1.405  14.399 -1.0361  0.8863 -1.3460
 3366TIP3    H234294   8.226   1.333  14.336  0.5741 -1.2558 -1.9840
 3367TIP3   OH234295   6.008   6.260  13.470 -0.0255 -0.4875  0.3002
 3367TIP3    H134296   5.957   6.298  13.398 -4.9488 -2.3307  2.3978
 3367TIP3    H234297   5.972   6.300  13.549  2.3453 -1.5025  2.0269
 3368TIP3   OH234298   4.467   0.049  15.481  0.4354  0.0513  0.1511
 3368TIP3    H134299   4.380   0.047  15.441  0.8092  1.7063 -0.8562
 3368TIP3    H234300   4.526   0.068  15.408  1.7331 -1.5357  0.7226
 3369TIP3   OH234301   1.940   7.263  15.247 -0.0738  0.3419  0.0200
 3369TIP3    H134302   1.908   7.237  15.161 -1.3516  3.0306 -0.4182
 3369TIP3    H234303   2.020   7.313  15.229  1.3910 -1.6190  0.7009
 3370TIP3   OH234304   1.945   6.731  15.988 -0.4516 -0.1783 -0.0166
 3370TIP3    H134305   1.955   6.753  16.080 -0.4307 -1.3389  0.2668
 3370TIP3    H234306   1.908   6.810  15.948  0.7185  0.7748  0.7333
 3371TIP3   OH234307   3.822   5.668  15.472 -0.2995  0.0074 -0.1440
 3371TIP3    H134308   3.834   5.721  15.393 -0.1066  0.3725  0.1273
 3371TIP3    H234309   3.731   5.684  15.498  0.0672  1.0814  0.5552
 3372TIP3   OH234310   5.709   5.834  15.839 -0.1883 -0.8784 -0.4160
 3372TIP3    H134311   5.735   5.831  15.747  0.7188  1.8537 -0.3257
 3372TIP3    H234312   5.789   5.810  15.887 -0.5137 -1.7683 -0.2933
 3373TIP3   OH234313   3.618   0.289  15.003 -0.0082  0.7063  0.2828
 3373TIP3    H134314   3.682   0.361  15.001 -1.2366  1.9758  2.5522
 3373TIP3    H234315   3.656   0.226  15.065  0.8570 -0.4948 -1.3754
 3374TIP3   OH234316   4.572   7.212  16.142 -0.0738  0.0747 -0.1020
 3374TIP3    H134317   4.553   7.186  16.051 -1.0658 -1.9164  0.6061
 3374TIP3    H234318   4.491   7.252  16.173 -0.0859 -0.1800  0.2004
 3375TIP3   OH234319   5.327   0.340  16.289  0.2542  0.1188  0.6233
 3375TIP3    H134320   5.282   0.256  16.299  0.1861  0.1934  0.9684
 3375TIP3    H234321   5.420   0.319  16.289  0.2881  0.1849  2.2361
 3376TIP3   OH234322   5.012   3.847  15.364 -0.3189 -0.1941  0.4727
 3376TIP3    H134323   4.951   3.918  15.385 -1.7491 -0.9489 -0.9255
 3376TIP3    H234324   5.078   3.887  15.307 -0.3893  0.2843  0.7216
 3377TIP3   OH234325   3.998   0.665  15.021 -0.2819  0.1129  0.1066
 3377TIP3    H134326   4.047   0.679  15.102  0.7195  0.5047 -0.5360
 3377TIP3    H234327   4.005   0.749  14.975 -2.9407  0.7267  0.6823
 3378TIP3   OH234328   4.473   3.792  14.434 -0.1372  0.3967  0.6302
 3378TIP3    H134329   4.557   3.837  14.436  0.5621 -0.8236  0.0107
 3378TIP3    H234330   4.479   3.736  14.357 -1.2665 -0.1997  0.9658
 3379TIP3   OH234331   2.093   0.740  14.832 -0.3316 -0.0177  0.6736
 3379TIP3    H134332   2.027   0.678  14.862 -1.2408  1.1900  1.2251
 3379TIP3    H234333   2.050   0.787  14.760  0.3657 -0.0494  0.2282
 3380TIP3   OH234334   1.994   1.402  14.154 -0.0879 -0.6411 -0.6537
 3380TIP3    H134335   2.032   1.450  14.080 -0.4932  0.6546 -0.0648
 3380TIP3    H234336   1.900   1.408  14.140 -0.1410 -1.4515 -0.6657
 3381TIP3   OH234337   7.054   8.270  16.136 -0.5831  0.0560 -0.7777
 3381TIP3    H134338   6.970   8.315  16.131  0.1338  1.3797 -1.4894
 3381TIP3    H234339   7.119   8.341  16.136  0.5359 -0.9394 -0.3968
 3382TIP3   OH234340   2.948   4.955  14.486  0.3573  0.4911  0.2697
 3382TIP3    H134341   3.022   5.015  14.487 -1.0416  2.3117 -0.3625
 3382TIP3    H234342   2.900   4.974  14.567 -0.9863  1.4720 -0.7036
 3383TIP3   OH234343   5.942   7.661  14.092 -0.3803 -0.2040 -0.0530
 3383TIP3    H134344   5.885   7.589  14.068 -1.5569  0.0831  1.6984
 3383TIP3    H234345   5.883   7.732  14.115  0.7466  1.0843 -0.9511
 3384TIP3   OH234346   0.589   4.769  14.161  0.4473  0.0293 -0.0596
 3384TIP3    H134347   0.553   4.852  14.194  0.2111 -0.4484  0.9125
 3384TIP3    H234348   0.684   4.783  14.161  0.4256  0.1923  0.4032
 3385TIP3   OH234349   2.337   0.254  14.936  0.1585 -0.4713 -0.0070
 3385TIP3    H134350   2.427   0.286  14.933 -0.3007  0.8462 -2.6677
 3385TIP3    H234351   2.284   0.332  14.953 -0.5824 -1.0353  0.3535
 3386TIP3   OH234352   6.166   2.044  15.133  0.0356  0.2581 -0.2125
 3386TIP3    H134353   6.259   2.026  15.128  0.0665  0.2764  0.2541
 3386TIP3    H234354   6.130   1.973  15.186 -0.4230 -0.4622 -1.4403
 3387TIP3   OH234355   6.490   3.211  14.560  0.3974 -0.1998  0.3412
 3387TIP3    H134356   6.571   3.245  14.523 -0.6271  0.4724 -1.4221
 3387TIP3    H234357   6.487   3.120  14.531  0.1127  0.0288 -0.3781
 3388TIP3   OH234358   8.256   3.515  15.223 -0.3745  0.8632  0.3917
 3388TIP3    H134359   8.270   3.609  15.215 -1.2687  0.8928 -1.8734
 3388TIP3    H234360   8.160   3.505  15.221 -0.2973 -0.1666 -2.1360
 3389TIP3   OH234361   1.465   4.435  15.129  0.6607  0.0748 -0.0307
 3389TIP3    H134362   1.391   4.438  15.068  1.4997  0.5203 -1.0525
 3389TIP3    H234363   1.518   4.510  15.106  2.0047 -0.8471 -0.0607
 3390TIP3   OH234364   1.319   0.475  14.858 -0.1918  0.2921 -0.5588
 3390TIP3    H134365   1.314   0.461  14.952  1.0483 -3.3231 -0.8838
 3390TIP3    H234366   1.412   0.474  14.838 -0.4672 -1.7395 -2.0483
 3391TIP3   OH234367   2.181   2.334  15.507  0.1256 -0.0110 -0.3375
 3391TIP3    H134368   2.099   2.296  15.477  0.3026  0.2155 -1.1575
 3391TIP3    H234369   2.161   2.426  15.526 -0.1545 -0.3379  0.9949
 3392TIP3   OH234370   6.839   4.654  16.244 -0.1168  0.2867  0.1486
 3392TIP3    H134371   6.911   4.680  16.302 -0.8780  2.6551  0.1468
 3392TIP3    H234372   6.761   4.661  16.299 -0.4651 -1.4688 -0.0752
 3393TIP3   OH234373   3.279   5.892  14.899  0.1081  1.0323 -0.5524
 3393TIP3    H134374   3.310   5.982  14.906  0.0725  1.0419 -0.5185
 3393TIP3    H234375   3.345   5.848  14.845  2.1935  0.1368  2.4721
 3394TIP3   OH234376   3.518   1.869  14.887  0.0195 -0.0660  0.2243
 3394TIP3    H134377   3.555   1.949  14.850  0.0368 -0.3330 -0.3393
 3394TIP3    H234378   3.506   1.811  14.812 -0.5945 -0.3559  0.5368
 3395TIP3   OH234379   2.507   8.375  15.015 -0.0332  0.3676 -0.5998
 3395TIP3    H134380   2.493   8.433  15.090  1.0599  0.7550 -0.6842
 3395TIP3    H234381   2.593   8.337  15.030  1.0815  1.9149 -2.6046
 3396TIP3   OH234382   7.284   1.832  14.655  1.3315  0.5413 -0.2711
 3396TIP3    H134383   7.248   1.873  14.734 -1.4764 -3.5946  0.9635
 3396TIP3    H234384   7.371   1.802  14.680  0.1746 -1.4326  1.7202
 3397TIP3   OH234385   2.867   5.202  15.389  0.4929  0.0951  0.3168
 3397TIP3    H134386   2.930   5.267  15.421  1.2899 -0.1020 -0.7934
 3397TIP3    H234387   2.811   5.249  15.328  0.5892 -0.0894  0.0831
 3398TIP3   OH234388   6.661   0.406  15.925  0.8292  0.3628 -0.1097
 3398TIP3    H134389   6.750   0.441  15.930  0.5557  1.0492  0.1055
 3398TIP3    H234390   6.605   0.479  15.951  0.0673  0.5491 -2.1206
 3399TIP3   OH234391   4.002   1.765  15.779 -0.5352 -0.3472 -0.0449
 3399TIP3    H134392   4.064   1.732  15.714  0.1516  0.5169  0.1577
 3399TIP3    H234393   3.966   1.686  15.819  0.0992 -0.8722 -0.4768
 3400TIP3   OH234394   4.566   6.292  15.413 -0.3399 -0.1742 -0.2705
 3400TIP3    H134395   4.522   6.376  15.414 -0.3506 -0.1532 -1.6218
 3400TIP3    H234396   4.657   6.312  15.436 -0.6067  0.0103  0.7057
 3401TIP3   OH234397   3.727   3.253  15.153  0.4580  0.1553 -0.4626
 3401TIP3    H134398   3.647   3.282  15.197  0.0551  0.6288 -1.4667
 3401TIP3    H234399   3.762   3.183  15.209  2.2283  3.3560  2.8208
 3402TIP3   OH234400   0.159   5.345  15.698  0.2833  0.2988 -0.3621
 3402TIP3    H134401   0.223   5.384  15.757  1.1062 -1.0697 -0.3174
 3402TIP3    H234402   0.135   5.417  15.639  1.5594  0.9441 -0.1376
 3403TIP3   OH234403   3.870   1.870  14.699  0.0884 -0.1381 -0.7334
 3403TIP3    H134404   3.812   1.936  14.737 -1.3924 -1.9439  0.3009
 3403TIP3    H234405   3.811   1.808  14.657  1.4766 -0.5316 -2.1785
 3404TIP3   OH234406   1.014   4.717  16.217 -0.1161 -0.6347 -0.1333
 3404TIP3    H134407   1.071   4.642  16.232 -0.3264 -0.5848  0.9347
 3404TIP3    H234408   1.073   4.793  16.223  0.2756 -0.7264 -2.1217
 3405TIP3   OH234409   1.816   2.002  15.790  0.3459  0.2000 -0.0035
 3405TIP3    H134410   1.739   2.026  15.842  0.8414 -0.1220  0.9053
 3405TIP3    H234411   1.849   2.086  15.757 -0.8236  0.2704 -1.0502
 3406TIP3   OH234412   5.236   1.983  14.303 -0.3509  0.0311  0.2054
 3406TIP3    H134413   5.174   2.054  14.316  0.2021  0.9532 -1.7850
 3406TIP3    H234414   5.322   2.024  14.314 -0.0445 -0.5382  0.0124
 3407TIP3   OH234415   5.875   7.714  15.516  0.7516  0.0115  0.4747
 3407TIP3    H134416   5.851   7.633  15.471  0.5256 -0.2747  1.1067
 3407TIP3    H234417   5.792   7.748  15.550  0.9204  0.2247  0.6740
 3408TIP3   OH234418   2.940   3.846  14.370 -0.6895  0.3903 -0.7629
 3408TIP3    H134419   2.950   3.915  14.304 -4.9410  2.2786  0.1981
 3408TIP3    H234420   2.949   3.892  14.454  0.9876 -1.2587  0.0354
 3409TIP3   OH234421   7.327   7.532  14.551 -1.2843  0.5010 -0.2193
 3409TIP3    H134422   7.233   7.528  14.570 -1.6419  0.2074 -1.8818
 3409TIP3    H234423   7.353   7.440  14.541 -0.8075  0.5822  0.1843
 3410TIP3   OH234424   5.964   6.585  14.535 -0.0856 -0.4774  0.1249
 3410TIP3    H134425   6.039   6.539  14.498  0.9593  1.2208  0.0182
 3410TIP3    H234426   5.892   6.523  14.529  1.1464 -1.9097 -0.4136
 3411TIP3   OH234427   4.078   1.259  15.899  0.3120  0.1016  0.2542
 3411TIP3    H134428   4.016   1.223  15.837 -0.4226  1.0167  0.4307
 3411TIP3    H234429   4.098   1.188  15.960 -1.0330 -0.0383  0.5508
 3412TIP3   OH234430   3.767   1.561  14.168  0.1322 -0.0046 -0.1338
 3412TIP3    H134431   3.772   1.653  14.142 -0.4138  0.1283  0.2017
 3412TIP3    H234432   3.764   1.513  14.085  1.8836  0.1669 -0.3228
 3413TIP3   OH234433   1.329   2.782  15.854 -0.2033  0.0484 -0.5992
 3413TIP3    H134434   1.303   2.828  15.774 -3.0846 -2.2686 -1.1384
 3413TIP3    H234435   1.270   2.815  15.921 -0.0385 -0.4456 -0.2083
 3414TIP3   OH234436   5.957   7.898  15.113  0.4879 -0.0587  0.1765
 3414TIP3    H134437   5.974   7.992  15.119 -0.0348 -0.0499  2.4624
 3414TIP3    H234438   5.865   7.892  15.087  0.8085  0.0161 -1.0420
 3415TIP3   OH234439   3.497   1.769  13.575  0.3022 -0.2948  0.0346
 3415TIP3    H134440   3.581   1.786  13.619  0.9842 -0.7458 -1.0527
 3415TIP3    H234441   3.449   1.714  13.637  1.5878 -1.6505 -0.1052
 3416TIP3   OH234442   5.898   1.767  14.295  0.6109  0.5386  0.0975
 3416TIP3    H134443   5.968   1.758  14.231 -0.1547 -2.3387 -0.4887
 3416TIP3    H234444   5.818   1.759  14.244 -0.0191 -1.7465  1.2971
 3417TIP3   OH234445   3.529   2.856  15.481  0.4944  0.9018  0.4392
 3417TIP3    H134446   3.542   2.781  15.539 -0.5673  1.5981  1.6393
 3417TIP3    H234447   3.614   2.869  15.439  0.3427 -1.8695 -0.9692
 3418TIP3   OH234448   6.840   2.100  15.678  0.1514  0.1374  0.1166
 3418TIP3    H134449   6.835   2.012  15.718 -1.9020 -0.2590 -0.8686
 3418TIP3    H234450   6.795   2.157  15.741 -1.6383 -0.1952 -0.8029
 3419TIP3   OH234451   4.868   0.848  15.287  0.2779  0.0049  0.0837
 3419TIP3    H134452   4.891   0.770  15.338 -0.9144 -0.2520  0.2484
 3419TIP3    H234453   4.825   0.906  15.350  4.1478  2.3873  0.8958
 3420TIP3   OH234454   0.704   8.176  15.208  0.0059 -0.1442  0.5147
 3420TIP3    H134455   0.610   8.178  15.192  0.2327  1.0942 -0.8541
 3420TIP3    H234456   0.742   8.151  15.124  1.0008  1.5073  0.4241
 3421TIP3   OH234457   7.474   1.491  15.227  0.3722 -0.3441  0.2082
 3421TIP3    H134458   7.382   1.497  15.253  0.3842  1.0502  0.0358
 3421TIP3    H234459   7.490   1.397  15.215 -0.8879 -0.6441  0.7110
 3422TIP3   OH234460   0.942   7.375  15.423 -0.4256  0.7113 -0.2257
 3422TIP3    H134461   0.913   7.285  15.415  0.3181  0.5714 -1.6257
 3422TIP3    H234462   0.918   7.401  15.513  0.4458 -1.2397  0.6168
 3423TIP3   OH234463   3.229   5.428  15.810  0.2989 -0.2253  0.2446
 3423TIP3    H134464   3.300   5.364  15.811  1.7036  1.2529  2.0074
 3423TIP3    H234465   3.263   5.502  15.759 -0.2921  0.1674  0.3980
 3424TIP3   OH234466   2.931   6.300  15.116 -0.8414  0.4123  0.1139
 3424TIP3    H134467   2.893   6.229  15.064  0.3544 -0.0441 -0.1538
 3424TIP3    H234468   3.023   6.302  15.091 -0.6262  1.3548  0.9205
 3425TIP3   OH234469   2.439   2.230  13.627 -0.3141 -0.1173 -0.3293
 3425TIP3    H134470   2.344   2.227  13.618 -0.3085 -0.3593 -0.3107
 3425TIP3    H234471   2.470   2.154  13.578 -0.0460  0.6757 -1.4461
 3426TIP3   OH234472   2.427   0.487  14.324  0.5047 -0.5188  0.3160
 3426TIP3    H134473   2.500   0.484  14.386  0.9722  2.4775  0.0571
 3426TIP3    H234474   2.466   0.469  14.239  1.0813  1.2226  0.1583
 3427TIP3   OH234475   6.089   0.035  14.695 -0.9879  0.3771 -0.1496
 3427TIP3    H134476   6.052   0.054  14.609 -1.2415 -1.1463 -0.3917
 3427TIP3    H234477   6.050  -0.048  14.721  0.2379  0.0560  0.7657
 3428TIP3   OH234478   7.921   4.001  15.163 -0.5328 -0.1102 -0.3843
 3428TIP3    H134479   7.986   4.071  15.165  0.0199 -0.4441 -2.9449
 3428TIP3    H234480   7.841   4.041  15.197  0.5163  0.8317  1.0748
 3429TIP3   OH234481   7.501   6.936  14.408  0.3784 -0.0153  0.1661
 3429TIP3    H134482   7.523   6.977  14.324 -1.4506  0.5335 -0.0974
 3429TIP3    H234483   7.411   6.905  14.397  0.8019 -1.8009  1.2598
 3430TIP3   OH234484   1.580   5.631  15.599  0.3275  0.4833  0.1115
 3430TIP3    H134485   1.568   5.693  15.671 -0.0479 -0.5262  0.9498
 3430TIP3    H234486   1.565   5.683  15.520 -1.4145  1.1619  0.8281
 3431TIP3   OH234487   6.726   2.376  15.570  0.4087  0.3503  0.1008
 3431TIP3    H134488   6.725   2.342  15.660  0.7864  0.1246  0.0189
 3431TIP3    H234489   6.744   2.470  15.580  0.6158  0.2946  0.2491
 3432TIP3   OH234490   7.678   6.151  15.397  0.0794  0.1919  0.1230
 3432TIP3    H134491   7.748   6.202  15.355 -0.4727  0.8102 -0.0658
 3432TIP3    H234492   7.695   6.061  15.371  1.9208  0.0522  1.6208
 3433TIP3   OH234493   1.100   4.039  14.807 -0.0851  0.0274  0.3087
 3433TIP3    H134494   1.068   4.089  14.732  0.2615 -1.4753 -0.9014
 3433TIP3    H234495   1.195   4.040  14.797 -0.0745 -0.8234  0.2945
 3434TIP3   OH234496   5.825   4.430  14.465  0.6016  0.1237 -0.0048
 3434TIP3    H134497   5.831   4.381  14.384  1.0397  0.8774 -0.4424
 3434TIP3    H234498   5.757   4.495  14.450 -0.5476 -0.8442  0.8529
 3435TIP3   OH234499   6.452   3.911  15.625  0.1349  0.1280  0.4401
 3435TIP3    H134500   6.535   3.927  15.669  0.4922  0.7743 -0.4532
 3435TIP3    H234501   6.425   3.997  15.593 -0.6405 -0.1594  0.3050
 3436TIP3   OH234502   1.841   8.154  14.906 -0.3768  0.0521 -0.0866
 3436TIP3    H134503   1.774   8.105  14.953  0.7597 -1.1911  0.2871
 3436TIP3    H234504   1.856   8.232  14.959 -1.6814  0.4823 -0.3123
 3437TIP3   OH234505   6.697   1.246  15.048  0.1342  0.3551 -0.7412
 3437TIP3    H134506   6.669   1.173  14.992  1.2595 -0.7524  0.0741
 3437TIP3    H234507   6.617   1.297  15.062 -0.6352 -0.5864 -1.5284
 3438TIP3   OH234508   0.186   4.679  16.256  0.5406  0.5294 -0.1302
 3438TIP3    H134509   0.221   4.625  16.327 -0.2823  0.8927  0.5744
 3438TIP3    H234510   0.119   4.733  16.298 -0.6341  0.0777 -1.3846
 3439TIP3   OH234511   6.863   4.357  15.950 -0.4354 -0.4100  0.4795
 3439TIP3    H134512   6.893   4.293  15.885  0.0203  1.2439 -1.0143
 3439TIP3    H234513   6.777   4.386  15.917 -0.6860 -0.3096  1.1915
 3440TIP3   OH234514   1.579   1.629  14.900 -0.1522 -0.2203  0.2273
 3440TIP3    H134515   1.659   1.660  14.859 -0.6125  0.0408 -0.4768
 3440TIP3    H234516   1.590   1.652  14.993 -0.5585  2.2464 -0.2848
 3441TIP3   OH234517   5.365   6.033  14.761  0.0103  0.5368  0.4009
 3441TIP3    H134518   5.303   6.098  14.794 -0.8311  0.3533 -0.7991
 3441TIP3    H234519   5.362   6.041  14.666 -0.0027 -1.1632  0.2270
 3442TIP3   OH234520   7.651   4.225  14.927 -0.3450  1.1596 -0.0583
 3442TIP3    H134521   7.600   4.149  14.955  1.6053  0.3434  1.4923
 3442TIP3    H234522   7.685   4.200  14.840  0.6028  0.0326  0.5987
 3443TIP3   OH234523   1.144   5.692  14.328  0.1225  0.6800  0.3282
 3443TIP3    H134524   1.068   5.648  14.292 -0.7127  2.1974  0.1358
 3443TIP3    H234525   1.114   5.782  14.345  1.5654  1.0261  1.2442
 3444TIP3   OH234526   1.460   6.216  13.616 -0.8072  1.0600 -0.1160
 3444TIP3    H134527   1.490   6.306  13.608  0.1012  0.6092 -2.4483
 3444TIP3    H234528   1.375   6.215  13.574 -1.1273  0.9352  0.5131
 3445TIP3   OH234529   2.938   0.115  15.287 -0.4626  0.8508 -0.5472
 3445TIP3    H134530   3.021   0.110  15.238 -0.4382 -0.4910 -0.3963
 3445TIP3    H234531   2.926   0.027  15.323 -1.5199  1.2721  0.1642
 3446TIP3   OH234532   5.921   2.041  14.819 -0.3420 -0.7288 -0.7888
 3446TIP3    H134533   5.833   2.056  14.855 -0.3545 -0.1486 -1.0416
 3446TIP3    H234534   5.904   2.008  14.730 -0.3067 -1.1903 -0.6239
 3447TIP3   OH234535   3.926   2.928  16.060 -0.0161  0.1779 -0.5467
 3447TIP3    H134536   3.837   2.960  16.048 -0.7805 -1.4477  0.5417
 3447TIP3    H234537   3.967   2.991  16.118 -0.4112  0.9874 -1.1302
 3448TIP3   OH234538   6.625   5.765  15.394 -0.6061  0.3957 -0.6506
 3448TIP3    H134539   6.713   5.769  15.356 -0.8783  2.0562 -1.2160
 3448TIP3    H234540   6.577   5.706  15.336  0.3310 -1.1857  0.1428
 3449TIP3   OH234541   6.476   4.975  15.384  0.1886 -0.4592 -0.3163
 3449TIP3    H134542   6.568   4.962  15.406  0.4120 -1.5189 -1.7794
 3449TIP3    H234543   6.428   4.937  15.458  0.8868  0.5741  0.7100
 3450TIP3   OH234544   0.618   3.077  16.170 -0.1138  0.1246 -0.0867
 3450TIP3    H134545   0.629   3.100  16.263 -1.6048  3.3287 -0.5657
 3450TIP3    H234546   0.568   2.995  16.172  1.3501 -0.8228  1.8625
 3451TIP3   OH234547   5.933   3.102  15.159  0.1136  0.2516 -0.2338
 3451TIP3    H134548   5.858   3.139  15.113  0.3168  0.9509 -0.0104
 3451TIP3    H234549   5.917   3.124  15.251 -0.9799 -2.2667  0.2666
 3452TIP3   OH234550   4.660   2.069  16.014 -0.4303 -0.3232 -0.2462
 3452TIP3    H134551   4.713   2.109  15.945  1.5243 -0.9402  0.8502
 3452TIP3    H234552   4.575   2.113  16.006 -0.1420 -0.0550 -2.7292
 3453TIP3   OH234553   0.691   0.790  15.290  0.4557  0.0137  0.0885
 3453TIP3    H134554   0.743   0.854  15.338  0.0355  1.0183 -0.7720
 3453TIP3    H234555   0.631   0.754  15.356 -0.7814  2.0709  0.1507
 3454TIP3   OH234556   5.203   0.705  15.082 -0.3227 -0.5195 -0.0119
 3454TIP3    H134557   5.257   0.655  15.144 -0.8621 -0.8700  0.1825
 3454TIP3    H234558   5.265   0.760  15.035  0.3858 -1.8265 -0.6702
 3455TIP3   OH234559   3.621   4.630  14.944 -0.0176  0.6797  0.2285
 3455TIP3    H134560   3.576   4.715  14.943 -0.3020  0.5281 -0.2277
 3455TIP3    H234561   3.588   4.584  14.867 -0.1942 -0.0162  0.7010
 3456TIP3   OH234562   2.679   1.572  16.169 -0.0340  0.4759 -0.5381
 3456TIP3    H134563   2.681   1.512  16.243  0.8478  1.4240  0.2373
 3456TIP3    H234564   2.737   1.532  16.104  0.9232  0.6838  0.1571
 3457TIP3   OH234565   3.029   3.648  15.529 -0.1353  0.2878 -0.2004
 3457TIP3    H134566   2.979   3.611  15.456 -0.9319 -2.3770  1.5434
 3457TIP3    H234567   2.982   3.620  15.607  1.6628  1.5068  1.4219
 3458TIP3   OH234568   1.844   5.843  15.286 -0.1673  0.3926 -0.1716
 3458TIP3    H134569   1.848   5.907  15.357 -0.7474  0.0881  0.1437
 3458TIP3    H234570   1.935   5.826  15.264  0.1096 -0.6973  1.5911
 3459TIP3   OH234571   3.041   7.968  13.794 -0.7689  0.6694 -0.6428
 3459TIP3    H134572   3.041   7.899  13.861  0.3292  1.1304 -0.1541
 3459TIP3    H234573   2.951   7.968  13.761 -0.6568 -1.4013 -1.0899
 3460TIP3   OH234574   2.174   0.351  14.261  0.4296 -0.2329 -0.3272
 3460TIP3    H134575   2.164   0.438  14.223  2.3090 -1.1993 -3.4085
 3460TIP3    H234576   2.269   0.336  14.261  0.2008 -1.9838  0.9320
 3461TIP3   OH234577   2.108   3.681  14.670 -0.7029 -0.0111  0.5594
 3461TIP3    H134578   2.134   3.702  14.581  1.4035  0.4951  1.2464
 3461TIP3    H234579   2.075   3.764  14.706 -1.2825 -0.1491  0.3592
 3462TIP3   OH234580   4.416   1.081  15.747  0.2517  0.2217  0.3352
 3462TIP3    H134581   4.463   1.028  15.811  0.3374  0.1294  0.1963
 3462TIP3    H234582   4.377   1.017  15.687 -0.1007  0.2939  0.4826
 3463TIP3   OH234583   7.311   7.792  14.319  0.0734  0.3652 -0.1536
 3463TIP3    H134584   7.267   7.732  14.259  1.4141  0.6738 -1.4985
 3463TIP3    H234585   7.240   7.836  14.366 -1.1200  1.4640 -2.8169
 3464TIP3   OH234586   0.809   3.341  14.464 -0.2179  0.0388  0.1373
 3464TIP3    H134587   0.816   3.391  14.383  1.2250  0.6568  0.6249
 3464TIP3    H234588   0.849   3.396  14.531 -2.2203 -0.0398  1.5059
 3465TIP3   OH234589   5.744   0.837  15.762 -0.1806  0.3483 -0.2839
 3465TIP3    H134590   5.800   0.812  15.689  0.5745 -1.0615  0.7348
 3465TIP3    H234591   5.714   0.926  15.740  0.5756  0.2284 -1.9495
 3466TIP3   OH234592   3.874   6.725  14.703  0.7122  0.6651 -0.4660
 3466TIP3    H134593   3.906   6.638  14.727 -1.1839  0.3836  1.3485
 3466TIP3    H234594   3.936   6.786  14.743  0.9773  0.1450 -0.0797
 3467TIP3   OH234595   0.614   2.913  14.715 -0.2183  0.3295  0.3346
 3467TIP3    H134596   0.703   2.915  14.748 -0.7217  3.5416  1.9307
 3467TIP3    H234597   0.559   2.921  14.793 -1.8332 -0.1126 -0.7107
 3468TIP3   OH234598   7.618   3.956  14.872 -0.5730 -0.6096 -0.4741
 3468TIP3    H134599   7.623   3.893  14.800 -1.2794 -1.5754  0.3075
 3468TIP3    H234600   7.525   3.978  14.878 -0.3345  0.5330 -0.7414
 3469TIP3   OH234601   0.113   3.421  13.697  0.0055 -0.0340 -0.2362
 3469TIP3    H134602   0.093   3.338  13.742  1.3688 -1.3997 -1.9731
 3469TIP3    H234603   0.059   3.486  13.741 -0.5573 -1.7094  1.7106
 3470TIP3   OH234604   3.883   2.007  15.905  0.2331  0.1417  0.4539
 3470TIP3    H134605   3.923   1.943  15.846  0.1856  1.6535 -1.3100
 3470TIP3    H234606   3.951   2.029  15.968  1.5761  1.1399 -1.2484
 3471TIP3   OH234607   7.945   1.988  15.106  0.2005 -0.5889  0.3173
 3471TIP3    H134608   7.885   1.973  15.178 -2.4200  0.9186 -1.4063
 3471TIP3    H234609   7.962   2.082  15.107  0.9050 -0.6968 -0.4319
 3472TIP3   OH234610   6.109   0.254  14.848  0.0037 -0.6943 -0.0283
 3472TIP3    H134611   6.201   0.226  14.848 -0.4109 -2.1336  0.4441
 3472TIP3    H234612   6.061   0.180  14.810 -0.9021  0.3026 -0.8923
 3473TIP3   OH234613   6.117   2.256  13.971  0.3097 -0.0233 -0.0873
 3473TIP3    H134614   6.086   2.302  14.048 -1.3999  1.5541 -1.6113
 3473TIP3    H234615   6.097   2.315  13.898  2.1950 -1.2622 -1.7270
 3474TIP3   OH234616   1.994   4.189  14.921 -0.3064  0.1488 -0.1071
 3474TIP3    H134617   1.987   4.208  15.015 -3.6486  0.7438 -0.3231
 3474TIP3    H234618   2.085   4.165  14.907 -0.1184 -2.1269  3.6876
 3475TIP3   OH234619   7.741   3.610  14.916 -0.1027 -0.1022  0.5693
 3475TIP3    H134620   7.710   3.657  14.838  2.3289 -0.0032 -0.4333
 3475TIP3    H234621   7.711   3.663  14.989  1.0947  2.2023 -0.4827
 3476TIP3   OH234622   2.849   7.687  13.812 -0.5445  0.5389 -0.3497
 3476TIP3    H134623   2.776   7.626  13.819 -1.4652  1.5734 -0.7941
 3476TIP3    H234624   2.810   7.769  13.783  0.5095  1.6452  1.1681
 3477TIP3   OH234625   2.051   8.284  15.763  0.0013  0.6130 -0.4847
 3477TIP3    H134626   2.036   8.301  15.855 -0.3811 -1.9685  0.0138
 3477TIP3    H234627   1.970   8.242  15.733  0.2151  1.1863 -1.9367
 3478TIP3   OH234628   6.752   7.030  15.855 -0.0413 -0.3292 -0.4601
 3478TIP3    H134629   6.816   7.092  15.820 -2.6910  2.4250 -0.9416
 3478TIP3    H234630   6.703   7.000  15.778 -0.7312 -0.6168  0.0720
 3479TIP3   OH234631   1.004   7.464  14.369 -0.8985  0.1562  0.5706
 3479TIP3    H134632   1.065   7.508  14.311 -0.6512  1.4068  1.7419
 3479TIP3    H234633   0.922   7.460  14.319 -0.5959  0.8950 -0.0005
 3480TIP3   OH234634   5.716   7.308  14.186 -0.4546  0.1109  0.6743
 3480TIP3    H134635   5.698   7.402  14.191  1.8702  0.7247 -0.9020
 3480TIP3    H234636   5.785   7.300  14.120 -0.7794 -2.7590  0.5477
 3481TIP3   OH234637   2.159   0.568  14.109  0.7789 -0.1082  0.0699
 3481TIP3    H134638   2.077   0.605  14.077  0.5049 -0.4697  0.3370
 3481TIP3    H234639   2.227   0.620  14.067  0.4167  0.0229 -0.3645
 3482TIP3   OH234640   2.401   7.617  15.445  0.0234 -0.0309 -1.5982
 3482TIP3    H134641   2.416   7.626  15.539  1.9852 -0.7256 -1.7908
 3482TIP3    H234642   2.320   7.664  15.429 -0.5905 -0.2565  0.5049
 3483TIP3   OH234643   2.327   6.075  14.840  0.1765 -0.4802  0.1739
 3483TIP3    H134644   2.284   6.030  14.767  0.4607 -0.2140 -0.1577
 3483TIP3    H234645   2.399   6.124  14.800 -0.2039  0.3736  0.5187
 3484TIP3   OH234646   5.311   7.313  14.563  0.3159 -0.0291 -0.0474
 3484TIP3    H134647   5.334   7.249  14.630  0.5176 -0.2117 -0.2902
 3484TIP3    H234648   5.388   7.318  14.507 -0.3780 -1.0070 -1.1476
 3485TIP3   OH234649   3.224   8.172  13.767 -0.3779  0.0671  0.2417
 3485TIP3    H134650   3.302   8.126  13.799  0.7427  1.3049 -0.6066
 3485TIP3    H234651   3.154   8.107  13.773  0.7834 -1.1954  0.7007
 3486TIP3   OH234652   4.267   6.467  13.809 -0.2203  0.3082 -0.0859
 3486TIP3    H134653   4.280   6.374  13.792 -0.1213  0.2034  0.5412
 3486TIP3    H234654   4.176   6.483  13.781 -0.9093 -0.4230  1.5628
 3487TIP3   OH234655   5.959   8.045  13.776 -0.5115 -0.5510  0.1192
 3487TIP3    H134656   5.896   8.019  13.843 -4.0290 -0.1846 -2.7150
 3487TIP3    H234657   5.991   7.962  13.740  0.1209 -0.7372  1.0645
 3488TIP3   OH234658   7.336   2.686  14.322 -0.2616  0.0614 -0.3399
 3488TIP3    H134659   7.316   2.660  14.231 -0.4333  2.2784 -0.9868
 3488TIP3    H234660   7.371   2.774  14.314 -0.8693  0.5358  1.8281
 3489TIP3   OH234661   7.418   0.314  14.952  0.6787  0.1591  0.0657
 3489TIP3    H134662   7.352   0.380  14.973  0.0302  0.5456 -2.7608
 3489TIP3    H234663   7.368   0.242  14.914  1.7868  0.1490 -1.4506
 3490TIP3   OH234664   3.844   3.975  15.014 -0.1646  0.1834 -0.1017
 3490TIP3    H134665   3.826   4.017  14.930 -0.2392  0.0787 -0.1384
 3490TIP3    H234666   3.876   4.046  15.070 -2.4947  0.7882  0.5616
 3491TIP3   OH234667   0.690   5.802  15.397 -0.0958  0.5539 -0.7113
 3491TIP3    H134668   0.603   5.804  15.357 -0.5496 -1.5023  0.0512
 3491TIP3    H234669   0.713   5.894  15.409 -1.7996  1.1523 -1.6878
 3492TIP3   OH234670   2.757   6.714  13.945  0.0431  0.1346 -0.2485
 3492TIP3    H134671   2.683   6.748  13.896  1.1609 -0.0099 -2.1581
 3492TIP3    H234672   2.826   6.702  13.879  1.8226  0.4128  1.4567
 3493TIP3   OH234673   7.298   6.800  13.978 -0.0230  0.1147 -0.2452
 3493TIP3    H134674   7.235   6.871  13.967  1.0283  1.2744  0.8236
 3493TIP3    H234675   7.245   6.723  13.994 -1.2090  1.2512  1.7554
 3494TIP3   OH234676   6.512   4.829  14.481  0.0026 -0.1655  0.4429
 3494TIP3    H134677   6.531   4.841  14.388 -0.8279  0.0111  0.2811
 3494TIP3    H234678   6.417   4.841  14.487 -0.2039 -1.8185  1.0532
 3495TIP3   OH234679   8.007   5.173  14.965  0.4757  0.1838  0.0384
 3495TIP3    H134680   7.972   5.243  15.021  0.2694  0.4623 -0.4391
 3495TIP3    H234681   7.980   5.196  14.877 -1.6191 -1.6764  0.0962
 3496TIP3   OH234682   8.296   0.402  15.534  0.1366 -0.0790  0.2627
 3496TIP3    H134683   8.282   0.332  15.598 -1.6619 -0.4055 -0.4323
 3496TIP3    H234684   8.314   0.480  15.587  0.6034 -0.7357  1.0883
 3497TIP3   OH234685   1.498   4.640  14.650  0.0486 -0.4748  1.0568
 3497TIP3    H134686   1.484   4.621  14.742 -0.9688 -0.9450  0.8188
 3497TIP3    H234687   1.593   4.634  14.638  0.4769  1.9296  2.5533
 3498TIP3   OH234688   4.782   5.330  14.413 -0.8066  0.2178  0.3114
 3498TIP3    H134689   4.830   5.380  14.347  0.5786  0.3673  1.3882
 3498TIP3    H234690   4.690   5.352  14.398 -0.3929  1.4038 -0.6106
 3499TIP3   OH234691   7.280   0.496  14.625  0.2202 -0.5106  0.1033
 3499TIP3    H134692   7.202   0.489  14.571 -0.2103 -0.1071  0.6689
 3499TIP3    H234693   7.300   0.589  14.629  0.3411 -0.5489  0.5070
 3500TIP3   OH234694   0.000   4.813  16.425  0.1855  0.3851  0.0614
 3500TIP3    H134695  -0.059   4.753  16.471 -0.8068 -1.2168 -3.0022
 3500TIP3    H234696  -0.027   4.900  16.453 -1.9507 -0.4215  0.6904
 3501TIP3   OH234697   5.086   6.277  15.836 -0.1738  0.4167 -0.2173
 3501TIP3    H134698   5.164   6.276  15.779 -1.2701 -3.3882 -1.9677
 3501TIP3    H234699   5.117   6.239  15.919  0.0564 -0.2202 -0.5864
 3502TIP3   OH234700   5.712   1.366  14.803  0.7721  0.6532 -0.0877
 3502TIP3    H134701   5.801   1.383  14.834  1.0924 -0.0734 -0.5588
 3502TIP3    H234702   5.694   1.276  14.831  0.0284  0.9286  0.3436
 3503TIP3   OH234703   4.759   4.941  15.146 -0.1487  0.6405  0.1117
 3503TIP3    H134704   4.673   4.919  15.110 -0.5117  0.7077  0.9053
 3503TIP3    H234705   4.805   4.857  15.151 -0.6198  0.4159  0.8171
 3504TIP3   OH234706   5.121   5.641  15.481  0.1937  0.4221  0.1567
 3504TIP3    H134707   5.089   5.567  15.531 -1.0527  0.6514 -0.2754
 3504TIP3    H234708   5.172   5.602  15.410 -0.9697 -0.0651 -0.4270
 3505TIP3   OH234709   3.717   5.828  14.370 -0.5658 -0.0352  0.0621
 3505TIP3    H134710   3.670   5.821  14.287 -0.2838 -0.6349 -0.0579
 3505TIP3    H234711   3.759   5.742  14.380 -1.4998 -0.3668  1.3801
 3506TIP3   OH234712   2.010   0.287  13.688  0.3778  0.0736  0.6782
 3506TIP3    H134713   2.017   0.232  13.610 -2.0705 -0.2873  0.6276
 3506TIP3    H234714   2.084   0.260  13.743 -0.0785 -2.4850  0.1696
 3507TIP3   OH234715   3.019   4.790  15.739 -0.4228  0.0169  0.4230
 3507TIP3    H134716   2.955   4.785  15.810 -0.4074  0.6851  0.4881
 3507TIP3    H234717   2.987   4.859  15.682  0.9084  1.3149  1.1527
 3508TIP3   OH234718   3.187   4.887  14.691  0.4534 -0.1892  0.5970
 3508TIP3    H134719   3.224   4.970  14.720 -0.4184  0.6878 -0.6898
 3508TIP3    H234720   3.095   4.891  14.718 -0.2069  0.3510 -1.5207
 3509TIP3   OH234721   0.597   2.859  14.218 -0.5577 -0.0841  0.2688
 3509TIP3    H134722   0.618   2.813  14.299  0.8314  0.4966  0.2683
 3509TIP3    H234723   0.658   2.822  14.153 -0.2840  0.8567 -0.0242
 3510TIP3   OH234724   8.117   8.068  14.673  0.0053  0.1326  0.9082
 3510TIP3    H134725   8.158   8.142  14.629 -0.2247 -0.2963 -0.0385
 3510TIP3    H234726   8.036   8.051  14.624  0.5589 -1.3975  0.4511
 3511TIP3   OH234727   2.809   2.765  16.124  0.7685 -0.2751  0.6383
 3511TIP3    H134728   2.734   2.758  16.066  0.7269 -0.3635  0.7032
 3511TIP3    H234729   2.778   2.731  16.208  0.9602 -0.5695  0.5922
 3512TIP3   OH234730   1.678   4.331  14.202  0.0978  0.4866  0.2010
 3512TIP3    H134731   1.614   4.400  14.218 -0.7653  0.0501 -1.1851
 3512TIP3    H234732   1.629   4.262  14.159  0.9507 -1.0057  1.4832
 3513TIP3   OH234733   5.906   0.345  15.975  0.2654  0.6254 -0.6770
 3513TIP3    H134734   5.888   0.381  15.889  0.7952  1.8024 -0.3276
 3513TIP3    H234735   5.948   0.417  16.023  0.7655 -0.2629  0.2809
 3514TIP3   OH234736   2.470   4.415  15.916 -0.0646 -0.6508 -0.0148
 3514TIP3    H134737   2.535   4.395  15.984  1.5719 -2.2097 -1.9314
 3514TIP3    H234738   2.386   4.390  15.956  0.4024  1.2821  2.4643
 3515TIP3   OH234739   7.738   8.137  14.710 -0.0754  0.5655 -0.5638
 3515TIP3    H134740   7.735   8.057  14.762  1.4280  0.4230 -0.6414
 3515TIP3    H234741   7.660   8.186  14.737  0.4048  0.2893  1.4895
 3516TIP3   OH234742   1.745   1.690  13.927  0.2710 -0.2920  0.1246
 3516TIP3    H134743   1.732   1.701  14.021  0.8894 -0.5757  0.2466
 3516TIP3    H234744   1.753   1.779  13.893  0.0233 -0.1893  0.3327
 3517TIP3   OH234745   1.538   0.923  14.681 -0.4229 -0.0199  0.0254
 3517TIP3    H134746   1.462   0.879  14.719 -0.3786 -0.4803 -0.4050
 3517TIP3    H234747   1.578   0.971  14.754  0.0073 -1.3634  0.6966
 3518TIP3   OH234748   5.533   7.930  13.908  0.2374  0.1467 -0.4287
 3518TIP3    H134749   5.552   7.842  13.940  0.5963 -0.4374 -2.1454
 3518TIP3    H234750   5.442   7.945  13.930  0.4756 -0.2017  0.8611
 3519TIP3   OH234751   2.806   0.108  14.314  0.0384 -0.5012  0.2248
 3519TIP3    H134752   2.875   0.112  14.248  1.5068  0.2309  1.7069
 3519TIP3    H234753   2.782   0.200  14.329 -1.5767 -0.7686 -0.5416
 3520TIP3   OH234754   0.790   0.939  15.494  0.6894 -0.0801 -0.5761
 3520TIP3    H134755   0.844   1.018  15.484 -0.1248  0.3747 -1.7312
 3520TIP3    H234756   0.700   0.973  15.503  0.5699 -0.8080  1.5049
 3521TIP3   OH234757   3.930   0.503  15.790  0.0023  0.5323  0.3474
 3521TIP3    H134758   3.991   0.430  15.801 -1.1145 -0.5277 -0.2364
 3521TIP3    H234759   3.941   0.556  15.869  0.7693 -0.3225  0.8338
 3522TIP3   OH234760   5.546   1.350  15.033  0.4408  0.1284 -0.2840
 3522TIP3    H134761   5.584   1.377  14.949 -0.3275  0.9532 -0.3775
 3522TIP3    H234762   5.597   1.273  15.058  0.3552 -0.4457 -1.7580
 3523TIP3   OH234763   2.911   2.270  15.280 -0.2588  0.4119 -0.2227
 3523TIP3    H134764   2.956   2.319  15.349  0.8489 -1.6142  0.5802
 3523TIP3    H234765   2.819   2.291  15.291  0.1038  1.6390  0.6243
 3524TIP3   OH234766   4.876   3.242  14.611  0.2182 -0.7342 -0.0545
 3524TIP3    H134767   4.789   3.279  14.598  0.3738  0.1344  1.1368
 3524TIP3    H234768   4.900   3.206  14.526 -0.5344  0.6718 -0.9074
 3525TIP3   OH234769   2.260   3.287  15.939  0.2958 -0.5045  0.3623
 3525TIP3    H134770   2.196   3.285  16.010  1.1999  1.0461  1.2735
 3525TIP3    H234771   2.320   3.214  15.958 -0.5196 -1.2498  0.1342
 3526TIP3   OH234772   4.662   2.030  15.692 -0.0308  0.6896 -0.7054
 3526TIP3    H134773   4.732   2.086  15.724 -1.1801  1.9926 -0.4052
 3526TIP3    H234774   4.608   2.012  15.769  0.5984 -1.3216 -0.6691
 3527TIP3   OH234775   7.720   0.337  15.867 -0.3218 -0.3104 -0.8095
 3527TIP3    H134776   7.797   0.338  15.924 -1.6776  2.0888  1.1605
 3527TIP3    H234777   7.655   0.285  15.915 -0.0861 -2.1428 -2.3591
 3528TIP3   OH234778   7.868   3.067  14.633 -0.1953 -0.5920  0.3162
 3528TIP3    H134779   7.825   3.105  14.557  0.1078 -1.7212 -0.4447
 3528TIP3    H234780   7.905   3.142  14.680 -1.2203  0.2047 -0.1151
 3529TIP3   OH234781   1.278   6.263  14.094  0.1504 -0.4365  0.2391
 3529TIP3    H134782   1.321   6.212  14.025 -1.6275 -0.9876 -0.5201
 3529TIP3    H234783   1.298   6.354  14.072  1.2443 -0.6891  0.1407
 3530TIP3   OH234784   5.198   0.100  16.321 -0.0924  0.0245 -0.0586
 3530TIP3    H134785   5.115   0.067  16.287  0.8892 -1.5329 -1.0705
 3530TIP3    H234786   5.237   0.027  16.368  0.0112  1.2257  1.8148
 3531TIP3   OH234787   4.249   4.363  15.494  0.6695  0.3830  0.6656
 3531TIP3    H134788   4.335   4.400  15.474  0.6900 -0.3365 -0.7129
 3531TIP3    H234789   4.189   4.438  15.487  1.3185  1.2256  3.1738
 3532TIP3   OH234790   1.345   5.983  15.845  0.3697 -0.1337  0.0544
 3532TIP3    H134791   1.282   5.936  15.790  0.9202 -0.3221 -0.4269
 3532TIP3    H234792   1.316   6.075  15.841  0.5311 -0.1094 -0.7345
 3533TIP3   OH234793   2.232   8.398  14.299  0.7161  0.2149 -0.7043
 3533TIP3    H134794   2.160   8.441  14.253  0.6843 -0.1069 -0.9564
 3533TIP3    H234795   2.291   8.370  14.229  1.1241  0.5438 -0.4965
 3534TIP3   OH234796   1.656   2.573  14.964 -0.6500  0.0795 -0.0968
 3534TIP3    H134797   1.683   2.517  15.037  0.1696  0.0593 -0.4083
 3534TIP3    H234798   1.680   2.524  14.886  0.9787  1.2761 -0.3759
 3535TIP3   OH234799   1.425   3.933  15.897 -0.7490 -0.3802  0.2499
 3535TIP3    H134800   1.393   3.998  15.834  1.3313 -1.2032 -1.7969
 3535TIP3    H234801   1.511   3.967  15.924 -0.1711 -1.6576  0.0858
 3536TIP3   OH234802   5.667   5.840  15.271 -0.1142  0.4097 -0.3248
 3536TIP3    H134803   5.576   5.833  15.301 -0.2054 -0.2279 -0.7342
 3536TIP3    H234804   5.689   5.753  15.240 -0.3774  1.2091 -3.0261
 3537TIP3   OH234805   4.020   6.554  13.769 -0.3161 -0.1250 -0.5022
 3537TIP3    H134806   3.978   6.623  13.820  1.3657  0.9755 -0.5543
 3537TIP3    H234807   3.986   6.567  13.680  0.5251  1.1259 -0.6646
 3538TIP3   OH234808   2.465   6.139  15.553 -0.5951  0.3131 -0.1281
 3538TIP3    H134809   2.396   6.087  15.512 -0.4882 -0.5439  0.7633
 3538TIP3    H234810   2.428   6.228  15.557 -0.4898  0.5076 -2.3282
 3539TIP3   OH234811   1.039   2.527  14.996 -0.4100 -0.2723  0.5811
 3539TIP3    H134812   0.990   2.445  14.989 -1.4881  0.2455  1.6619
 3539TIP3    H234813   0.978   2.594  14.965  0.6818  0.0680 -0.8928
 3540TIP3   OH234814   6.545   1.866  15.750 -0.1004  0.1876 -0.0039
 3540TIP3    H134815   6.544   1.777  15.786  0.3408  0.3084  0.3209
 3540TIP3    H234816   6.581   1.856  15.662  0.5162  0.1079  0.2454
 3541TIP3   OH234817   4.599   0.554  14.618 -0.0070  0.4128 -0.1366
 3541TIP3    H134818   4.654   0.476  14.617 -0.3137  0.1563  1.0615
 3541TIP3    H234819   4.510   0.520  14.611 -0.2417  0.5005  1.7500
 3542TIP3   OH234820   6.091   6.350  15.546 -0.3109 -0.5171 -0.0808
 3542TIP3    H134821   6.183   6.327  15.535 -0.4687 -0.5788 -1.4718
 3542TIP3    H234822   6.055   6.282  15.602  0.1066 -1.5196 -0.9844
 3543TIP3   OH234823   0.307   8.095  14.415 -0.0476  0.1841 -0.4922
 3543TIP3    H134824   0.276   8.009  14.445 -0.3156  0.7520  0.9023
 3543TIP3    H234825   0.360   8.075  14.338 -0.7447 -1.1643 -0.6525
 3544TIP3   OH234826   7.432   0.807  15.924  0.7925  0.5161 -0.0299
 3544TIP3    H134827   7.410   0.780  16.013 -0.6895  0.9297 -0.2498
 3544TIP3    H234828   7.524   0.782  15.914  0.4965 -1.1890  0.9939
 3545TIP3   OH234829   4.834   3.544  14.527 -0.1240  0.2335  0.4077
 3545TIP3    H134830   4.787   3.596  14.462 -0.9201  0.8219  1.4310
 3545TIP3    H234831   4.790   3.460  14.527 -0.3949  0.3742  0.4881
 3546TIP3   OH234832   7.323   7.228  15.725  0.4709  0.4518  0.0687
 3546TIP3    H134833   7.399   7.187  15.767 -0.4679 -0.6736  0.6997
 3546TIP3    H234834   7.248   7.203  15.779 -0.5408  0.4368 -1.2913
 3547TIP3   OH234835   4.899   6.090  13.860  0.2509  0.1825  0.5246
 3547TIP3    H134836   4.898   6.185  13.846  0.8999  0.0371 -0.6573
 3547TIP3    H234837   4.807   6.065  13.857  0.0439  0.8104  1.2050
 3548TIP3   OH234838   4.411   0.291  14.239 -0.4089  0.8499  0.1828
 3548TIP3    H134839   4.434   0.282  14.331 -1.0170  0.4770  0.3048
 3548TIP3    H234840   4.466   0.363  14.207  2.1101 -0.9922  0.0511
 3549TIP3   OH234841   6.928   3.201  14.679  0.2938 -0.3027  0.4494
 3549TIP3    H134842   6.964   3.173  14.595 -1.4032 -1.1330 -0.0417
 3549TIP3    H234843   6.992   3.172  14.744  1.3763 -0.1056 -0.5028
 3550TIP3   OH234844   3.284   8.288  15.310  0.5088  0.2822 -0.3457
 3550TIP3    H134845   3.211   8.267  15.369  0.3039  1.6741 -0.0797
 3550TIP3    H234846   3.362   8.256  15.356  0.2187  0.1221  0.0447
 3551TIP3   OH234847   6.453   1.114  13.957  0.2999  0.0718 -0.1255
 3551TIP3    H134848   6.405   1.196  13.952  1.0520  0.4945 -0.8460
 3551TIP3    H234849   6.386   1.046  13.959 -0.3336  0.6448 -1.1062
 3552TIP3   OH234850   8.015   1.048  16.083  0.0058  0.6614  0.2056
 3552TIP3    H134851   7.938   1.083  16.039  1.4675  2.5783 -0.9837
 3552TIP3    H234852   8.060   0.996  16.016  0.5105  0.7712  0.4532
 3553TIP3   OH234853   0.418   1.335  16.254 -0.2664 -0.1167  0.5877
 3553TIP3    H134854   0.347   1.310  16.195 -0.4580  0.5456  0.5360
 3553TIP3    H234855   0.393   1.421  16.287  0.8944  0.4835 -0.0527
 3554TIP3   OH234856   8.266   2.184  14.036 -0.3602 -0.2215  0.1671
 3554TIP3    H134857   8.174   2.180  14.064  0.2381  1.5343  2.7386
 3554TIP3    H234858   8.314   2.204  14.116  2.1336  0.3492 -1.3831
 3555TIP3   OH234859   2.809   3.360  15.774 -0.1180  0.4615  0.6247
 3555TIP3    H134860   2.871   3.339  15.844 -1.2381 -0.0478  1.5010
 3555TIP3    H234861   2.802   3.455  15.776  1.2410  0.6088 -0.0560
 3556TIP3   OH234862   1.291   7.003  15.084  0.0602  0.5025  0.3959
 3556TIP3    H134863   1.217   6.973  15.136 -1.2079  1.6195 -0.6814
 3556TIP3    H234864   1.269   6.978  14.994 -1.0666  4.3332 -0.5995
 3557TIP3   OH234865   6.976   7.201  14.302 -0.5503  0.0704 -0.0546
 3557TIP3    H134866   6.922   7.178  14.226 -1.9845  0.3985  0.8286
 3557TIP3    H234867   6.914   7.206  14.375  0.6930  0.4274  1.0093
 3558TIP3   OH234868   2.200   7.325  14.589 -0.0533  0.1119 -0.0276
 3558TIP3    H134869   2.147   7.265  14.641  0.0906 -1.1415 -1.2686
 3558TIP3    H234870   2.194   7.291  14.500  3.0032 -0.2550 -0.1889
 3559TIP3   OH234871   5.246   4.442  15.954 -0.1585 -0.5030  0.2913
 3559TIP3    H134872   5.199   4.387  15.892 -1.2476  0.2250  0.4430
 3559TIP3    H234873   5.198   4.525  15.953  3.1560  1.6721 -2.3332
 3560TIP3   OH234874   7.445   4.426  14.915  0.1950 -0.1788 -0.3354
 3560TIP3    H134875   7.487   4.512  14.909 -0.3845  0.0090 -2.5839
 3560TIP3    H234876   7.518   4.364  14.909  0.3890  0.1696 -2.3585
 3561TIP3   OH234877   4.901   4.021  15.907 -0.2944 -0.8037  0.5663
 3561TIP3    H134878   4.835   3.991  15.845 -1.8903  0.0955  1.7627
 3561TIP3    H234879   4.859   4.092  15.955  2.4766  1.8405 -0.5524
 3562TIP3   OH234880   0.408   7.403  14.182 -0.0710  0.7211 -0.8352
 3562TIP3    H134881   0.498   7.395  14.149  0.3035 -0.1969  0.3586
 3562TIP3    H234882   0.392   7.497  14.184  0.6978  0.8793 -1.4789
 3563TIP3   OH234883   1.287   2.341  15.622 -0.2986  0.3474  0.0169
 3563TIP3    H134884   1.352   2.391  15.572 -1.2104  1.6280  0.0643
 3563TIP3    H234885   1.335   2.311  15.699  1.5252 -2.7839 -2.0830
 3564TIP3   OH234886   0.481   6.417  14.115  0.1691 -0.4044 -0.2562
 3564TIP3    H134887   0.455   6.349  14.053 -0.1474 -0.0761 -0.4879
 3564TIP3    H234888   0.465   6.378  14.201 -0.8915 -0.2945 -0.3892
 3565TIP3   OH234889   8.414   5.064  15.606 -0.1838 -0.1717  0.4795
 3565TIP3    H134890   8.494   5.031  15.647  0.2612  0.0839 -0.1539
 3565TIP3    H234891   8.344   5.011  15.643  0.5829 -2.5352 -1.2256
 3566TIP3   OH234892   6.501   0.551  15.472  0.1374  0.1805 -0.4098
 3566TIP3    H134893   6.430   0.603  15.511  0.1293  0.0804 -0.2904
 3566TIP3    H234894   6.579   0.606  15.483  0.4913 -0.6296  1.4573
 3567TIP3   OH234895   5.919   0.130  15.686  0.5007 -0.5177 -0.2336
 3567TIP3    H134896   5.984   0.195  15.659  1.3656 -1.4632 -0.4984
 3567TIP3    H234897   5.922   0.064  15.618 -1.0588 -0.3794 -0.4555
 3568TIP3   OH234898   3.443   7.259  15.225  0.5407  0.0513  0.2074
 3568TIP3    H134899   3.407   7.311  15.153  0.3694  0.3686  0.5150
 3568TIP3    H234900   3.379   7.269  15.296 -0.7481 -2.5611 -0.4916
 3569TIP3   OH234901   3.542   1.392  15.031 -0.1464 -0.6269 -0.0530
 3569TIP3    H134902   3.532   1.455  15.103 -0.9370  0.4362 -1.0631
 3569TIP3    H234903   3.453   1.361  15.014 -0.2175  0.2799 -1.5450
 3570TIP3   OH234904   5.395   6.103  15.449  0.1099  0.4571  0.3008
 3570TIP3    H134905   5.377   6.130  15.359 -0.0394  3.3840  1.1211
 3570TIP3    H234906   5.368   6.011  15.452  0.1707  0.2489 -2.6220
 3571TIP3   OH234907   4.758   0.987  15.471  0.0432 -0.3935 -0.4886
 3571TIP3    H134908   4.716   1.069  15.447  1.2055 -0.2588 -2.3137
 3571TIP3    H234909   4.727   0.968  15.559 -1.9637  0.8695 -0.8564
 3572TIP3   OH234910   6.362   8.326  15.845 -0.1091  0.6364  0.2207
 3572TIP3    H134911   6.426   8.318  15.915 -0.4872 -1.2575  0.3943
 3572TIP3    H234912   6.415   8.330  15.765  0.2694 -1.9612  0.2736
 3573TIP3   OH234913   7.632   1.066  15.873 -0.3548  0.3635  0.2133
 3573TIP3    H134914   7.700   1.132  15.886  2.1544 -2.1343  0.8503
 3573TIP3    H234915   7.554   1.103  15.914  0.6536  3.2241 -0.2359
 3574TIP3   OH234916   2.214   0.887  13.506  0.8505  0.0140  0.0348
 3574TIP3    H134917   2.251   0.956  13.450  1.2961  0.3877  0.7813
 3574TIP3    H234918   2.202   0.813  13.447 -0.3490  0.9469 -0.9659
 3575TIP3   OH234919   4.660   5.057  14.908  0.4365  0.5869  0.1584
 3575TIP3    H134920   4.570   5.040  14.878  1.1756  1.4986 -2.8769
 3575TIP3    H234921   4.691   4.972  14.938 -1.3022  0.1741  0.9093
 3576TIP3   OH234922   3.824   1.291  15.343 -0.5268 -0.1245 -0.3911
 3576TIP3    H134923   3.847   1.351  15.272 -1.6029  0.8163  0.0249
 3576TIP3    H234924   3.866   1.329  15.420 -1.6499  0.4419 -0.0258
 3577TIP3   OH234925   2.679   5.563  15.097  0.1486 -0.0488 -0.1571
 3577TIP3    H134926   2.596   5.514  15.090  1.8774 -3.0753 -1.3899
 3577TIP3    H234927   2.669   5.634  15.034 -1.6318 -0.1364 -0.0463
 3578TIP3   OH234928   1.926   7.628  15.723  0.2341  0.6863  0.7470
 3578TIP3    H134929   1.851   7.687  15.710  0.4118  0.9519  0.9226
 3578TIP3    H234930   1.911   7.588  15.808  0.1380  0.5130  0.6488
 3579TIP3   OH234931   1.107   4.773  15.416 -0.2507 -0.2956 -0.2954
 3579TIP3    H134932   1.124   4.850  15.472  0.7002  0.4878 -1.5981
 3579TIP3    H234933   1.182   4.715  15.432 -0.1246 -0.2002 -0.5344
 3580TIP3   OH234934   4.121   4.393  16.032  0.0351  0.0272  0.2220
 3580TIP3    H134935   4.172   4.400  16.113 -1.8199 -2.8739  1.7839
 3580TIP3    H234936   4.166   4.326  15.981  0.6023  1.1090 -0.7422
 3581TIP3   OH234937   5.392   3.835  15.457 -0.2119 -0.1224 -0.2787
 3581TIP3    H134938   5.437   3.911  15.419 -1.0322  0.4537 -0.1406
 3581TIP3    H234939   5.449   3.761  15.437  0.8418  0.5854 -0.0160
 3582TIP3   OH234940   4.443   7.527  15.916  0.2983  0.4955 -0.9483
 3582TIP3    H134941   4.467   7.485  15.998  0.0564 -0.0140 -1.1305
 3582TIP3    H234942   4.383   7.598  15.942 -0.8963 -0.5325 -0.7727
 3583TIP3   OH234943   6.948   1.394  15.055  0.7934  0.3133 -0.1892
 3583TIP3    H134944   6.953   1.429  15.144  3.2388 -2.1337  0.7793
 3583TIP3    H234945   6.864   1.347  15.053  0.4819  0.8026  0.6305
 3584TIP3   OH234946   2.508   0.739  15.335  0.4002  0.1637 -0.3930
 3584TIP3    H134947   2.532   0.829  15.358 -0.1820  0.4719 -0.9767
 3584TIP3    H234948   2.575   0.686  15.378  0.6626  0.8598  0.0965
 3585TIP3   OH234949   4.884   0.059  14.330 -0.2132  0.9086 -0.2405
 3585TIP3    H134950   4.965   0.076  14.281  1.4465 -2.6663  0.9325
 3585TIP3    H234951   4.829   0.012  14.267 -0.1207  0.6908 -0.1603
 3586TIP3   OH234952   8.448   8.443  16.006  0.7848  0.0155 -0.8542
 3586TIP3    H134953   8.424   8.526  15.963 -2.5944 -0.3319  0.0859
 3586TIP3    H234954   8.484   8.469  16.091  0.3983  0.5407 -0.8471
 3587TIP3   OH234955   8.390   4.077  15.168  0.1590 -0.1716 -0.2637
 3587TIP3    H134956   8.319   4.099  15.228  1.4224  0.2352  1.1771
 3587TIP3    H234957   8.439   4.159  15.158  0.2424 -0.3601 -1.4807
 3588TIP3   OH234958   2.442   5.409  15.085  0.6648 -0.3486 -0.0949
 3588TIP3    H134959   2.348   5.400  15.103  0.6957  0.3614  0.4460
 3588TIP3    H234960   2.447   5.421  14.990  0.3357 -1.9138 -0.3463
 3589TIP3   OH234961   2.999   5.434  14.004 -0.3310  0.1993 -0.1607
 3589TIP3    H134962   3.056   5.361  14.027  0.2535  0.9291  0.7406
 3589TIP3    H234963   2.913   5.408  14.036 -0.4378 -0.6994 -1.1067
 3590TIP3   OH234964   6.187   2.727  15.005 -0.5017 -0.1216 -0.4886
 3590TIP3    H134965   6.169   2.688  15.091  0.7463 -1.3067 -0.7271
 3590TIP3    H234966   6.102   2.755  14.973 -1.1439 -0.6848  0.6645
 3591TIP3   OH234967   7.656   2.589  15.095  0.0529 -0.0735 -0.1148
 3591TIP3    H134968   7.697   2.609  15.179  1.1888  0.3030 -0.7323
 3591TIP3    H234969   7.586   2.527  15.117 -0.1663  0.6039  1.1865
 3592TIP3   OH234970   2.535   6.207  14.731  0.1707 -0.2392  0.7354
 3592TIP3    H134971   2.477   6.253  14.670  1.2268 -0.6637 -0.6353
 3592TIP3    H234972   2.555   6.273  14.798 -0.2551  0.5440  0.1194
 3593TIP3   OH234973   5.665   6.109  15.562 -0.0140  0.2043  0.6208
 3593TIP3    H134974   5.689   6.016  15.566 -0.1587  0.1171 -0.2980
 3593TIP3    H234975   5.579   6.110  15.520 -1.0337  0.6167  2.5991
 3594TIP3   OH234976   5.287   2.982  14.948 -0.1925 -0.0670 -0.2484
 3594TIP3    H134977   5.287   3.021  15.035 -0.8803 -0.5475 -0.0281
 3594TIP3    H234978   5.211   3.021  14.905 -0.8290 -1.0937 -0.0579
 3595TIP3   OH234979   1.925   4.171  14.222  0.1657  0.3807  0.6732
 3595TIP3    H134980   1.901   4.091  14.177 -0.2003  1.4530 -1.1298
 3595TIP3    H234981   1.843   4.218  14.234  0.6404  1.6761 -0.7647
 3596TIP3   OH234982   7.372   5.583  15.330 -0.3645 -0.4640 -0.3512
 3596TIP3    H134983   7.371   5.576  15.234  2.8328  3.2755 -0.9269
 3596TIP3    H234984   7.292   5.631  15.351 -0.6868 -0.5876 -1.2273
 3597TIP3   OH234985   0.073   4.976  15.139 -0.5211 -0.6959  0.0357
 3597TIP3    H134986   0.110   4.920  15.208  1.2392 -1.4126 -1.3962
 3597TIP3    H234987   0.019   5.039  15.186 -0.7035 -2.1440  1.9217
 3598TIP3   OH234988   7.481   5.749  15.540  0.3448  0.4067 -0.5867
 3598TIP3    H134989   7.405   5.778  15.590 -0.4734 -0.6401 -1.1716
 3598TIP3    H234990   7.444   5.696  15.469  1.7009 -1.9838  0.3434
 3599TIP3   OH234991   0.329   5.246  15.310 -0.2953  0.1234  0.2042
 3599TIP3    H134992   0.406   5.249  15.254 -0.1839 -1.1608  0.2442
 3599TIP3    H234993   0.360   5.204  15.391 -0.3430  2.3537  1.4531
 3600TIP3   OH234994   1.002   7.191  13.832  0.7560  0.3334  0.6761
 3600TIP3    H134995   1.097   7.186  13.845  0.4272 -1.8709  3.1024
 3600TIP3    H234996   0.972   7.254  13.897  0.5391  1.4063 -0.4190
 3601TIP3   OH234997   7.885   5.304  15.245  0.7093 -0.3069  0.2210
 3601TIP3    H134998   7.830   5.324  15.321  0.3725 -0.3129 -0.0172
 3601TIP3    H234999   7.852   5.362  15.176  2.6918  1.6109  0.7689
 3602TIP3   OH235000   6.587   6.788  15.291  0.0482 -0.5955 -0.4196
 3602TIP3    H135001   6.522   6.858  15.289  0.4867 -0.1232  0.8313
 3602TIP3    H235002   6.665   6.829  15.327  0.1490 -1.8388  0.8874
 3603TIP3   OH235003   7.096   0.528  16.282 -0.1790 -0.5317  0.3572
 3603TIP3    H135004   7.095   0.520  16.378  1.4729 -2.0535  0.3122
 3603TIP3    H235005   7.175   0.481  16.256  0.0534  0.8757 -1.6885
 3604TIP3   OH235006   1.271   7.166  13.958 -0.1736  0.0800  0.2526
 3604TIP3    H135007   1.277   7.074  13.984 -0.4502 -0.3843 -1.2817
 3604TIP3    H235008   1.237   7.210  14.036  0.6343 -0.9769  1.2562
 3605TIP3   OH235009   4.638   3.029  15.839  0.9381 -0.1570 -0.1965
 3605TIP3    H135010   4.706   3.089  15.867  1.5435 -0.5880 -0.7042
 3605TIP3    H235011   4.683   2.965  15.784  0.1426 -0.5036 -0.4725
 3606TIP3   OH235012   5.496   5.674  15.480 -0.0007  0.8473 -0.0178
 3606TIP3    H135013   5.431   5.741  15.460  1.1067  2.5053  1.6445
 3606TIP3    H235014   5.447   5.591  15.476 -1.4892  1.7261 -1.7562
 3607TIP3   OH235015   2.541   3.608  15.063  0.1900 -0.3306 -0.5738
 3607TIP3    H135016   2.536   3.529  15.117  3.0032  1.1618  2.2352
 3607TIP3    H235017   2.629   3.606  15.026 -0.0760  0.9747 -1.3385
 3608TIP3   OH235018   0.656   0.329  14.573  0.5399 -0.4563  0.4606
 3608TIP3    H135019   0.667   0.247  14.525 -2.5986 -0.3499 -0.6458
 3608TIP3    H235020   0.568   0.324  14.610  0.1503  2.5152  0.1699
 3609TIP3   OH235021   1.346   3.588  15.131 -0.4717 -0.6428 -0.0826
 3609TIP3    H135022   1.304   3.525  15.072  0.3138  0.8675 -2.3668
 3609TIP3    H235023   1.274   3.626  15.182 -1.1322 -2.1653  0.1828
 3610TIP3   OH235024   3.084   7.999  15.744  0.1367  0.1910 -0.1951
 3610TIP3    H135025   3.037   7.919  15.724  0.7362 -0.3496  0.4975
 3610TIP3    H235026   3.153   7.972  15.806  1.3453  0.9502 -1.1575
 3611TIP3   OH235027   3.559   3.363  15.542  0.1103 -0.1567 -0.9896
 3611TIP3    H135028   3.494   3.330  15.604  2.1610 -2.7183 -0.0262
 3611TIP3    H235029   3.533   3.325  15.458 -0.4527  0.0888 -0.9358
 3612TIP3   OH235030   5.364   6.215  15.194  0.2965 -0.0187  0.3105
 3612TIP3    H135031   5.366   6.305  15.159  0.2758  0.0431  0.4667
 3612TIP3    H235032   5.429   6.168  15.141 -1.3033 -0.4854 -1.3193
 3613TIP3   OH235033   7.322   0.992  15.777 -0.1299  0.0784  0.1187
 3613TIP3    H135034   7.227   0.980  15.777 -0.3262  1.4461 -0.5285
 3613TIP3    H235035   7.356   0.916  15.826 -1.4521 -1.1445 -0.7739
 3614TIP3   OH235036   2.998   4.231  15.304  0.1060  0.3304 -0.1324
 3614TIP3    H135037   2.919   4.191  15.267  0.1631  1.0592 -1.0946
 3614TIP3    H235038   2.966   4.308  15.351  0.3086  1.2078 -1.3834
 3615TIP3   OH235039   6.218   6.797  14.544  0.1849  0.3327 -0.0351
 3615TIP3    H135040   6.152   6.859  14.514  0.4020  0.5750 -0.0144
 3615TIP3    H235041   6.197   6.715  14.500  0.5767  0.7117 -0.9486
 3616TIP3   OH235042   4.991   5.462  13.796  0.0078 -0.2785 -0.3058
 3616TIP3    H135043   4.964   5.500  13.879 -0.6017 -1.4421  0.0362
 3616TIP3    H235044   4.928   5.495  13.732 -0.4705 -0.6426 -0.0243
 3617TIP3   OH235045   6.345   7.927  15.160  0.6187  0.5764  0.0046
 3617TIP3    H135046   6.299   7.983  15.221 -0.0857 -0.6231  0.6075
 3617TIP3    H235047   6.280   7.904  15.094  0.5969 -0.3771  0.3455
 3618TIP3   OH235048   0.092   2.654  15.677  0.1956  0.6071 -0.1652
 3618TIP3    H135049   0.047   2.734  15.702  1.0002  1.6022 -1.6975
 3618TIP3    H235050   0.035   2.583  15.707 -2.1346  1.7788 -1.5308
 3619TIP3   OH235051   5.424   2.074  15.217  0.1240  0.1379 -0.4996
 3619TIP3    H135052   5.411   2.102  15.126  3.1365  2.3650 -0.3932
 3619TIP3    H235053   5.518   2.061  15.226 -0.0384  0.2095  2.3493
 3620TIP3   OH235054   2.592   5.968  14.492 -0.3950  0.4608  0.0663
 3620TIP3    H135055   2.618   6.003  14.407 -0.0684  1.1566  0.4462
 3620TIP3    H235056   2.672   5.971  14.545 -0.3058 -1.0559  0.0564
 3621TIP3   OH235057   7.196   5.337  14.483 -0.0549 -0.2760  0.0784
 3621TIP3    H135058   7.116   5.325  14.432  0.6993  1.2508 -1.6104
 3621TIP3    H235059   7.201   5.261  14.540 -1.8452 -1.2202 -0.9518
 3622TIP3   OH235060   6.657   4.041  15.744  0.3227  0.0260 -0.3557
 3622TIP3    H135061   6.712   4.051  15.666  1.9528 -1.3993  0.5611
 3622TIP3    H235062   6.718   4.043  15.818 -0.7244 -2.2919  0.6794
 3623TIP3   OH235063   0.312   6.357  15.494  0.2332  0.8411  0.0226
 3623TIP3    H135064   0.258   6.341  15.571  1.5234 -2.0333  0.4787
 3623TIP3    H235065   0.298   6.449  15.473 -3.2154  0.7412  1.2873
 3624TIP3   OH235066   4.655   1.577  14.091  0.1347 -1.1163 -0.4027
 3624TIP3    H135067   4.711   1.655  14.099 -0.2180 -0.9160  0.2991
 3624TIP3    H235068   4.613   1.586  14.006  2.3706 -2.1120 -1.7026
 3625TIP3   OH235069   7.747   0.974  14.569  0.9034  0.4514  0.2564
 3625TIP3    H135070   7.676   0.912  14.588  1.4352 -0.6151 -1.1234
 3625TIP3    H235071   7.708   1.060  14.588 -0.5805 -0.1383  0.0612
 3626TIP3   OH235072   3.898   7.096  15.526  0.0024  0.0489  0.3415
 3626TIP3    H135073   3.939   7.025  15.576 -1.1096 -0.5143  0.4723
 3626TIP3    H235074   3.811   7.063  15.504  0.0826  0.7003 -1.0779
 3627TIP3   OH235075   4.430   0.293  14.608  0.1530 -0.0710  0.6635
 3627TIP3    H135076   4.496   0.274  14.542 -1.3245  0.1230 -0.9355
 3627TIP3    H235077   4.441   0.223  14.673  2.0750  0.1108  0.6076
 3628TIP3   OH235078   0.369   0.093  14.854 -0.3593  0.5056  0.5174
 3628TIP3    H135079   0.390   0.075  14.945  0.4759  0.6514  0.3577
 3628TIP3    H235080   0.275   0.075  14.847 -0.0960 -1.1730  0.9860
 3629TIP3   OH235081   7.092   0.739  15.853  0.4736 -0.3304 -0.0916
 3629TIP3    H135082   7.041   0.819  15.851 -2.3637 -2.0078  0.0820
 3629TIP3    H235083   7.111   0.724  15.946  1.1958  0.2163 -0.1436
 3630TIP3   OH235084   6.051   0.562  16.108  0.6497  0.0679  0.3762
 3630TIP3    H135085   6.060   0.633  16.173 -0.0137  0.1861  0.3433
 3630TIP3    H235086   6.135   0.561  16.062  0.6647  0.8368  0.3761
 3631TIP3   OH235087   4.569   3.064  14.754 -0.3394  0.0810 -0.1264
 3631TIP3    H135088   4.568   3.159  14.742 -1.2841 -0.0371 -1.1525
 3631TIP3    H235089   4.617   3.051  14.836 -0.1623  1.4354  0.0154
 3632TIP3   OH235090   7.965   2.661  14.236 -0.3936 -0.1274  0.4636
 3632TIP3    H135091   7.904   2.672  14.164 -0.1404  0.3860  0.3226
 3632TIP3    H235092   7.966   2.566  14.253 -1.0604 -0.1593  0.3302
 3633TIP3   OH235093   6.623   6.730  14.988 -0.3179  0.2011  0.3121
 3633TIP3    H135094   6.672   6.647  14.994  0.8335  0.8623  0.3553
 3633TIP3    H235095   6.584   6.741  15.074 -0.8711 -0.5174  0.1694
 3634TIP3   OH235096   3.311   3.064  14.924 -0.1754  0.2493  0.0984
 3634TIP3    H135097   3.343   3.032  15.008  0.5353  1.0234  0.1318
 3634TIP3    H235098   3.298   3.158  14.937  0.2475  0.4306 -0.7457
 3635TIP3   OH235099   1.207   5.162  14.929 -0.1359 -0.5815  0.0468
 3635TIP3    H135100   1.187   5.132  15.018 -0.9543 -2.9756 -0.8539
 3635TIP3    H235101   1.292   5.206  14.937  0.7011 -2.3259  1.7607
 3636TIP3   OH235102   6.524   4.898  14.217 -0.5351  0.0359  0.7051
 3636TIP3    H135103   6.587   4.917  14.147  0.4682  2.1642  2.0972
 3636TIP3    H235104   6.440   4.890  14.172  0.5241 -2.2668 -1.1316
 3637TIP3   OH235105   1.028   0.103  15.804 -0.2379 -0.0415  0.0275
 3637TIP3    H135106   1.092   0.039  15.834  0.9326  1.2085  0.2960
 3637TIP3    H235107   0.946   0.054  15.797  0.1353 -1.1028  2.2525
 3638TIP3   OH235108   1.616   3.192  14.671  0.2873  0.2433  0.7009
 3638TIP3    H135109   1.685   3.217  14.733  1.5266 -1.0138 -0.1102
 3638TIP3    H235110   1.657   3.201  14.585 -0.6629 -0.2032  0.1910
 3639TIP3   OH235111   2.936   7.090  15.072  0.1561 -0.4143 -0.1414
 3639TIP3    H135112   2.880   7.158  15.109 -1.1835 -1.4172 -0.2311
 3639TIP3    H235113   2.999   7.070  15.142 -0.9520 -0.7350  0.7941
 3640TIP3   OH235114   2.000   4.526  15.494 -0.2243  0.4231  0.5365
 3640TIP3    H135115   1.916   4.507  15.537 -0.3164  0.1804  0.2545
 3640TIP3    H235116   2.065   4.523  15.564 -0.3998  0.2316  0.6923
 3641TIP3   OH235117   4.594   4.511  15.036  0.1385  0.5454 -0.7202
 3641TIP3    H135118   4.684   4.493  15.063  0.6088 -0.2750 -2.6169
 3641TIP3    H235119   4.585   4.466  14.952 -1.2623  2.6730 -1.7999
 3642TIP3   OH235120   1.718   4.047  15.168  0.8084 -0.5330 -0.5882
 3642TIP3    H135121   1.750   3.994  15.095  3.4230  0.3558 -0.2001
 3642TIP3    H235122   1.756   4.006  15.246  0.0434 -0.0619  0.0507
 3643TIP3   OH235123   5.369   4.748  15.948 -0.3400  0.2400  1.1775
 3643TIP3    H135124   5.371   4.664  15.993 -0.4758  0.6949  2.0386
 3643TIP3    H235125   5.461   4.770  15.935 -0.3035 -0.0648  0.8934
 3644TIP3   OH235126   2.482   2.271  14.592 -0.3862 -0.2756  0.1354
 3644TIP3    H135127   2.442   2.228  14.668  1.5041 -2.1128  0.2065
 3644TIP3    H235128   2.550   2.209  14.563 -0.2469  0.9069 -2.3307
 3645TIP3   OH235129   0.817   2.103  15.844 -0.3452 -0.5368  0.2483
 3645TIP3    H135130   0.788   2.030  15.898  0.8140 -0.1334  1.4691
 3645TIP3    H235131   0.910   2.087  15.830  0.5884  1.9261  2.6989
 3646TIP3   OH235132   7.768   1.329  14.939 -0.4169 -0.1074 -0.1863
 3646TIP3    H135133   7.808   1.312  15.024 -0.4142  1.9923  0.3073
 3646TIP3    H235134   7.842   1.354  14.883 -0.6276  0.4890 -0.2100
 3647TIP3   OH235135   3.998   7.458  15.218 -0.4644 -0.2574  0.6153
 3647TIP3    H135136   3.913   7.502  15.228  0.6704  1.9913  1.0992
 3647TIP3    H235137   4.024   7.479  15.128  0.6751  1.2924  1.2608
 3648TIP3   OH235138   7.037   0.192  15.234 -0.0244  0.5500 -0.2046
 3648TIP3    H135139   6.985   0.146  15.300  1.2021 -0.3832  0.1477
 3648TIP3    H235140   7.127   0.182  15.263  0.4080  1.8240 -0.9975
 3649TIP3   OH235141   4.846   2.712  15.968  0.1018 -0.3064  0.2089
 3649TIP3    H135142   4.912   2.770  16.006  0.3994  0.8687 -1.9800
 3649TIP3    H235143   4.888   2.627  15.965  1.6675  0.4807 -1.4040
 3650TIP3   OH235144   4.967   6.259  14.297 -0.2753 -0.0567  0.1505
 3650TIP3    H135145   4.990   6.195  14.229 -0.3430 -0.2608  0.3188
 3650TIP3    H235146   4.970   6.343  14.252 -1.2545 -0.2771 -0.3427
 3651TIP3   OH235147   3.854   7.124  15.011  0.1756  0.0052 -0.4230
 3651TIP3    H135148   3.942   7.108  15.045  1.0271 -0.1751 -2.5274
 3651TIP3    H235149   3.816   7.036  15.003 -0.2561  0.0901  0.5768
 3652TIP3   OH235150   7.129   5.484  16.022 -0.5831 -0.3234  0.0203
 3652TIP3    H135151   7.196   5.489  15.955 -1.3047  0.7828 -0.6463
 3652TIP3    H235152   7.068   5.417  15.990 -0.3464 -0.5907  0.1237
 3653TIP3   OH235153   4.740   5.646  14.332 -0.0516 -0.5429 -0.2078
 3653TIP3    H135154   4.787   5.593  14.268 -0.4439 -0.3835 -0.6322
 3653TIP3    H235155   4.674   5.693  14.281 -0.6396 -0.7250  0.3706
 3654TIP3   OH235156   7.629   6.364  15.580  0.0941 -0.4896 -0.4891
 3654TIP3    H135157   7.647   6.293  15.519  1.4936 -0.3928 -0.2232
 3654TIP3    H235158   7.677   6.340  15.660 -1.2231 -0.3283  0.3815
 3655TIP3   OH235159   7.443   4.360  16.033 -0.3855 -0.0599 -0.1480
 3655TIP3    H135160   7.372   4.327  15.979  0.1512  0.7551 -1.4016
 3655TIP3    H235161   7.428   4.454  16.039 -1.0676 -0.2426  2.1321
 3656TIP3   OH235162   5.565   0.970  16.293  0.2864 -0.8230  0.4848
 3656TIP3    H135163   5.632   0.903  16.281 -0.5302 -1.6086  0.2107
 3656TIP3    H235164   5.615   1.051  16.308  1.2868 -1.6450  1.8225
 3657TIP3   OH235165   4.080   3.033  14.145  0.2210 -0.1031  0.0595
 3657TIP3    H135166   4.011   3.059  14.205 -0.2256 -3.0795  0.9752
 3657TIP3    H235167   4.044   3.049  14.057 -0.9404 -0.0311  0.5421
 3658TIP3   OH235168   7.813   1.785  15.539  0.6801  0.1486 -0.0995
 3658TIP3    H135169   7.742   1.727  15.512  0.1580  0.1033  1.3028
 3658TIP3    H235170   7.890   1.752  15.492  0.5675 -2.1655  1.1837
 3659TIP3   OH235171   8.157   6.545  15.357  0.2252 -0.1949 -0.0378
 3659TIP3    H135172   8.218   6.501  15.416 -2.0630 -1.6539  1.4076
 3659TIP3    H235173   8.099   6.594  15.415  1.5639  3.4656 -1.4948
 3660TIP3   OH235174   3.379   2.450  14.377  0.2402  0.2942  0.1348
 3660TIP3    H135175   3.285   2.435  14.371  0.3660 -0.2258 -0.8694
 3660TIP3    H235176   3.413   2.374  14.425  0.0282  1.0549  1.5317
 3661TIP3   OH235177   1.651   0.226  14.336 -0.0599  0.6744 -0.0782
 3661TIP3    H135178   1.725   0.193  14.285 -0.9403 -1.1240 -0.2705
 3661TIP3    H235179   1.611   0.293  14.280  2.0689  2.5603  0.5352
 3662TIP3   OH235180   3.031   0.277  13.916  0.7306 -0.0829 -0.3178
 3662TIP3    H135181   3.110   0.322  13.888 -1.7026  3.6757 -1.8036
 3662TIP3    H235182   2.977   0.270  13.837 -1.2992 -0.5573  1.0278
 3663TIP3   OH235183   0.019   4.090  15.637 -0.1380  0.3783 -0.3746
 3663TIP3    H135184  -0.017   4.176  15.658  0.0602  0.2042  0.7621
 3663TIP3    H235185  -0.047   4.028  15.668  0.9599  0.0627  1.5406
 3664TIP3   OH235186   2.602   0.309  14.875  0.3794 -0.1146  0.5835
 3664TIP3    H135187   2.654   0.304  14.795 -0.6518  0.0596 -0.1168
 3664TIP3    H235188   2.635   0.239  14.931  0.8454 -0.4828 -0.1520
 3665TIP3   OH235189   5.909   2.995  15.804  0.3512  0.1743  0.1593
 3665TIP3    H135190   5.913   2.921  15.744 -2.3059 -0.0502  0.1248
 3665TIP3    H235191   5.879   3.068  15.750 -1.7726  0.0440  1.0455
 3666TIP3   OH235192   5.788   3.863  14.850 -0.3618  0.1188  0.3791
 3666TIP3    H135193   5.753   3.775  14.840 -0.6404  0.2453  0.2454
 3666TIP3    H235194   5.881   3.854  14.829 -0.6197  0.0840 -0.8458
 3667TIP3   OH235195   5.109   0.172  13.832 -0.4382  0.1061  0.2694
 3667TIP3    H135196   5.079   0.245  13.885  0.3163 -0.4623  1.5406
 3667TIP3    H235197   5.192   0.145  13.873 -0.6133 -1.3453 -0.2524
 3668TIP3   OH235198   3.123   7.424  15.163 -0.1008 -0.1453 -0.3553
 3668TIP3    H135199   3.208   7.445  15.124 -0.8094  0.9414 -1.3794
 3668TIP3    H235200   3.059   7.461  15.102 -1.2546  1.2687  1.5866
 3669TIP3   OH235201   7.829   8.361  14.377  0.2719 -0.1070  0.2351
 3669TIP3    H135202   7.765   8.432  14.369 -0.5508 -0.5437  2.2237
 3669TIP3    H235203   7.775   8.283  14.391  1.2131 -0.8031  0.0595
 3670TIP3   OH235204   0.833   0.552  15.285 -0.0153 -0.0714  0.7062
 3670TIP3    H135205   0.796   0.640  15.291 -1.1917 -0.5708  1.0746
 3670TIP3    H235206   0.806   0.509  15.366 -0.8149 -1.2589 -0.1581
 3671TIP3   OH235207   3.650   0.374  16.033 -0.8151 -0.4426 -0.0334
 3671TIP3    H135208   3.595   0.361  15.956  2.1704  1.6111 -2.8138
 3671TIP3    H235209   3.737   0.343  16.005  0.9743  2.7697  1.4407
 3672TIP3   OH235210   1.394   8.064  15.428 -0.5959  0.2801 -0.3158
 3672TIP3    H135211   1.412   8.141  15.373 -0.0762 -0.0541 -0.6182
 3672TIP3    H235212   1.443   7.993  15.386 -2.9281 -0.7816 -1.4481
 3673TIP3   OH235213   7.392   3.514  14.172  0.2284  0.0735  0.2596
 3673TIP3    H135214   7.323   3.449  14.184  1.5481 -1.3677  0.4536
 3673TIP3    H235215   7.406   3.517  14.077 -0.7646  1.1428  0.1225
 3674TIP3   OH235216   7.383   4.841  16.574  0.2988 -0.0448 -0.1773
 3674TIP3    H135217   7.418   4.837  16.485 -1.4412  0.3466 -0.9310
 3674TIP3    H235218   7.356   4.751  16.593  1.1353 -0.2329  0.1841
 3675TIP3   OH235219   1.440   8.159  13.819 -0.6310 -0.1610 -0.4722
 3675TIP3    H135220   1.525   8.136  13.783  0.0575  1.0821  0.2782
 3675TIP3    H235221   1.454   8.244  13.861 -2.2189  0.0207 -0.2446
 3676TIP3   OH235222   1.571   0.400  14.755  0.8508 -0.0807  0.3201
 3676TIP3    H135223   1.611   0.486  14.766 -0.8742  1.2002 -2.2688
 3676TIP3    H235224   1.570   0.386  14.660 -1.2321 -1.7983  0.5134
 3677TIP3   OH235225   4.431   4.001  15.061  0.4656 -0.1128 -0.1948
 3677TIP3    H135226   4.430   3.933  15.128 -1.8297  0.7229  0.7464
 3677TIP3    H235227   4.445   4.082  15.110 -0.3653  0.4180 -0.8006
 3678TIP3   OH235228   1.382   2.043  15.302  0.2145  0.0105  0.2301
 3678TIP3    H135229   1.409   2.090  15.224  1.5399 -0.1108  0.5761
 3678TIP3    H235230   1.356   1.956  15.270  0.9195 -0.0995 -0.0697
 3679TIP3   OH235231   6.058   3.851  14.878  0.2440 -0.1951  0.3355
 3679TIP3    H135232   6.087   3.875  14.966 -0.1446 -0.4927  0.5478
 3679TIP3    H235233   6.099   3.766  14.862  0.2367 -0.1860  0.2680
 3680TIP3   OH235234   1.707   1.397  15.550  0.1523  0.3882  0.5132
 3680TIP3    H135235   1.701   1.302  15.554 -0.0957  0.3573 -0.3090
 3680TIP3    H235236   1.650   1.422  15.477  1.3845  1.0310 -0.2810
 3681TIP3   OH235237   0.788   3.248  15.317  0.3826  0.2092  0.2383
 3681TIP3    H135238   0.807   3.276  15.407 -0.0344 -1.2283  0.8172
 3681TIP3    H235239   0.729   3.315  15.283  0.9671  1.0531  0.8525
 3682TIP3   OH235240   8.203   4.522  14.105  0.3607  0.1992  0.0525
 3682TIP3    H135241   8.265   4.530  14.177  0.3405  0.0170  0.0909
 3682TIP3    H235242   8.257   4.492  14.031  0.1015 -1.3487  0.4419
 3683TIP3   OH235243   1.901   2.553  15.338 -0.0349  0.2431 -0.1064
 3683TIP3    H135244   1.939   2.633  15.303 -0.7249  0.5051 -0.2730
 3683TIP3    H235245   1.884   2.499  15.261  0.9034 -0.2889  0.0424
 3684TIP3   OH235246   5.872   0.446  15.514 -0.5404 -0.1021  0.6852
 3684TIP3    H135247   5.832   0.384  15.454  0.9161  0.5157 -1.0201
 3684TIP3    H235248   5.954   0.404  15.541 -0.2514  0.4553  0.6918
 3685TIP3   OH235249   6.164   5.016  14.955  0.6041  0.2157  0.1213
 3685TIP3    H135250   6.157   4.983  14.865  0.1624 -0.0523  0.2520
 3685TIP3    H235251   6.144   5.109  14.948 -0.2626  0.0306  0.0640
 3686TIP3   OH235252   2.007   3.472  13.756 -0.4277  0.3517  0.2012
 3686TIP3    H135253   2.017   3.435  13.668 -0.7674 -0.7394  0.6027
 3686TIP3    H235254   1.975   3.560  13.741 -2.1309 -0.3738 -0.7631
 3687TIP3   OH235255   3.994   5.232  15.649 -0.2890  0.2234 -0.4627
 3687TIP3    H135256   4.014   5.226  15.555 -0.8728  0.0804 -0.5845
 3687TIP3    H235257   4.042   5.308  15.679  0.7749 -0.3587 -0.6469
 3688TIP3   OH235258   0.409   6.945  14.923  0.0861  0.2432 -0.1720
 3688TIP3    H135259   0.499   6.914  14.912  0.1786  0.3457  0.2713
 3688TIP3    H235260   0.408   7.032  14.883  0.2375  0.3263  0.0054
 3689TIP3   OH235261   6.599   5.031  13.952 -0.2329 -0.0680  0.1937
 3689TIP3    H135262   6.654   4.984  13.890 -0.2857  0.8086 -0.5357
 3689TIP3    H235263   6.658   5.094  13.994 -0.1681 -0.7344  1.1421
 3690TIP3   OH235264   3.317   7.312  14.696  0.0251 -0.0895 -0.1111
 3690TIP3    H135265   3.384   7.368  14.657  0.5504  0.3969  1.4138
 3690TIP3    H235266   3.362   7.267  14.768 -1.2874  0.3439  1.0344
 3691TIP3   OH235267   7.475   4.099  15.158 -0.4738  0.0153  0.5270
 3691TIP3    H135268   7.442   4.012  15.176  0.3845 -0.3795  0.2668
 3691TIP3    H235269   7.408   4.158  15.191 -0.9207 -0.7386  0.9873
 3692TIP3   OH235270   2.190   5.382  15.132  0.4787 -0.0532 -0.1634
 3692TIP3    H135271   2.114   5.384  15.074  0.6406 -0.8232 -0.4044
 3692TIP3    H235272   2.177   5.457  15.191  0.3556  0.7958 -1.2383
 3693TIP3   OH235273   6.701   3.005  16.062  0.3317  0.0841 -0.2116
 3693TIP3    H135274   6.626   2.954  16.031  0.9309 -0.2427 -1.1565
 3693TIP3    H235275   6.766   2.940  16.087  0.9222  0.3541 -0.9769
 3694TIP3   OH235276   3.871   3.307  15.778  0.8562 -0.3352 -0.1507
 3694TIP3    H135277   3.898   3.397  15.764 -0.3468  0.3235  1.4370
 3694TIP3    H235278   3.944   3.266  15.824 -0.3365  1.2317  3.4865
 3695TIP3   OH235279   1.501   8.438  16.028 -0.1020 -0.3860  0.0887
 3695TIP3    H135280   1.545   8.454  16.112 -1.4160 -0.1604  0.7670
 3695TIP3    H235281   1.468   8.523  16.002  0.2431 -0.4710 -0.6421
 3696TIP3   OH235282   7.388   1.278  13.912  0.0916  0.2503 -0.0458
 3696TIP3    H135283   7.472   1.315  13.939  1.5198 -1.9446 -1.1861
 3696TIP3    H235284   7.405   1.184  13.901 -2.3428 -0.1716 -0.9944
 3697TIP3   OH235285   5.253   7.952  13.899 -0.0703  1.1041 -0.0950
 3697TIP3    H135286   5.184   8.008  13.862 -1.6522 -0.2847  0.6459
 3697TIP3    H235287   5.256   7.876  13.841  0.3042  0.7996  0.3149
 3698TIP3   OH235288   4.569   1.098  15.230 -0.4123 -0.1872 -0.4580
 3698TIP3    H135289   4.536   1.010  15.248 -1.7407  0.4339  0.3491
 3698TIP3    H235290   4.540   1.117  15.141 -1.7194  0.0955  0.0055
 3699TIP3   OH235291   2.038   5.104  14.364 -0.0576 -0.0516 -0.7074
 3699TIP3    H135292   1.951   5.071  14.346 -0.1204 -0.7407  0.7079
 3699TIP3    H235293   2.066   5.144  14.282 -2.1893  1.3035 -0.8617
 3700TIP3   OH235294   3.318   7.253  15.491  0.1016 -0.5679  0.3191
 3700TIP3    H135295   3.393   7.229  15.547 -0.3115 -0.5296  0.8955
 3700TIP3    H235296   3.263   7.175  15.490  0.1852 -0.6233 -0.1734
 3701TIP3   OH235297   3.259   2.965  14.618 -0.4023 -0.2158  0.2218
 3701TIP3    H135298   3.221   3.052  14.609 -0.4207 -0.0937  1.3817
 3701TIP3    H235299   3.198   2.907  14.572 -2.0946 -0.0488  2.1343
 3702TIP3   OH235300   1.449   5.522  13.943  0.4077  0.3218 -0.0397
 3702TIP3    H135301   1.451   5.532  13.848  0.1793  0.2740 -0.0502
 3702TIP3    H235302   1.430   5.429  13.957 -2.8178  0.8914  0.0322
 3703TIP3   OH235303   1.071   8.165  15.221  0.0089  0.3404 -0.8981
 3703TIP3    H135304   1.104   8.172  15.131  2.5224 -0.6898 -0.1344
 3703TIP3    H235305   1.021   8.083  15.222 -1.0860  0.9720 -1.6143
 3704TIP3   OH235306   7.130   0.485  15.203 -0.2645 -0.2159 -0.0890
 3704TIP3    H135307   7.123   0.390  15.195 -0.3958 -0.1662 -0.6503
 3704TIP3    H235308   7.044   0.513  15.235 -0.5809 -0.1976 -0.9148
 3705TIP3   OH235309   0.948   5.502  14.574 -0.4084  0.3489  0.3791
 3705TIP3    H135310   0.942   5.519  14.481 -0.9044  2.3411  0.7385
 3705TIP3    H235311   0.933   5.408  14.582  0.8989 -0.0911 -1.6309
 3706TIP3   OH235312   8.245   3.259  14.990 -0.4646 -0.4759  0.1564
 3706TIP3    H135313   8.154   3.284  15.003 -0.5441 -0.6560 -0.0338
 3706TIP3    H235314   8.286   3.336  14.951 -0.5370 -0.3961  0.2392
 3707TIP3   OH235315   5.712   4.689  14.682  0.6398  0.2840 -0.0609
 3707TIP3    H135316   5.798   4.682  14.724  0.2709  0.8712  0.8249
 3707TIP3    H235317   5.732   4.709  14.591  1.4610 -0.9852 -0.1884
 3708TIP3   OH235318   4.775   8.412  15.695  0.1882 -0.6189 -0.3483
 3708TIP3    H135319   4.805   8.433  15.606  1.4390 -2.5369 -0.4348
 3708TIP3    H235320   4.744   8.322  15.689 -0.9976 -0.3257  0.8864
 3709TIP3   OH235321   3.491   2.692  15.674  0.4595  0.7576 -0.3079
 3709TIP3    H135322   3.414   2.698  15.731 -0.0944  0.2393 -0.9936
 3709TIP3    H235323   3.497   2.599  15.652  2.4709  0.4201  1.3345
 3710TIP3   OH235324   6.778   2.847  15.759 -0.5370 -0.3419  0.1666
 3710TIP3    H135325   6.836   2.918  15.785  0.9298 -1.0032 -1.1149
 3710TIP3    H235326   6.750   2.807  15.841  0.8242  0.0184  0.8395
 3711TIP3   OH235327   5.011   2.716  13.912 -0.1831 -0.2184  0.2517
 3711TIP3    H135328   4.931   2.759  13.943 -1.1450 -2.5330  1.2726
 3711TIP3    H235329   4.982   2.659  13.841  0.7005 -0.5021  0.1023
 3712TIP3   OH235330   8.006   3.063  14.891 -0.2625  0.0453  0.1932
 3712TIP3    H135331   8.038   2.983  14.849 -0.2300 -0.9770  2.0186
 3712TIP3    H235332   8.021   3.132  14.827  1.4599 -1.1121 -0.7419
 3713TIP3   OH235333   4.401   2.290  15.384 -0.7840 -0.3141 -0.4445
 3713TIP3    H135334   4.418   2.291  15.290  1.6995  0.1854 -0.0538
 3713TIP3    H235335   4.384   2.381  15.407  0.3412 -0.1674 -0.1566
 3714TIP3   OH235336   7.752   4.736  15.606  0.0543  0.5140  0.0479
 3714TIP3    H135337   7.698   4.708  15.679  1.9252 -0.1640  1.2565
 3714TIP3    H235338   7.837   4.758  15.646  1.0476  0.4206 -1.8736
 3715TIP3   OH235339   4.221   6.512  15.268  0.0387  0.7070 -0.0059
 3715TIP3    H135340   4.302   6.529  15.219  0.4230 -1.8127 -0.3840
 3715TIP3    H235341   4.248   6.452  15.338 -1.5341 -0.5915 -0.4432
 3716TIP3   OH235342   0.387   3.597  14.620  0.7890  0.1397  0.4246
 3716TIP3    H135343   0.480   3.591  14.642  0.1127  0.1918  3.8207
 3716TIP3    H235344   0.352   3.660  14.683 -1.5153  0.4758 -1.0730
 3717TIP3   OH235345   4.165   6.155  15.067 -0.3201 -1.0013  0.6321
 3717TIP3    H135346   4.238   6.139  15.126  0.3491 -0.4204 -0.0217
 3717TIP3    H235347   4.173   6.247  15.043 -1.2523 -0.9338  0.5281
 3718TIP3   OH235348   8.312   0.947  16.189  0.1134  0.4366  0.0801
 3718TIP3    H135349   8.376   0.945  16.119 -0.8454  1.6808 -0.8760
 3718TIP3    H235350   8.322   1.034  16.229  0.1712  0.0080  1.0386
 3719TIP3   OH235351   4.794   0.938  15.047 -0.5758 -0.1887  0.4703
 3719TIP3    H135352   4.811   0.859  14.997 -3.0167 -1.5071  1.5480
 3719TIP3    H235353   4.809   0.913  15.138  2.2914  1.7288  0.6464
 3720TIP3   OH235354   0.885   0.928  16.008  0.4385  0.5385  0.2186
 3720TIP3    H135355   0.897   0.944  15.914 -0.3303  0.2320  0.0617
 3720TIP3    H235356   0.944   0.854  16.027 -0.3428 -0.2456 -0.3075
 3721TIP3   OH235357   2.024   8.125  14.001 -0.3985 -0.2966  0.3270
 3721TIP3    H135358   2.095   8.096  13.943  0.6894  0.0797  1.4093
 3721TIP3    H235359   2.067   8.186  14.061 -2.0207  1.3351 -0.0979
 3722TIP3   OH235360   4.739   3.687  14.291  0.2672 -0.2637  0.1603
 3722TIP3    H135361   4.795   3.618  14.255 -0.1971 -0.8457  0.5352
 3722TIP3    H235362   4.665   3.692  14.231 -0.8955 -1.7708  1.3954
 3723TIP3   OH235363   1.951   2.575  14.580  0.6559  0.0148  0.0493
 3723TIP3    H135364   1.861   2.563  14.609  0.7869  0.7900  0.8297
 3723TIP3    H235365   2.001   2.509  14.628  0.5895  0.0192  0.1255
 3724TIP3   OH235366   6.060   2.519  14.813  0.2941  0.3493 -0.5636
 3724TIP3    H135367   6.042   2.596  14.867  0.6027  0.6802 -0.9225
 3724TIP3    H235368   6.057   2.445  14.873  1.4242  0.7933  0.0598
 3725TIP3   OH235369   6.159   2.923  14.744  0.1783 -0.3210  0.1638
 3725TIP3    H135370   6.142   2.919  14.650 -1.4452  0.9647  0.3556
 3725TIP3    H235371   6.072   2.920  14.785  0.7611  0.4376  1.5531
 3726TIP3   OH235372   3.964   2.833  15.723  0.1403 -0.5442 -0.0916
 3726TIP3    H135373   3.944   2.908  15.667 -0.7559 -1.1099 -0.5584
 3726TIP3    H235374   3.932   2.859  15.809 -2.2366 -1.1867 -0.6992
 3727TIP3   OH235375   4.929   7.903  13.912  0.2414  0.2986  0.4792
 3727TIP3    H135376   4.954   7.976  13.855  2.0374 -0.2926  0.4516
 3727TIP3    H235377   4.905   7.945  13.994 -0.2578  1.0162 -0.0187
 3728TIP3   OH235378   6.658   3.940  14.852  0.5166 -0.1045  0.5160
 3728TIP3    H135379   6.621   3.867  14.902  2.3456 -0.7580  1.0258
 3728TIP3    H235380   6.663   3.907  14.762  0.7204 -0.3677  0.6218
 3729TIP3   OH235381   0.694   7.291  14.812  0.3404  0.2921  0.8593
 3729TIP3    H135382   0.767   7.333  14.766  0.7131  0.2327  1.3868
 3729TIP3    H235383   0.619   7.348  14.796  0.7646  0.9793  1.2735
 3730TIP3   OH235384   0.507   4.771  15.313 -0.2884 -0.4637  0.8161
 3730TIP3    H135385   0.546   4.690  15.345  0.2920 -0.7005 -0.4347
 3730TIP3    H235386   0.535   4.777  15.221 -0.5643  1.0058  0.8066
 3731TIP3   OH235387   8.384   7.519  14.765  0.6385  0.2037 -0.6923
 3731TIP3    H135388   8.327   7.513  14.688  1.7794  0.9356 -1.6366
 3731TIP3    H235389   8.431   7.601  14.754  0.5450  0.5151  1.0221
 3732TIP3   OH235390   8.031   1.669  15.407 -0.4329 -0.3276  0.1566
 3732TIP3    H135391   8.040   1.574  15.416 -0.3283 -0.2852  0.5466
 3732TIP3    H235392   8.121   1.700  15.395 -0.3135 -0.1663  1.2845
 3733TIP3   OH235393   7.623   6.915  15.402 -0.0321  0.2031 -0.3324
 3733TIP3    H135394   7.631   6.823  15.428  2.8584 -0.1587 -2.0710
 3733TIP3    H235395   7.543   6.945  15.446 -0.1649 -2.6333  1.6729
 3734TIP3   OH235396   0.546   4.242  13.809 -0.2927  0.3462 -1.1465
 3734TIP3    H135397   0.530   4.334  13.830 -1.1553 -0.0266 -0.1234
 3734TIP3    H235398   0.468   4.196  13.838  0.1687 -0.7354 -1.5573
 3735TIP3   OH235399   8.111   5.988  14.979  0.6043  0.7037  0.0500
 3735TIP3    H135400   8.124   5.916  15.041 -0.6701  0.4538  0.0498
 3735TIP3    H235401   8.189   6.044  14.990  2.1999 -1.2397 -0.7768
 3736TIP3   OH235402   1.372   1.235  14.511 -0.1042  0.0069 -0.1908
 3736TIP3    H135403   1.376   1.265  14.601 -1.4319 -2.3607  0.7478
 3736TIP3    H235404   1.279   1.236  14.489  0.1891  0.4364 -1.5216
 3737TIP3   OH235405   0.019   6.496  14.676 -0.0862 -0.3094  0.4572
 3737TIP3    H135406   0.063   6.564  14.727 -0.9346  0.7660 -0.2204
 3737TIP3    H235407   0.037   6.518  14.585 -2.2471  0.3738  0.1301
 3738TIP3   OH235408   2.867   7.771  15.920 -0.2980 -0.1223 -0.3936
 3738TIP3    H135409   2.782   7.731  15.939 -0.7980  1.2824  0.5399
 3738TIP3    H235410   2.895   7.732  15.838 -2.0677 -0.3118 -0.9394
 3739TIP3   OH235411   5.362   6.365  15.738 -0.2348  0.1907  0.3084
 3739TIP3    H135412   5.344   6.452  15.703 -0.1089  0.6413  1.3539
 3739TIP3    H235413   5.432   6.331  15.682  0.2628  1.0775  0.3888
 3740TIP3   OH235414   4.857   0.058  14.892 -0.5550  0.9129 -0.4602
 3740TIP3    H135415   4.934   0.054  14.836 -1.4490 -0.9364 -1.6556
 3740TIP3    H235416   4.856   0.148  14.925  1.2783  1.3947 -1.5649
 3741TIP3   OH235417   1.743   7.450  15.088 -0.2062  0.0929 -0.2379
 3741TIP3    H135418   1.815   7.480  15.032  1.0248 -1.6424  0.3288
 3741TIP3    H235419   1.747   7.354  15.083 -2.1553 -0.0519  0.2406
 3742TIP3   OH235420   4.054   6.870  15.652 -0.3840 -0.0913 -0.5198
 3742TIP3    H135421   4.080   6.924  15.727  1.3927  0.2043 -1.2908
 3742TIP3    H235422   4.135   6.828  15.623 -0.8051  0.4971 -2.8039
 3743TIP3   OH235423   6.615   5.314  13.681 -0.1581  0.2348 -0.7408
 3743TIP3    H135424   6.693   5.293  13.629 -1.0631  0.3798 -2.1898
 3743TIP3    H235425   6.544   5.265  13.641 -0.9467  0.5559  0.2022
 3744TIP3   OH235426   0.529   1.204  15.107  0.3962  0.0911  0.4874
 3744TIP3    H135427   0.604   1.236  15.056  0.1798 -1.8459 -1.1591
 3744TIP3    H235428   0.565   1.190  15.195  2.0133 -0.8758 -0.2887
 3745TIP3   OH235429   2.017   1.556  15.090 -0.2367  0.1215 -0.2441
 3745TIP3    H135430   1.996   1.575  14.999 -0.2903  0.1799 -0.2203
 3745TIP3    H235431   1.944   1.594  15.139  0.9403  2.2028  0.0064
 3746TIP3   OH235432   5.561   0.298  14.687  0.9643 -0.9510  0.2653
 3746TIP3    H135433   5.578   0.292  14.593 -0.0986 -0.6686  0.0427
 3746TIP3    H235434   5.538   0.208  14.712  2.4695 -1.2877  0.5228
 3747TIP3   OH235435   2.625   4.458  15.040 -0.4711  0.1550 -0.2462
 3747TIP3    H135436   2.701   4.489  14.990 -1.0853  2.0664 -0.0780
 3747TIP3    H235437   2.662   4.430  15.124  0.3350 -1.3101 -1.0559
 3748TIP3   OH235438   0.134   7.300  14.745  0.4060  0.5830  0.1904
 3748TIP3    H135439   0.128   7.277  14.653  1.9661  1.4069 -0.1406
 3748TIP3    H235440   0.061   7.360  14.760  0.7231  1.2227 -0.7648
 3749TIP3   OH235441   6.761   7.492  14.969  0.6680  0.0944  0.4042
 3749TIP3    H135442   6.692   7.518  14.907  0.7056 -0.0952  0.2776
 3749TIP3    H235443   6.729   7.519  15.054  0.5314  0.1979  0.3201
 3750TIP3   OH235444   4.476   5.707  15.810 -0.3155  0.0361  0.2379
 3750TIP3    H135445   4.537   5.725  15.738 -0.2443 -1.8403 -0.2244
 3750TIP3    H235446   4.434   5.791  15.828  2.6765  1.5299  0.8626
 3751TIP3   OH235447   2.478   3.227  15.464  0.3626 -0.0625 -0.3899
 3751TIP3    H135448   2.470   3.236  15.559  1.2652  0.4158 -0.3534
 3751TIP3    H235449   2.569   3.204  15.449  0.4565  0.8004 -1.2010
 3752TIP3   OH235450   3.626   2.075  14.445 -0.3536  0.0937 -0.2772
 3752TIP3    H135451   3.665   2.145  14.497 -2.7453  2.6618 -1.6784
 3752TIP3    H235452   3.685   2.064  14.371  0.0528  0.6042 -0.0355
 3753TIP3   OH235453   4.227   0.124  15.170  0.1843  0.1112  0.7239
 3753TIP3    H135454   4.290   0.060  15.203  1.1123  1.3751  1.4859
 3753TIP3    H235455   4.201   0.174  15.248 -0.5577  0.6283  0.1529
 3754TIP3   OH235456   8.051   1.143  14.006 -0.2554  1.0626 -0.1339
 3754TIP3    H135457   8.024   1.063  14.051  0.1467  2.3743  2.5899
 3754TIP3    H235458   7.969   1.181  13.974 -0.5259  0.0204 -0.7446
 3755TIP3   OH235459   0.806   5.800  14.213  0.7216  0.5940  0.1993
 3755TIP3    H135460   0.753   5.853  14.154  1.4895  0.0848 -0.9832
 3755TIP3    H235461   0.855   5.742  14.156  1.5560  0.1285  1.3418
 3756TIP3   OH235462   5.748   5.107  15.988 -0.3025  0.0380  0.3668
 3756TIP3    H135463   5.672   5.143  15.943 -0.4395 -1.3228 -0.5315
 3756TIP3    H235464   5.717   5.026  16.028  0.5329 -0.2187  0.5128
 3757TIP3   OH235465   6.324   1.322  14.018 -0.0160  0.1161  0.2809
 3757TIP3    H135466   6.230   1.331  14.035 -0.2169  0.2616 -0.8662
 3757TIP3    H235467   6.356   1.412  14.009 -0.0751  0.0371 -0.8835
 3758TIP3   OH235468   2.148   3.482  15.098  0.1595  0.1079  0.3421
 3758TIP3    H135469   2.078   3.493  15.034  1.3795 -0.1613 -1.0915
 3758TIP3    H235470   2.173   3.390  15.091  0.9762  0.3113  0.4680
 3759TIP3   OH235471   3.847   0.966  14.961 -0.0577 -0.2629  0.0466
 3759TIP3    H135472   3.771   1.023  14.949 -0.4418 -0.9993 -1.1701
 3759TIP3    H235473   3.810   0.882  14.987  0.4526 -0.2248  0.9431
 3760TIP3   OH235474   6.728   4.337  15.627  0.6697  0.1876  0.6465
 3760TIP3    H135475   6.722   4.305  15.717 -0.8156 -1.9571 -0.1499
 3760TIP3    H235476   6.650   4.391  15.615  0.5591 -0.0156  0.4546
 3761TIP3   OH235477   2.933   4.873  14.803 -0.9250  0.4220 -0.1873
 3761TIP3    H135478   2.850   4.853  14.759 -0.3826  0.1552 -1.1292
 3761TIP3    H235479   2.907   4.908  14.888 -1.9940 -1.7859  0.4961
 3762TIP3   OH235480   8.445   4.601  15.720  0.0127  0.3064 -0.2529
 3762TIP3    H135481   8.411   4.517  15.752  1.5815 -0.6827 -1.0965
 3762TIP3    H235482   8.522   4.619  15.774  0.0775  0.8707 -0.5223
 3763TIP3   OH235483   7.359   1.125  14.671  0.3941 -0.9424 -0.0249
 3763TIP3    H135484   7.435   1.102  14.724  0.1328 -1.4290  0.1488
 3763TIP3    H235485   7.348   1.219  14.682  1.2394 -0.7950 -0.4052
 3764TIP3   OH235486   2.586   2.123  15.600 -0.2877  0.2854  0.1410
 3764TIP3    H135487   2.655   2.062  15.627 -1.2807 -0.3233  1.4565
 3764TIP3    H235488   2.613   2.207  15.636  0.7146  0.4716 -1.0232
 3765TIP3   OH235489   7.580   0.961  15.410  0.1367  0.2260 -0.5305
 3765TIP3    H135490   7.659   0.949  15.357  1.1064  1.2376  0.6343
 3765TIP3    H235491   7.575   0.883  15.465 -0.0637 -0.1429 -1.0605
 3766TIP3   OH235492   3.881   6.041  14.411  0.2991  0.2704  0.2190
 3766TIP3    H135493   3.945   5.997  14.355 -0.0460  0.2198 -0.1380
 3766TIP3    H235494   3.811   5.976  14.423  1.1416 -0.3692  2.1250
 3767TIP3   OH235495   2.661   7.856  14.370 -0.4616 -0.0749  0.1304
 3767TIP3    H135496   2.623   7.775  14.336  1.0142 -0.8762  0.2864
 3767TIP3    H235497   2.590   7.919  14.367 -2.7741 -2.1929  3.1802
 3768TIP3   OH235498   3.064   0.797  15.152  0.5011 -0.1667  0.0339
 3768TIP3    H135499   3.021   0.804  15.066 -2.7904  0.5425  1.5715
 3768TIP3    H235500   3.072   0.887  15.182 -0.5387 -0.4911  1.3808
 3769TIP3   OH235501   2.259   7.132  15.015 -0.5709  0.1857  0.3844
 3769TIP3    H135502   2.348   7.161  14.997 -0.2466 -0.7014  0.4983
 3769TIP3    H235503   2.251   7.050  14.966 -1.2071  0.0834  0.6515
 3770TIP3   OH235504   2.260   2.034  14.701  0.5217 -0.0455  0.1489
 3770TIP3    H135505   2.294   2.113  14.743 -2.4445  1.6455 -0.3407
 3770TIP3    H235506   2.238   1.976  14.773 -1.4762  1.5193  0.9330
 3771TIP3   OH235507   4.100   2.680  15.965 -0.0166  0.1225  0.3279
 3771TIP3    H135508   4.180   2.716  15.925  1.3134 -2.1885  0.7454
 3771TIP3    H235509   4.040   2.755  15.968  0.9863  1.2444 -2.8491
 3772TIP3   OH235510   0.243   1.392  15.514  0.0456 -0.1988 -0.1567
 3772TIP3    H135511   0.321   1.406  15.461 -0.1567  0.8861 -0.1891
 3772TIP3    H235512   0.171   1.427  15.462 -0.0665  1.5399  1.0816
 3773TIP3   OH235513   3.660   6.422  15.623 -0.1121  0.3407 -0.0115
 3773TIP3    H135514   3.755   6.419  15.630  0.0434  1.2284 -1.4480
 3773TIP3    H235515   3.632   6.476  15.697  0.4098 -0.5835  0.8854
 3774TIP3   OH235516   0.845   1.683  15.283 -0.3165 -0.0464 -0.0518
 3774TIP3    H135517   0.936   1.654  15.284 -0.2861 -0.0794 -1.6401
 3774TIP3    H235518   0.802   1.626  15.220 -1.5572 -0.3278  1.0070
 3775TIP3   OH235519   5.826   8.103  14.320 -0.1117 -0.1504 -0.3590
 3775TIP3    H135520   5.922   8.100  14.326 -0.1766  0.3881  2.2050
 3775TIP3    H235521   5.808   8.147  14.237  1.8250 -1.0144 -1.3000
 3776TIP3   OH235522   3.959   7.832  14.891 -0.7188 -0.4338 -0.8483
 3776TIP3    H135523   3.989   7.860  14.977  0.4610 -1.2982 -0.9484
 3776TIP3    H235524   3.969   7.909  14.835 -1.5560  0.1515 -0.2191
 3777TIP3   OH235525   6.752   8.075  15.840  0.3106  0.0830  0.2639
 3777TIP3    H135526   6.670   8.033  15.813  0.0457  0.1592  0.9337
 3777TIP3    H235527   6.725   8.149  15.894  0.8151  0.3073  0.2158
 3778TIP3   OH235528   2.535   3.279  15.739  0.0191  0.2091 -0.1700
 3778TIP3    H135529   2.506   3.362  15.777 -2.1160 -1.2369  1.5994
 3778TIP3    H235530   2.629   3.275  15.757 -0.3375  1.0650  2.1377
 3779TIP3   OH235531   3.540   6.005  14.680 -0.4581 -0.5967  0.2042
 3779TIP3    H135532   3.534   5.923  14.630  0.8700 -0.6474  0.0997
 3779TIP3    H235533   3.620   6.046  14.649 -1.4359  1.0860 -0.2212
 3780TIP3   OH235534   1.629   8.268  15.816  0.1163 -0.3446  0.4801
 3780TIP3    H135535   1.583   8.311  15.887 -0.3353 -0.6753  0.3945
 3780TIP3    H235536   1.560   8.232  15.760  0.3460  1.8868 -1.4053
 3781TIP3   OH235537   1.945   2.119  14.638  0.1529 -0.5184 -0.0012
 3781TIP3    H135538   1.959   2.031  14.675  1.3659  0.8149  3.0164
 3781TIP3    H235539   1.863   2.149  14.677 -0.5325 -0.4310 -1.4282
 3782TIP3   OH235540   0.773   4.069  15.055 -0.6014 -0.2240  0.6096
 3782TIP3    H135541   0.701   4.099  15.110 -0.4977  0.7185  0.2339
 3782TIP3    H235542   0.743   4.085  14.965 -0.6151 -1.4007  0.3885
 3783TIP3   OH235543   6.145   4.001  15.421  0.1122 -0.6258  0.0434
 3783TIP3    H135544   6.218   3.943  15.401  0.5978  0.9111 -3.1617
 3783TIP3    H235545   6.184   4.088  15.428 -1.1433 -0.0550  0.3785
 3784TIP3   OH235546   1.647   1.693  15.167  0.0927 -0.5319  0.2019
 3784TIP3    H135547   1.720   1.682  15.228  1.3715 -0.6020 -1.3065
 3784TIP3    H235548   1.661   1.780  15.128 -1.5595  0.1688  1.0600
 3785TIP3   OH235549   6.151   1.584  16.386  0.1556  0.4503  0.0805
 3785TIP3    H135550   6.098   1.579  16.465  1.0914  1.8245  0.8316
 3785TIP3    H235551   6.095   1.548  16.317 -0.8507 -0.3308  1.2686
 3786TIP3   OH235552   1.043   0.308  16.012  0.3315  0.2439  0.2521
 3786TIP3    H135553   0.960   0.310  16.060  1.3236  1.5200  2.0364
 3786TIP3    H235554   1.032   0.238  15.949 -1.5704 -0.6271  1.4463
 3787TIP3   OH235555   0.639   6.132  15.110  0.3349  0.3407 -0.2350
 3787TIP3    H135556   0.648   6.104  15.201 -0.1397 -0.4587 -0.4177
 3787TIP3    H235557   0.598   6.218  15.114  1.5488  0.9136  0.3442
 3788TIP3   OH235558   2.311   3.605  13.688 -0.1184 -0.0504  0.1033
 3788TIP3    H135559   2.319   3.521  13.645 -1.0547 -0.5980  0.9587
 3788TIP3    H235560   2.402   3.635  13.699  0.2658 -1.2826  0.4531
 3789TIP3   OH235561   8.059   7.781  15.608  0.0939 -0.2766 -0.4190
 3789TIP3    H135562   8.086   7.692  15.583 -1.1865 -0.8524  0.1628
 3789TIP3    H235563   8.011   7.769  15.690 -0.1343  0.9480 -0.3626
 3790TIP3   OH235564   3.550   1.070  14.945  0.0289 -0.1350  0.3235
 3790TIP3    H135565   3.470   1.108  14.980 -0.5623  1.0309 -2.1402
 3790TIP3    H235566   3.545   0.977  14.970 -1.8346  0.0188  0.6443
 3791TIP3   OH235567   3.024   2.453  15.448  0.1138  1.0174  0.1820
 3791TIP3    H135568   2.954   2.516  15.467  1.1307  1.7705  1.6110
 3791TIP3    H235569   3.091   2.504  15.402  0.1799  0.5428 -0.2624
 3792TIP3   OH235570   2.510   5.350  15.605 -0.4628  0.2521  0.2550
 3792TIP3    H135571   2.548   5.438  15.600 -0.5725  0.3934  1.5855
 3792TIP3    H235572   2.449   5.346  15.531  0.5770  0.7676 -0.6707
 3793TIP3   OH235573   3.838   8.227  15.376  0.3677  0.0429  0.0183
 3793TIP3    H135574   3.840   8.131  15.371  0.8834  0.0937 -0.9390
 3793TIP3    H235575   3.820   8.245  15.468 -2.3209 -0.9849 -0.2001
 3794TIP3   OH235576   5.154   8.320  15.499  0.1196 -0.1424  0.4407
 3794TIP3    H135577   5.241   8.358  15.509 -0.3914  1.0759  0.4903
 3794TIP3    H235578   5.146   8.306  15.404  0.0502  0.5706  0.3330
 3795TIP3   OH235579   6.894   8.063  15.587  0.3319 -0.2125  0.3125
 3795TIP3    H135580   6.846   8.091  15.665  0.3667  0.5767  0.0591
 3795TIP3    H235581   6.829   8.018  15.533 -0.2698  1.2517 -0.2403
 3796TIP3   OH235582   5.804   6.248  15.793 -0.2263 -0.0577 -0.4316
 3796TIP3    H135583   5.888   6.217  15.759  0.4175  1.5202 -0.3624
 3796TIP3    H235584   5.739   6.207  15.737  0.6488 -0.3503 -1.2585
 3797TIP3   OH235585   3.568   3.252  16.152  0.1745 -0.1053 -0.4454
 3797TIP3    H135586   3.506   3.255  16.225  0.1117 -1.3237 -0.4307
 3797TIP3    H235587   3.542   3.325  16.096 -1.3729 -0.6686 -0.5021
 3798TIP3   OH235588   3.850   4.832  15.606  0.0672  0.5347 -0.0969
 3798TIP3    H135589   3.909   4.769  15.564 -0.3093  0.7944 -1.0277
 3798TIP3    H235590   3.908   4.891  15.655  0.4948  0.1303 -0.1105
 3799TIP3   OH235591   2.580   3.043  15.073  0.7043 -0.0456 -0.1477
 3799TIP3    H135592   2.605   3.091  15.153  0.8450  0.1554 -0.3115
 3799TIP3    H235593   2.657   2.990  15.053 -0.7358 -3.3580  2.2237
 3800TIP3   OH235594   0.797   2.757  16.104  0.1391  0.2018 -0.7494
 3800TIP3    H135595   0.770   2.847  16.122 -2.1787 -0.3792 -1.0344
 3800TIP3    H235596   0.746   2.731  16.027  1.5576 -1.0229 -1.3227
 3801TIP3   OH235597   1.819   1.571  14.500  0.0841 -0.0717 -0.2533
 3801TIP3    H135598   1.760   1.527  14.438  0.8868 -0.7506 -0.5418
 3801TIP3    H235599   1.778   1.557  14.586 -0.7524  0.4199 -0.5538
 3802TIP3   OH235600   1.064   2.349  14.742 -0.3732 -0.1055  0.3443
 3802TIP3    H135601   0.971   2.372  14.752 -1.4273 -2.6853 -2.1523
 3802TIP3    H235602   1.075   2.270  14.794  0.2450 -0.1637  0.1302
 3803TIP3   OH235603   1.544   1.468  15.314 -0.3234  0.7269  0.7797
 3803TIP3    H135604   1.580   1.501  15.232 -0.9626 -3.4342 -1.4402
 3803TIP3    H235605   1.455   1.442  15.293  0.2726 -2.8256  1.9225
 3804TIP3   OH235606   7.758   5.883  15.381  0.2356  0.9804  0.0368
 3804TIP3    H135607   7.688   5.834  15.338  1.0229  0.0221 -0.1674
 3804TIP3    H235608   7.753   5.858  15.473  1.5608 -0.6557 -0.2981
 3805TIP3   OH235609   6.783   3.501  14.793 -0.7052 -0.2396  0.2852
 3805TIP3    H135610   6.874   3.474  14.793 -0.9532 -1.1106 -0.3142
 3805TIP3    H235611   6.775   3.560  14.717 -0.7104 -0.4198  0.1454
 3806TIP3   OH235612   3.642   3.305  14.382  0.3457  0.5567  0.3472
 3806TIP3    H135613   3.607   3.372  14.324 -0.1683  0.5771  0.6823
 3806TIP3    H235614   3.634   3.342  14.470  0.1541  0.1028  0.5241
 3807TIP3   OH235615   8.159   6.474  15.796  0.4159  0.2906 -0.1097
 3807TIP3    H135616   8.070   6.488  15.766  0.7580 -0.2543 -1.4860
 3807TIP3    H235617   8.164   6.380  15.814  0.1575  0.6448  1.9482
 3808TIP3   OH235618   2.094   1.142  14.867 -0.2543 -0.1427 -0.2235
 3808TIP3    H135619   2.081   1.047  14.876 -0.4973 -0.2803 -1.7495
 3808TIP3    H235620   2.167   1.162  14.925 -0.8510 -1.0801  0.8987
 3809TIP3   OH235621   3.299   1.181  15.451 -0.1528 -0.0058  0.0290
 3809TIP3    H135622   3.388   1.204  15.476 -0.3906  0.4667  0.4785
 3809TIP3    H235623   3.273   1.114  15.515 -1.2727  2.2333  2.0999
 3810TIP3   OH235624   1.490   7.262  14.350 -0.1956 -0.3141 -0.2557
 3810TIP3    H135625   1.409   7.287  14.393 -0.5566 -1.5228 -0.1817
 3810TIP3    H235626   1.559   7.296  14.406 -0.6573 -1.3708  0.9885
 3811TIP3   OH235627   3.850   4.266  15.954 -0.3162 -0.2617 -0.1054
 3811TIP3    H135628   3.919   4.325  15.986 -1.2083  0.7784 -0.0368
 3811TIP3    H235629   3.896   4.185  15.934  0.7613  0.0517  0.9495
 3812TIP3   OH235630   2.550   1.905  15.865 -0.5799  0.2807  0.0823
 3812TIP3    H135631   2.574   1.987  15.821  0.8820  0.2581  0.7657
 3812TIP3    H235632   2.629   1.852  15.861 -0.3943  0.2422  2.6056
 3813TIP3   OH235633   3.044   8.273  15.773 -0.5592 -0.4063  0.4196
 3813TIP3    H135634   3.052   8.178  15.767 -2.1055 -0.6167  0.9336
 3813TIP3    H235635   3.099   8.297  15.848 -0.6648 -0.9970  0.6961
 3814TIP3   OH235636   8.224   7.550  15.549 -0.4498 -0.0795  0.4015
 3814TIP3    H135637   8.301   7.542  15.493 -1.4379  2.0572 -1.3962
 3814TIP3    H235638   8.192   7.460  15.559  1.5576 -0.8697  0.2109
 3815TIP3   OH235639   4.080   5.800  14.804 -0.0052 -0.8830 -0.3496
 3815TIP3    H135640   4.137   5.830  14.734  0.2482 -0.4324  0.0413
 3815TIP3    H235641   4.137   5.797  14.882 -0.5772 -0.1076  0.1164
 3816TIP3   OH235642   6.188   7.987  14.016  0.1733  0.0527 -0.3245
 3816TIP3    H135643   6.164   7.907  14.064  2.9452  0.1960  1.5406
 3816TIP3    H235644   6.232   7.956  13.937 -0.4830 -0.2094 -0.5990
 3817TIP3   OH235645   2.202   7.729  15.766 -0.1499  0.0074  0.0342
 3817TIP3    H135646   2.205   7.730  15.862  0.7164  1.7413  0.0181
 3817TIP3    H235647   2.112   7.703  15.746 -0.6128  0.5137  1.3199
 3818TIP3   OH235648   1.069   4.424  14.519 -0.1618 -0.3694  0.1068
 3818TIP3    H135649   1.002   4.395  14.456 -1.1616  2.7142 -0.4134
 3818TIP3    H235650   1.020   4.445  14.598  0.8361 -2.2287  1.2822
 3819TIP3   OH235651   0.804   3.098  15.087  0.1754  0.2803  0.5769
 3819TIP3    H135652   0.784   3.127  15.176 -2.5859 -0.9483  0.4530
 3819TIP3    H235653   0.856   3.018  15.098 -1.3889 -0.7063  1.2114
 3820TIP3   OH235654   0.734   3.542  14.169 -0.4996 -0.6933 -0.0917
 3820TIP3    H135655   0.755   3.634  14.150  1.2085 -1.1939 -0.8751
 3820TIP3    H235656   0.719   3.503  14.083 -1.1341 -1.1749  0.2301
 3821TIP3   OH235657   4.151   3.224  15.878 -0.4320  0.1662  0.2872
 3821TIP3    H135658   4.167   3.318  15.885  0.3995 -0.0464  1.4301
 3821TIP3    H235659   4.238   3.185  15.871 -0.8011 -0.3803 -2.9434
 3822TIP3   OH235660   6.310   3.320  14.361 -0.3109 -0.4428 -0.3839
 3822TIP3    H135661   6.341   3.283  14.279 -2.4547  0.4489 -1.6794
 3822TIP3    H235662   6.371   3.286  14.427  0.9447 -1.9115 -2.1859
 3823TIP3   OH235663   1.555   3.802  15.419  0.0753 -0.1197  0.2142
 3823TIP3    H135664   1.600   3.882  15.447  0.9554  0.4321 -2.5264
 3823TIP3    H235665   1.620   3.733  15.429  0.3121  0.0352 -0.2422
 3824TIP3   OH235666   7.917   7.945  15.089 -0.5571  0.1716  0.3188
 3824TIP3    H135667   7.827   7.926  15.060 -0.2519 -2.5188  0.8867
 3824TIP3    H235668   7.922   7.907  15.177  1.6721 -1.6116 -0.4888
 3825TIP3   OH235669   4.563   6.605  15.454  0.1013 -0.7048 -0.0609
 3825TIP3    H135670   4.560   6.691  15.496  0.6483  0.0313 -1.4785
 3825TIP3    H235671   4.652   6.574  15.470  0.5886 -0.0438 -1.3495
 3826TIP3   OH235672   6.236   4.913  14.116 -0.0027  0.1986 -0.5190
 3826TIP3    H135673   6.216   4.823  14.141 -0.7636  0.1191 -1.3363
 3826TIP3    H235674   6.151   4.956  14.111  0.4822  1.7313  2.4731
 3827TIP3   OH235675   1.765   4.382  15.054  0.0692 -0.2773  0.0436
 3827TIP3    H135676   1.810   4.360  14.972  0.9548  0.7911  0.2136
 3827TIP3    H235677   1.798   4.469  15.076 -2.3978  0.7690 -0.0455
 3828TIP3   OH235678   5.031   2.457  14.582 -0.2619  0.1124 -0.0548
 3828TIP3    H135679   5.068   2.410  14.507 -0.5523 -0.5135  0.1908
 3828TIP3    H235680   4.977   2.392  14.627 -0.4147  0.5973  0.4698
 3829TIP3   OH235681   6.067   4.843  15.259 -0.2814  0.0796  0.5053
 3829TIP3    H135682   6.036   4.790  15.332  0.7680  1.3982  1.9638
 3829TIP3    H235683   6.045   4.791  15.181  0.3582 -2.3139  1.8141
 3830TIP3   OH235684   1.836   2.936  14.281  0.7780  0.0491 -0.4511
 3830TIP3    H135685   1.849   3.030  14.289 -1.3065  0.4947 -1.6732
 3830TIP3    H235686   1.823   2.920  14.188 -1.0797 -1.0963 -0.0533
 3831TIP3   OH235687   6.796   4.173  16.155 -0.3145  0.6190  0.3775
 3831TIP3    H135688   6.870   4.193  16.212 -0.6755 -0.1601  1.1447
 3831TIP3    H235689   6.789   4.249  16.098  1.9433  0.1278 -0.6617
 3832TIP3   OH235690   5.712   0.283  15.072  0.3242  0.0184  0.0164
 3832TIP3    H135691   5.696   0.345  15.000  2.3598  0.3253 -0.2311
 3832TIP3    H235692   5.656   0.208  15.051 -1.4724  1.3488 -0.1862
 3833TIP3   OH235693   5.324   8.317  14.899 -0.1139 -0.1772 -0.3994
 3833TIP3    H135694   5.297   8.302  14.989 -0.3375  1.4105 -0.1738
 3833TIP3    H235695   5.334   8.230  14.862  1.5994 -0.9182  1.6250
 3834TIP3   OH235696   1.954   3.088  14.697  0.4492 -0.3547 -0.2329
 3834TIP3    H135697   1.911   3.147  14.759  1.1004  1.0220 -1.0466
 3834TIP3    H235698   2.042   3.125  14.685  0.8146 -1.3968 -0.8839
 3835TIP3   OH235699   2.822   8.266  14.310  1.0380 -0.2595  0.5772
 3835TIP3    H135700   2.745   8.220  14.277  3.4350 -2.4630 -2.3984
 3835TIP3    H235701   2.797   8.359  14.307 -1.4138 -0.8694 -0.4320
 3836TIP3   OH235702   1.174   5.767  15.440 -0.1378  0.0252  0.0349
 3836TIP3    H135703   1.171   5.688  15.386  1.2270  1.6612 -2.6660
 3836TIP3    H235704   1.089   5.810  15.423 -1.1061 -1.0234  1.9236
 3837TIP3   OH235705   6.027   5.670  13.967  0.4835  0.3216  0.0839
 3837TIP3    H135706   6.099   5.613  13.939 -0.2187  0.5461 -2.4244
 3837TIP3    H235707   6.058   5.758  13.946 -1.8699  0.2794 -5.1061
 3838TIP3   OH235708   3.586   4.738  15.616 -0.0554 -0.0470 -0.1172
 3838TIP3    H135709   3.551   4.766  15.532 -0.5544 -2.8120 -0.9303
 3838TIP3    H235710   3.679   4.759  15.611 -0.0844 -0.1204 -1.3825
 3839TIP3   OH235711   5.510   3.811  15.794 -0.0942 -0.4826  0.1686
 3839TIP3    H135712   5.514   3.788  15.887  0.9455 -0.6544  0.0961
 3839TIP3    H235713   5.418   3.802  15.771 -0.3919 -0.2688  1.2259
 3840TIP3   OH235714   1.433   7.615  14.608  0.5873  0.3295  0.5175
 3840TIP3    H135715   1.424   7.692  14.551  1.5214 -0.4212 -0.6703
 3840TIP3    H235716   1.386   7.640  14.689 -0.1996  1.6610 -0.3096
 3841TIP3   OH235717   0.423   6.190  15.771 -0.1292 -0.3693  0.1522
 3841TIP3    H135718   0.394   6.208  15.860 -0.4454 -0.9431  0.1715
 3841TIP3    H235719   0.349   6.145  15.730  0.1955 -0.5501 -0.2480
 3842TIP3   OH235720   5.130   1.043  16.010  0.4529  0.4991 -0.7658
 3842TIP3    H135721   5.149   1.030  16.103 -2.7510  0.2736 -0.0247
 3842TIP3    H235722   5.128   1.138  15.999 -0.7152  0.5495 -0.2033
 3843TIP3   OH235723   7.578   5.366  15.395  0.7991 -0.0935  0.0584
 3843TIP3    H135724   7.530   5.289  15.364  2.0236  0.1116 -2.5934
 3843TIP3    H235725   7.518   5.439  15.381  1.1053 -0.0878 -1.3540
 3844TIP3   OH235726   6.274   6.178  14.863 -0.1332  0.0706 -0.3217
 3844TIP3    H135727   6.182   6.154  14.874  0.3154 -1.8158 -0.2536
 3844TIP3    H235728   6.315   6.099  14.827  1.4737  0.8444 -0.2787
 3845TIP3   OH235729   2.974   2.501  15.093  0.1341  0.3698  0.3399
 3845TIP3    H135730   2.933   2.431  15.143  0.7156  0.5831  1.1555
 3845TIP3    H235731   3.033   2.456  15.032  0.1142  0.1275  0.4974
 3846TIP3   OH235732   0.444   6.979  14.267  0.2051 -0.4345 -0.2252
 3846TIP3    H135733   0.419   6.886  14.265 -1.2812 -0.0431 -1.3609
 3846TIP3    H235734   0.500   6.990  14.191  0.0450 -0.3182 -0.3268
 3847TIP3   OH235735   6.403   3.652  15.757 -0.3632  0.2139  0.1244
 3847TIP3    H135736   6.421   3.746  15.749 -0.5177  0.2025 -0.4166
 3847TIP3    H235737   6.465   3.610  15.698 -0.0299 -0.0634  0.6553
 3848TIP3   OH235738   1.775   6.139  15.480  0.2366  0.0744  0.1212
 3848TIP3    H135739   1.713   6.147  15.408 -0.6483  1.3427  1.0005
 3848TIP3    H235740   1.737   6.072  15.537 -0.1044  0.5272  0.4300
 3849TIP3   OH235741   1.538   7.070  15.944 -0.4184 -0.2995 -0.1225
 3849TIP3    H135742   1.506   7.093  15.857 -0.1182  1.0515  0.1024
 3849TIP3    H235743   1.492   7.130  16.003  0.4915 -0.1755  0.4783
 3850TIP3   OH235744   5.431   2.904  14.223  0.1600  0.2175  0.2038
 3850TIP3    H135745   5.409   2.811  14.221 -1.4955  0.5954 -1.1418
 3850TIP3    H235746   5.463   2.923  14.135  0.5011  0.9290  0.4730
 3851TIP3   OH235747   3.293   1.240  13.775  0.2403  0.7481 -0.5831
 3851TIP3    H135748   3.277   1.312  13.836 -2.0811 -0.4275  0.3226
 3851TIP3    H235749   3.237   1.259  13.701  1.2170  0.9041 -1.3048
 3852TIP3   OH235750   2.351   7.570  14.544 -0.3244  0.3309 -0.0033
 3852TIP3    H135751   2.389   7.587  14.630 -2.0484 -0.3168  0.9186
 3852TIP3    H235752   2.324   7.478  14.547 -3.4609  1.1629  0.0255
 3853TIP3   OH235753   0.604   0.387  15.835  0.2220 -0.3111 -0.2422
 3853TIP3    H135754   0.663   0.455  15.866 -1.1432 -0.4111  2.9518
 3853TIP3    H235755   0.517   0.415  15.866 -1.0390 -1.5144 -2.4127
 3854TIP3   OH235756   6.442   6.388  15.825  0.6369 -0.6590  0.0871
 3854TIP3    H135757   6.518   6.332  15.841  0.6665 -0.3907  0.9368
 3854TIP3    H235758   6.476   6.464  15.780  0.7052 -1.0116 -0.4645
 3855TIP3   OH235759   2.835   1.833  15.052  0.0136  0.5038  0.1840
 3855TIP3    H135760   2.811   1.803  14.964  0.1622 -0.1298  0.3532
 3855TIP3    H235761   2.764   1.801  15.108 -1.5557  3.2549 -0.0565
 3856TIP3   OH235762   2.705   3.586  14.061 -0.2502  0.8070 -0.0744
 3856TIP3    H135763   2.768   3.651  14.031 -1.0902  1.4888 -0.4320
 3856TIP3    H235764   2.733   3.563  14.150 -0.8835  2.9761  0.7612
 3857TIP3   OH235765   5.488   1.077  15.888 -0.0769  0.5721  0.3440
 3857TIP3    H135766   5.509   1.006  15.949 -0.8906  0.1172  0.1031
 3857TIP3    H235767   5.407   1.049  15.845  0.2132  1.1286 -0.5788
 3858TIP3   OH235768   3.816   4.994  14.774  0.0252  0.1203  0.3058
 3858TIP3    H135769   3.888   4.990  14.836 -1.5332  1.0208  2.3023
 3858TIP3    H235770   3.789   4.902  14.763  1.8487 -0.3121 -1.0525
 3859TIP3   OH235771   1.067   6.091  14.777 -0.1565  0.3548  0.2947
 3859TIP3    H135772   1.109   6.039  14.708 -0.7834 -0.4210  0.4843
 3859TIP3    H235773   0.987   6.044  14.798  0.4906  0.0295  2.2607
 3860TIP3   OH235774   6.658   1.182  15.842  0.0934  0.1116 -0.1976
 3860TIP3    H135775   6.704   1.264  15.823  0.2902  0.2238  0.6939
 3860TIP3    H235776   6.566   1.209  15.849  0.1496  0.2549  0.0321
 3861TIP3   OH235777   0.395   7.123  14.521  0.8365 -0.2839  0.1882
 3861TIP3    H135778   0.386   7.046  14.465 -1.4062  0.0440 -0.0077
 3861TIP3    H235779   0.320   7.178  14.498  2.3152  1.9507  0.3813
 3862TIP3   OH235780   0.955   0.677  16.083  0.0690 -0.3865 -0.4094
 3862TIP3    H135781   1.037   0.628  16.087 -0.3223 -1.0438 -0.1733
 3862TIP3    H235782   0.912   0.659  16.167  0.6388  1.7003  0.3963
 3863TIP3   OH235783   5.357   3.375  16.080 -0.0733  0.3603  0.6544
 3863TIP3    H135784   5.430   3.409  16.028  0.7327  1.2815  2.3328
 3863TIP3    H235785   5.342   3.287  16.044  1.2354  0.5071 -0.3447
 3864TIP3   OH235786   2.717   4.977  16.085  0.0538 -0.3880 -0.1577
 3864TIP3    H135787   2.622   4.981  16.071 -0.0157  0.5643  0.4668
 3864TIP3    H235788   2.735   5.049  16.145  0.8683 -1.9779  1.5973
 3865TIP3   OH235789   2.142   8.086  14.825  0.5256 -0.2905  0.2475
 3865TIP3    H135790   2.126   8.009  14.769 -0.7450 -0.2552  0.5177
 3865TIP3    H235791   2.059   8.097  14.873  0.8003  1.0744  0.4264
 3866TIP3   OH235792   7.698   3.804  15.107  0.0116  0.4359  0.5063
 3866TIP3    H135793   7.662   3.877  15.056  0.4496  0.6764  0.5336
 3866TIP3    H235794   7.678   3.827  15.198  0.2342  0.5722  0.5217
 3867TIP3   OH235795   1.440   4.521  16.149  0.0463  0.3466  0.5249
 3867TIP3    H135796   1.522   4.531  16.196  0.2871  0.3869  0.0997
 3867TIP3    H235797   1.449   4.577  16.072 -0.2856  0.1760  0.3586
 3868TIP3   OH235798   2.072   2.600  15.573  0.2918 -0.0874  0.6561
 3868TIP3    H135799   2.023   2.576  15.494  1.5479  1.5472 -0.6851
 3868TIP3    H235800   2.046   2.690  15.592  0.3287 -0.3095  1.8906
 3869TIP3   OH235801   5.123   7.510  14.398 -0.0369  0.1892 -0.0459
 3869TIP3    H135802   5.160   7.475  14.479 -1.3221 -1.3232 -0.0795
 3869TIP3    H235803   5.086   7.595  14.424 -1.2109 -0.6551  1.1905
 3870TIP3   OH235804   6.375   0.502  15.202 -0.0446 -0.3672 -0.5976
 3870TIP3    H135805   6.329   0.420  15.219 -1.0116  0.4492  1.0336
 3870TIP3    H235806   6.409   0.528  15.287  0.5493  0.7506 -1.1549
 3871TIP3   OH235807   0.625   3.193  14.065 -0.6799  0.3007 -0.0617
 3871TIP3    H135808   0.635   3.107  14.024  0.5370  0.3975  0.0069
 3871TIP3    H235809   0.709   3.236  14.052 -1.6341  1.9611 -1.1413
 3872TIP3   OH235810   1.140   8.314  15.799  1.0136 -0.3986  0.4437
 3872TIP3    H135811   1.127   8.248  15.731  0.0511 -0.6377  0.8527
 3872TIP3    H235812   1.152   8.264  15.880 -2.4241 -0.1507  1.2678
 3873TIP3   OH235813   3.862   6.411  14.555 -0.2766 -0.3494 -0.0564
 3873TIP3    H135814   3.948   6.427  14.517  0.2775 -2.0471  0.4324
 3873TIP3    H235815   3.869   6.326  14.597 -1.5036  0.4969  2.0437
 3874TIP3   OH235816   2.233   3.930  14.237 -0.0693 -0.3003 -0.0204
 3874TIP3    H135817   2.228   3.853  14.179 -0.6308  1.3393 -2.2870
 3874TIP3    H235818   2.319   3.967  14.220  0.2257 -0.4258  1.1109
 3875TIP3   OH235819   1.576   6.226  15.321 -0.0064  0.3045  0.0541
 3875TIP3    H135820   1.488   6.200  15.292 -0.3217  1.1884  0.1911
 3875TIP3    H235821   1.566   6.316  15.351  1.0305  0.5370 -0.2594
 3876TIP3   OH235822   4.506   1.387  14.557  0.2953  0.2504  0.0649
 3876TIP3    H135823   4.450   1.429  14.621  0.2791  1.1679 -0.5318
 3876TIP3    H235824   4.552   1.459  14.513 -0.1790 -0.2908 -1.3979
 3877TIP3   OH235825   3.748   1.828  15.643  0.0064  0.1812  0.3590
 3877TIP3    H135826   3.841   1.837  15.664  0.1752 -0.5505 -0.0579
 3877TIP3    H235827   3.744   1.828  15.548 -0.1660 -1.9429  0.3161
 3878TIP3   OH235828   0.358   4.088  13.955  0.7037  0.1071 -0.3759
 3878TIP3    H135829   0.417   4.014  13.966  0.5611  0.0114 -0.2541
 3878TIP3    H235830   0.370   4.140  14.034  1.1297  0.4470 -0.6556
 3879TIP3   OH235831   5.934   5.622  15.731  0.0984 -0.6489 -0.3964
 3879TIP3    H135832   5.939   5.638  15.637 -1.7809  0.9224 -0.2905
 3879TIP3    H235833   5.994   5.687  15.769  1.4479 -1.7878 -0.5011
 3880TIP3   OH235834   1.761   0.300  14.907  0.1290  0.0106 -0.1041
 3880TIP3    H135835   1.762   0.206  14.925  1.4783  0.0515  0.1525
 3880TIP3    H235836   1.693   0.311  14.841  0.7507 -1.3260 -1.0229
 3881TIP3   OH235837   4.934   4.835  15.403  0.5660 -0.5283 -0.0131
 3881TIP3    H135838   5.005   4.889  15.368 -0.2896 -1.1294 -2.8727
 3881TIP3    H235839   4.975   4.784  15.473  1.9291  2.0488  1.2182
 3882TIP3   OH235840   4.470   0.087  14.070 -0.2469  0.0707 -0.4621
 3882TIP3    H135841   4.566   0.086  14.071 -0.2210  1.3095  0.4833
 3882TIP3    H235842   4.446   0.166  14.119 -1.7603 -0.5325 -0.1660
 3883TIP3   OH235843   0.404   8.324  16.382  0.1313  0.1590 -0.2584
 3883TIP3    H135844   0.389   8.334  16.288  0.4336 -2.1209 -0.6120
 3883TIP3    H235845   0.381   8.232  16.400 -0.6616  0.7374  2.0523
 3884TIP3   OH235846   1.171   4.999  15.584  0.0141  0.2086 -0.4473
 3884TIP3    H135847   1.146   5.036  15.669  0.1474 -0.5311 -0.0763
 3884TIP3    H235848   1.266   4.991  15.588 -0.0564 -0.6728 -0.3021
 3885TIP3   OH235849   1.728   2.309  15.569  0.1175  0.3749  0.3550
 3885TIP3    H135850   1.720   2.355  15.486  0.8436 -0.5662 -0.2573
 3885TIP3    H235851   1.648   2.255  15.575  0.6353 -0.4875 -0.3364
 3886TIP3   OH235852   6.629   7.116  15.298 -0.1740  0.5217  0.7983
 3886TIP3    H135853   6.556   7.162  15.342 -1.2426 -1.7755  1.5945
 3886TIP3    H235854   6.598   7.101  15.209 -0.4234  0.0771  0.9595
 3887TIP3   OH235855   2.064   0.326  15.266 -0.2155  0.5084 -0.1422
 3887TIP3    H135856   2.096   0.237  15.273 -1.8104  0.0006  1.7317
 3887TIP3    H235857   2.136   0.381  15.297 -0.3798 -0.4375  2.1139
 3888TIP3   OH235858   6.939   1.874  14.718  0.0336  0.2051 -0.2130
 3888TIP3    H135859   6.978   1.803  14.667  0.8148 -1.7029  2.7422
 3888TIP3    H235860   7.013   1.920  14.757 -0.4873 -0.2106  1.3745
 3889TIP3   OH235861   6.605   5.309  15.302  0.3791  0.7987 -0.1284
 3889TIP3    H135862   6.550   5.271  15.233 -0.5601  1.4496  0.2455
 3889TIP3    H235863   6.688   5.260  15.297  0.2090  0.6326 -1.5013
 3890TIP3   OH235864   1.540   2.550  13.829  0.1250  0.0231 -0.2362
 3890TIP3    H135865   1.498   2.575  13.747  1.6033 -0.0077 -1.0312
 3890TIP3    H235866   1.617   2.607  13.836 -0.3140  0.4733  1.4680
 3891TIP3   OH235867   1.665   7.751  15.070  0.2046  0.5976  0.1518
 3891TIP3    H135868   1.717   7.674  15.095  0.6515  0.8476 -0.0052
 3891TIP3    H235869   1.690   7.768  14.979 -1.2950 -0.2140 -0.4559
 3892TIP3   OH235870   4.799   5.585  15.768  0.1049  0.2711  0.5676
 3892TIP3    H135871   4.744   5.544  15.835  0.9435  0.2052  1.2374
 3892TIP3    H235872   4.738   5.608  15.698 -0.7545  0.0768  1.2242
 3893TIP3   OH235873   0.154   8.367  15.041 -0.3788 -0.5154  0.2292
 3893TIP3    H135874   0.135   8.303  15.110 -1.8413  2.0351  2.4013
 3893TIP3    H235875   0.214   8.430  15.083  0.0292  0.2199 -1.3937
 3894TIP3   OH235876   7.050   6.997  15.140  0.0720  0.5834 -0.1506
 3894TIP3    H135877   7.139   6.964  15.130 -0.2987 -0.3991 -0.2999
 3894TIP3    H235878   7.001   6.959  15.067 -1.0283 -0.9490  1.3077
 3895TIP3   OH235879   0.453   1.011  14.744  0.4298 -0.2518  0.2785
 3895TIP3    H135880   0.507   0.952  14.690 -0.3975 -0.4128 -0.3925
 3895TIP3    H235881   0.451   0.970  14.830  0.9519 -0.5121  0.1708
 3896TIP3   OH235882   0.342   0.011  15.750  0.1764  0.0122  0.4725
 3896TIP3    H135883   0.396   0.012  15.671  1.8748 -0.2100  1.5826
 3896TIP3    H235884   0.259   0.049  15.722 -0.3786 -2.7277 -2.1469
 3897TIP3   OH235885   2.375   1.246  14.959  0.3824 -0.2538 -0.7211
 3897TIP3    H135886   2.446   1.289  15.007 -0.1142  1.1098 -1.1499
 3897TIP3    H235887   2.420   1.194  14.892  1.0038  1.6353 -1.8525
 3898TIP3   OH235888   0.922   5.532  14.317 -0.5520  0.4091 -0.1163
 3898TIP3    H135889   0.827   5.548  14.320 -0.8409 -0.9135 -1.1402
 3898TIP3    H235890   0.930   5.442  14.286  1.0453  0.3278  0.4528
 3899TIP3   OH235891   5.999   4.966  15.797 -0.8078 -0.4005  0.0504
 3899TIP3    H135892   6.008   5.045  15.743 -1.5034 -0.6288 -0.4058
 3899TIP3    H235893   6.018   4.996  15.886 -0.4619  0.1530 -0.2003
 3900TIP3   OH235894   5.077   6.797  15.343  0.0981 -0.3341  0.3249
 3900TIP3    H135895   5.110   6.843  15.266  2.8480 -2.5087  0.0843
 3900TIP3    H235896   5.118   6.841  15.417 -0.4968  0.0982  0.4126
 3901TIP3   OH235897   7.876   4.317  14.202  0.1392 -0.0599  0.2015
 3901TIP3    H135898   7.871   4.406  14.237  0.6784  0.1456 -0.2200
 3901TIP3    H235899   7.862   4.328  14.108  0.7104 -0.3590  0.0776
 3902TIP3   OH235900   4.881   3.608  15.216  0.4155  0.5041 -0.3421
 3902TIP3    H135901   4.953   3.652  15.261  1.5351 -1.1815 -0.4067
 3902TIP3    H235902   4.896   3.626  15.124  0.9656 -0.1048 -0.3801
 3903TIP3   OH235903   3.773   6.791  14.282 -0.1985  0.2162 -0.1729
 3903TIP3    H135904   3.693   6.801  14.230 -0.9676 -0.5299  0.8149
 3903TIP3    H235905   3.819   6.717  14.242 -0.0302  0.5895 -0.6876
 3904TIP3   OH235906   0.334   7.825  15.637  0.4582 -0.0549  0.2919
 3904TIP3    H135907   0.361   7.778  15.558  2.2509 -0.4901  1.1025
 3904TIP3    H235908   0.262   7.881  15.609  2.2517  1.2026 -2.1064
 3905TIP3   OH235909   0.237   3.345  14.575 -0.2591 -0.7574 -0.3016
 3905TIP3    H135910   0.242   3.438  14.597 -1.5962 -0.8815  0.6655
 3905TIP3    H235911   0.324   3.322  14.545  0.9225  0.1512  2.1611
 3906TIP3   OH235912   1.601   8.075  15.002  0.0270  0.2080  0.5188
 3906TIP3    H135913   1.606   8.010  15.072 -1.9644  0.2783  0.7964
 3906TIP3    H235914   1.507   8.084  14.985  0.3269  2.1041 -0.3772
 3907TIP3   OH235915   5.016   4.198  14.584  0.4277 -0.0843  0.2182
 3907TIP3    H135916   4.939   4.187  14.640 -1.3390 -0.0849 -2.0560
 3907TIP3    H235917   5.056   4.280  14.614 -1.4776  0.8535  0.3656
 3908TIP3   OH235918   1.737   0.833  14.496 -0.1061  0.4196  0.2509
 3908TIP3    H135919   1.714   0.810  14.586 -1.0543  0.2578 -0.0177
 3908TIP3    H235920   1.666   0.891  14.468 -0.7739 -0.9035 -0.9438
 3909TIP3   OH235921   4.106   3.967  14.080 -0.0277 -0.1527  0.0300
 3909TIP3    H135922   4.159   3.908  14.027 -0.5478  0.2319 -0.9389
 3909TIP3    H235923   4.134   4.055  14.053 -0.3192  0.0466  0.3743
 3910TIP3   OH235924   5.996   6.766  14.791  0.6438 -0.4484  0.2044
 3910TIP3    H135925   5.960   6.707  14.724 -0.8221 -0.3697  0.8786
 3910TIP3    H235926   6.090   6.767  14.774  0.9244 -3.7623  0.7287
 3911TIP3   OH235927   7.094   0.932  15.124  0.3638  0.0519 -0.2003
 3911TIP3    H135928   7.171   0.925  15.179  0.5269 -0.2054 -0.4556
 3911TIP3    H235929   7.103   1.016  15.079  0.1926  0.2943  0.2179
 3912TIP3   OH235930   1.664   4.811  14.224  0.0675  0.3672 -0.9245
 3912TIP3    H135931   1.632   4.779  14.139 -0.0860 -0.8498 -0.4211
 3912TIP3    H235932   1.699   4.734  14.268 -1.1374  0.6851  0.6978
 3913TIP3   OH235933   2.459   0.286  14.563 -0.6017  0.0984  0.0282
 3913TIP3    H135934   2.371   0.248  14.559 -0.6877  0.2680  0.3478
 3913TIP3    H235935   2.450   0.362  14.620 -0.9033  1.8519 -2.1919
 3914TIP3   OH235936   5.769   0.687  15.991  0.9444  0.3027 -0.2441
 3914TIP3    H135937   5.817   0.615  15.950  0.7086  0.1862 -0.3220
 3914TIP3    H235938   5.750   0.747  15.920  2.7596  1.3846  0.1169
 3915TIP3   OH235939   8.120   2.240  15.390  0.6682  0.2806  0.1647
 3915TIP3    H135940   8.203   2.262  15.346  0.7338 -0.2372  0.0251
 3915TIP3    H235941   8.100   2.152  15.360 -0.8365  1.0270 -1.1987
 3916TIP3   OH235942   3.994   5.921  15.909  0.5269  0.3908 -0.6578
 3916TIP3    H135943   4.047   5.932  15.830  0.7412  0.5793 -0.4912
 3916TIP3    H235944   4.058   5.917  15.980  0.4254 -1.4241 -0.6379
 3917TIP3   OH235945   5.484   4.038  14.692 -0.1695 -0.0144 -0.3930
 3917TIP3    H135946   5.491   3.964  14.631  0.1643  0.8340 -1.4222
 3917TIP3    H235947   5.434   4.103  14.644 -1.0992  0.1612  0.7868
 3918TIP3   OH235948   0.178   5.801  14.861 -1.2004  0.0016  0.1215
 3918TIP3    H135949   0.132   5.758  14.789  0.2672  1.8934 -2.1143
 3918TIP3    H235950   0.194   5.890  14.830  0.6578  0.5372  2.2804
 3919TIP3   OH235951   4.772   5.225  15.261  0.0033 -1.0309 -0.3797
 3919TIP3    H135952   4.863   5.216  15.288 -0.4583 -2.2195  0.8419
 3919TIP3    H235953   4.750   5.142  15.219 -0.4562 -0.6562 -0.9095
 3920TIP3   OH235954   1.399   5.423  16.004 -0.2020  0.3308 -0.0421
 3920TIP3    H135955   1.332   5.492  16.013  0.8413  1.3643  0.0864
 3920TIP3    H235956   1.404   5.407  15.910  1.0131  1.9906 -0.3159
 3921TIP3   OH235957   6.871   6.022  15.636  0.3966 -0.3470 -0.0253
 3921TIP3    H135958   6.818   6.031  15.715 -1.5298 -2.2314 -1.0259
 3921TIP3    H235959   6.961   6.026  15.668 -0.3202  0.2336  2.0883
 3922TIP3   OH235960   7.442   5.498  14.806  0.6794  0.5202 -0.5657
 3922TIP3    H135961   7.502   5.425  14.821 -0.3074 -0.1489  0.3070
 3922TIP3    H235962   7.498   5.574  14.793  1.7251 -0.3948 -1.4849
 3923TIP3   OH235963   7.278   0.418  15.690  0.0605  0.6899  0.1816
 3923TIP3    H135964   7.207   0.373  15.644 -2.7506  3.5022  1.3845
 3923TIP3    H235965   7.357   0.369  15.667 -2.1274 -2.2033 -1.8499
 3924TIP3   OH235966   6.927   4.240  14.749 -0.0852  0.1261 -0.2314
 3924TIP3    H135967   6.883   4.240  14.834 -1.0392  2.2256 -0.6473
 3924TIP3    H235968   6.902   4.157  14.709 -0.5408 -0.3978  1.0885
 3925TIP3   OH235969   7.620   0.082  16.009  0.5095 -0.3470  0.4338
 3925TIP3    H135970   7.713   0.063  16.008  0.7303  0.6798 -0.1955
 3925TIP3    H235971   7.579   0.000  16.038  1.6468 -0.5398  1.5505
 3926TIP3   OH235972   7.725   5.566  15.927  0.3117 -0.4607 -0.2665
 3926TIP3    H135973   7.719   5.589  15.834 -2.9913 -0.5346 -0.1828
 3926TIP3    H235974   7.754   5.474  15.926 -0.7249 -0.8064 -1.3112
 3927TIP3   OH235975   5.966   2.536  15.553  0.2240 -0.0827  0.1982
 3927TIP3    H135976   5.913   2.497  15.484 -1.4488  0.2073  1.2555
 3927TIP3    H235977   5.962   2.474  15.625  1.3311 -0.0428  0.3071
 3928TIP3   OH235978   8.235   5.030  15.293  0.1930  0.3169  0.0736
 3928TIP3    H135979   8.263   4.960  15.353  0.0337 -0.4675 -0.7489
 3928TIP3    H235980   8.147   5.053  15.323 -0.0857 -0.4202 -0.1527
 3929TIP3   OH235981   7.059   7.219  15.355  0.4476 -0.1540 -1.1183
 3929TIP3    H135982   7.091   7.144  15.304  1.5270 -1.3345  1.1385
 3929TIP3    H235983   7.137   7.272  15.371  0.2089 -0.0108 -0.4044
 3930TIP3   OH235984   5.662   6.440  14.785  0.4322 -0.0171 -0.3129
 3930TIP3    H135985   5.602   6.427  14.859  0.0347  2.7697 -0.0189
 3930TIP3    H235986   5.609   6.423  14.708 -0.1180  0.2305  0.0003
 3931TIP3   OH235987   1.585   2.789  15.925 -0.2851 -0.0887  0.5354
 3931TIP3    H135988   1.498   2.787  15.885  0.1350 -1.7505 -0.3920
 3931TIP3    H235989   1.607   2.882  15.931 -2.1947  0.3741  0.9887
 3932TIP3   OH235990   8.262   2.449  15.579  0.1824 -0.1938 -0.1936
 3932TIP3    H135991   8.215   2.515  15.529 -0.6379 -0.0820  0.7035
 3932TIP3    H235992   8.304   2.394  15.513  1.5046  1.6319 -0.9541
 3933TIP3   OH235993   0.776   1.211  14.979  0.6579 -0.0047 -0.5396
 3933TIP3    H135994   0.774   1.285  14.919  1.1527 -1.2846 -2.2515
 3933TIP3    H235995   0.765   1.134  14.922  2.1224 -1.3562  0.8859
 3934TIP3   OH235996   0.212   1.396  14.194  0.8531  0.3381  0.3380
 3934TIP3    H135997   0.304   1.423  14.190  1.2469 -1.0291 -0.6734
 3934TIP3    H235998   0.212   1.308  14.157 -0.8545  0.2511  0.4892
 3935TIP3   OH235999   3.770   3.020  14.311 -0.5054  0.0339 -0.1156
 3935TIP3    H136000   3.746   2.931  14.283 -0.8283  0.0644  0.0511
 3935TIP3    H236001   3.771   3.016  14.406 -0.4376  0.1883 -0.1087
 3936TIP3   OH236002   0.928   2.297  13.649  0.6534 -0.0560 -0.0162
 3936TIP3    H136003   0.934   2.202  13.650  2.7800 -0.0724 -2.6244
 3936TIP3    H236004   0.837   2.315  13.623  0.7039 -1.4786 -1.3506
 3937TIP3   OH236005   7.373   0.175  16.022  0.5496 -0.4593  0.0848
 3937TIP3    H136006   7.359   0.125  15.942 -1.8904 -0.6867  0.5846
 3937TIP3    H236007   7.465   0.160  16.044  0.5069 -2.8248 -1.0368
 3938TIP3   OH236008   1.790   1.479  15.797 -0.3703  0.3671  0.1564
 3938TIP3    H136009   1.769   1.428  15.719  1.7730  0.6833 -0.6776
 3938TIP3    H236010   1.729   1.446  15.863 -0.3776 -1.8901 -0.8745
 3939TIP3   OH236011   0.234   2.257  15.726 -0.5401  0.0840 -0.3324
 3939TIP3    H136012   0.304   2.230  15.786 -1.5233 -0.8527  0.4338
 3939TIP3    H236013   0.263   2.341  15.692  0.2342  0.4659  1.1853
 3940TIP3   OH236014   2.252   2.831  14.851 -0.1642 -0.2108 -0.4797
 3940TIP3    H136015   2.322   2.868  14.904 -1.6572  1.4336  0.4175
 3940TIP3    H236016   2.239   2.894  14.780 -0.3239 -0.8296 -1.0141
 3941TIP3   OH236017   0.834   4.466  13.940 -0.7884 -0.5300  0.4472
 3941TIP3    H136018   0.785   4.509  13.869  0.5229  0.7902  0.2826
 3941TIP3    H236019   0.822   4.372  13.924 -2.0294 -0.2498 -0.4362
 3942TIP3   OH236020   6.909   0.032  14.853  0.4335 -0.3468  0.1668
 3942TIP3    H136021   6.877   0.037  14.943 -1.2128 -1.4231 -0.3081
 3942TIP3    H236022   6.831   0.015  14.801  1.1375  1.5440 -1.6539
 3943TIP3   OH236023   3.688   6.041  14.943  0.3600  0.6060 -0.1049
 3943TIP3    H136024   3.648   5.966  14.900  0.9350  1.2256 -1.8063
 3943TIP3    H236025   3.778   6.014  14.959  0.1658  0.4032  0.6478
 3944TIP3   OH236026   2.009   6.020  14.200  0.3646  0.4207  0.2837
 3944TIP3    H136027   2.081   5.976  14.245  0.5924  0.0315 -0.4519
 3944TIP3    H236028   1.997   5.970  14.119 -1.0894  0.1425  0.6398
 3945TIP3   OH236029   0.351   0.659  14.764 -0.7674  0.2163  0.2532
 3945TIP3    H136030   0.305   0.654  14.680 -0.3953 -1.5910  0.1246
 3945TIP3    H236031   0.286   0.693  14.825 -1.3009  0.7327 -0.5839
 3946TIP3   OH236032   4.185   1.054  16.040 -0.2034  0.2358  0.6689
 3946TIP3    H136033   4.262   1.056  16.097  1.7398  0.5218 -1.7968
 3946TIP3    H236034   4.184   0.965  16.004 -2.8977 -0.7916  2.8625
 3947TIP3   OH236035   8.236   1.817  15.885  0.3060  0.3726  0.3644
 3947TIP3    H136036   8.169   1.880  15.911 -0.2842 -0.4707  0.9762
 3947TIP3    H236037   8.306   1.827  15.950 -0.3688 -0.4759  1.2670
 3948TIP3   OH236038   3.165   0.596  15.514 -0.1004 -0.1213 -0.0573
 3948TIP3    H136039   3.105   0.627  15.446 -0.2834  0.8913  0.5419
 3948TIP3    H236040   3.250   0.630  15.486  0.0453 -0.7894 -0.4367
 3949TIP3   OH236041   2.086   1.730  16.099 -0.6395  0.1420  0.4470
 3949TIP3    H136042   2.175   1.757  16.078 -1.4255  1.8725 -0.9957
 3949TIP3    H236043   2.063   1.667  16.030 -1.2156  1.3369 -0.4964
 3950TIP3   OH236044   5.182   6.070  16.022  0.2386  0.1154  0.1832
 3950TIP3    H136045   5.168   6.041  16.112  0.5723 -0.1810  0.1437
 3950TIP3    H236046   5.275   6.052  16.006  0.5500  1.5283  0.2653
 3951TIP3   OH236047   4.981   3.031  14.808 -0.2320  0.2279  0.2255
 3951TIP3    H136048   4.929   3.102  14.771 -0.0652 -0.3435 -1.2115
 3951TIP3    H236049   4.925   2.992  14.875 -0.8840  0.8316  0.0454
 3952TIP3   OH236050   7.537   7.660  15.095  0.2024  0.4656  0.2566
 3952TIP3    H136051   7.509   7.750  15.111 -1.4264  0.2838 -1.2759
 3952TIP3    H236052   7.618   7.669  15.044 -0.5086  1.1182 -0.8204
 3953TIP3   OH236053   0.595   2.359  16.030 -0.1619  0.2099  0.4269
 3953TIP3    H136054   0.671   2.391  15.981 -0.3514 -0.1441 -0.1148
 3953TIP3    H236055   0.631   2.293  16.089  0.2323  1.4111  1.5602
 3954TIP3   OH236056   4.742   3.547  16.133 -0.2402  0.0433 -0.0564
 3954TIP3    H136057   4.829   3.583  16.114  0.1485  0.1715  1.7548
 3954TIP3    H236058   4.682   3.620  16.119 -0.0767 -0.0509 -1.3390
 3955TIP3   OH236059   2.575   7.819  15.057  0.5939  0.2426  0.4822
 3955TIP3    H136060   2.604   7.897  15.106 -1.1230  0.5963  0.9840
 3955TIP3    H236061   2.481   7.831  15.046  0.7076 -0.4326 -1.8715
 3956TIP3   OH236062   0.999   6.680  14.828 -0.4533 -0.3371 -0.5025
 3956TIP3    H136063   0.947   6.743  14.778  0.2364 -0.3080 -1.1888
 3956TIP3    H236064   0.966   6.594  14.800 -0.6488 -0.3073 -0.3693
 3957TIP3   OH236065   2.446   1.329  15.417 -0.0337  0.3939  0.0294
 3957TIP3    H136066   2.470   1.240  15.391 -0.4358  0.4307 -0.4830
 3957TIP3    H236067   2.401   1.318  15.501  1.3880  0.2869  0.8090
 3958TIP3   OH236068   5.399   5.850  15.168 -0.7358  0.0087 -0.0755
 3958TIP3    H136069   5.442   5.871  15.085  0.1814  2.1547  0.8818
 3958TIP3    H236070   5.315   5.896  15.164 -1.4736 -1.3023 -0.4768
 3959TIP3   OH236071   7.612   0.235  15.214  0.0730  0.1546 -0.3474
 3959TIP3    H136072   7.540   0.209  15.157  0.4522  0.4583 -0.9809
 3959TIP3    H236073   7.687   0.184  15.183 -0.0213 -0.6985  0.7684
 3960TIP3   OH236074   8.380   4.514  14.925 -0.5442 -0.5488  0.1601
 3960TIP3    H136075   8.409   4.575  14.858 -2.1513  1.3512  1.0896
 3960TIP3    H236076   8.294   4.484  14.895  0.0473 -2.1158 -0.0836
 3961TIP3   OH236077   1.100   8.085  14.710 -0.0891  0.0276  0.0584
 3961TIP3    H136078   1.105   8.159  14.650 -0.0415 -0.7707 -0.9452
 3961TIP3    H236079   1.062   8.014  14.658  0.5327 -0.8594  0.7887
 3962TIP3   OH236080   7.710   5.413  14.307  0.2789 -0.5315  0.0957
 3962TIP3    H136081   7.754   5.376  14.231  0.7774  0.0616  0.0869
 3962TIP3    H236082   7.664   5.490  14.273  0.0033 -0.6109  0.2823
 3963TIP3   OH236083   6.279   7.135  14.377  0.1822  0.5097  1.0915
 3963TIP3    H136084   6.320   7.116  14.462  0.2997 -1.2449  0.6762
 3963TIP3    H236085   6.335   7.092  14.313 -1.7509 -1.1846  0.4212
 3964TIP3   OH236086   6.359   7.679  13.609  0.1849  0.1243 -0.0153
 3964TIP3    H136087   6.366   7.664  13.703  1.5463  0.0436 -0.0962
 3964TIP3    H236088   6.327   7.768  13.600 -0.8383 -0.1861  0.5163
 3965TIP3   OH236089   6.556   5.700  13.675  0.3079  0.0489  0.2027
 3965TIP3    H136090   6.504   5.718  13.753 -0.3065  0.0637 -0.1975
 3965TIP3    H236091   6.516   5.754  13.607  3.6358  3.7118  0.8052
 3966TIP3   OH236092   2.050   1.552  13.937  0.0846 -0.2582  0.3069
 3966TIP3    H136093   2.056   1.541  13.842  0.8960  2.3464 -0.0357
 3966TIP3    H236094   1.960   1.579  13.953 -0.1457 -1.0256  0.3426
 3967TIP3   OH236095   6.308   4.010  14.607 -0.3282  0.2460 -0.7435
 3967TIP3    H136096   6.236   4.033  14.665 -0.6436 -0.0125 -1.0271
 3967TIP3    H236097   6.278   3.930  14.562  0.1576  0.1004 -0.8163
 3968TIP3   OH236098   0.797   1.167  16.247  0.3337 -0.2602 -0.5305
 3968TIP3    H136099   0.733   1.186  16.179  0.4771 -0.2731 -0.6695
 3968TIP3    H236100   0.876   1.213  16.219  0.4862 -0.5212 -0.5302
 3969TIP3   OH236101   7.735   4.644  15.368  0.1256 -0.4537 -0.3600
 3969TIP3    H136102   7.684   4.563  15.372 -0.7694  0.1426  0.5428
 3969TIP3    H236103   7.736   4.676  15.458  0.1683  0.7311 -0.7748
 3970TIP3   OH236104   3.077   6.453  15.562 -0.3936  0.0033 -0.3346
 3970TIP3    H136105   3.060   6.374  15.510  1.4126  0.1219 -1.1850
 3970TIP3    H236106   2.990   6.490  15.579 -1.0750 -0.0524 -3.2524
 3971TIP3   OH236107   5.569   7.089  14.814 -0.1179  0.3931  0.2201
 3971TIP3    H136108   5.569   7.176  14.854 -0.4043  0.1123  0.8310
 3971TIP3    H236109   5.626   7.037  14.870 -2.5804 -0.7135  1.8475
 3972TIP3   OH236110   5.797   3.053  14.212  0.5163  0.2197  0.2692
 3972TIP3    H136111   5.861   3.107  14.165  0.5898  1.0456  1.2608
 3972TIP3    H236112   5.729   3.115  14.238  1.0410  0.0563  2.2181
 3973TIP3   OH236113   1.366   0.001  15.549 -0.0395  0.1161 -0.0954
 3973TIP3    H136114   1.334  -0.071  15.603  2.6381 -2.5132 -1.6991
 3973TIP3    H236115   1.323  -0.012  15.464  0.7962  0.0997 -0.5250
 3974TIP3   OH236116   2.669   6.777  15.599  0.1669 -0.3202 -0.1855
 3974TIP3    H136117   2.645   6.700  15.546  1.6499 -0.2409 -1.0141
 3974TIP3    H236118   2.602   6.780  15.667 -1.6219 -0.6238 -1.8382
 3975TIP3   OH236119   3.678   0.739  15.190  0.5783  0.0001 -0.1941
 3975TIP3    H136120   3.658   0.724  15.098 -0.9626 -1.3659  0.3197
 3975TIP3    H236121   3.645   0.827  15.207  1.2610  0.4333 -1.0323
 3976TIP3   OH236122   3.130   8.200  15.531 -0.3840 -0.3782 -0.4005
 3976TIP3    H136123   3.143   8.119  15.581 -1.6109 -0.3823 -0.0519
 3976TIP3    H236124   3.080   8.256  15.590 -1.7931 -0.3534 -1.5744
 3977TIP3   OH236125   3.548   6.813  14.117 -0.3252  0.3468 -0.0321
 3977TIP3    H136126   3.472   6.754  14.115  0.6386 -0.9186 -0.0402
 3977TIP3    H236127   3.569   6.828  14.025  0.9723 -1.3905 -0.0788
 3978TIP3   OH236128   7.704   4.958  15.409 -0.1731  0.2442 -0.4074
 3978TIP3    H136129   7.673   4.947  15.498 -1.7029  0.6815 -0.8490
 3978TIP3    H236130   7.637   4.918  15.354  0.0949  1.0990 -1.4112
 3979TIP3   OH236131   3.786   3.196  15.531  0.0705 -0.0682 -0.0616
 3979TIP3    H136132   3.836   3.187  15.612 -0.8343 -1.2426  0.3911
 3979TIP3    H236133   3.719   3.262  15.551 -0.5477 -0.8170  0.3567
 3980TIP3   OH236134   5.178   8.017  15.696  0.3556  0.7484 -0.9733
 3980TIP3    H136135   5.094   8.063  15.696  0.5294  1.0708 -1.4102
 3980TIP3    H236136   5.235   8.071  15.751 -0.3894 -0.7532  1.4528
 3981TIP3   OH236137   5.126   2.833  15.730  0.2193 -0.1089  0.8643
 3981TIP3    H136138   5.212   2.805  15.698 -0.1676  0.5330 -0.8285
 3981TIP3    H236139   5.139   2.924  15.757 -0.0286  0.1750  0.0706
 3982TIP3   OH236140   1.328   1.497  14.225  0.5273 -0.2355  0.0243
 3982TIP3    H136141   1.272   1.564  14.185  1.2479  0.3821  0.0149
 3982TIP3    H236142   1.391   1.476  14.156  0.0374 -1.2675 -0.1281
 3983TIP3   OH236143   6.348   4.002  14.011 -0.6255 -0.4937  0.2241
 3983TIP3    H136144   6.342   4.098  14.010  0.5082 -0.3970 -1.7337
 3983TIP3    H236145   6.335   3.978  14.102 -0.3897  1.5640  0.8384
 3984TIP3   OH236146   2.977   8.179  14.512 -0.4656 -0.7009 -0.3507
 3984TIP3    H136147   2.906   8.143  14.565  0.2390 -0.7502  0.5883
 3984TIP3    H236148   2.936   8.202  14.429 -1.0539 -3.2616 -0.8581
 3985TIP3   OH236149   5.655   1.599  14.151  0.1188 -0.0535 -0.1843
 3985TIP3    H136150   5.611   1.597  14.066  1.2882 -0.2272 -0.8011
 3985TIP3    H236151   5.604   1.661  14.203 -0.3317  0.4096 -1.1654
 3986TIP3   OH236152   5.042   0.278  15.748  0.0330 -0.4194 -0.1881
 3986TIP3    H136153   4.989   0.301  15.824  0.6778 -0.0516  0.1646
 3986TIP3    H236154   4.979   0.255  15.680 -0.5536 -1.0641  0.5498
 3987TIP3   OH236155   4.288   2.051  15.741 -0.0077 -0.1759 -0.1230
 3987TIP3    H136156   4.336   2.130  15.765  1.0138 -0.0381 -2.3015
 3987TIP3    H236157   4.282   2.056  15.645 -3.1967 -0.9116 -0.0554
 3988TIP3   OH236158   0.529   3.219  15.169 -0.4521 -0.3735 -0.0570
 3988TIP3    H136159   0.538   3.164  15.246 -1.1689  1.0816  1.1184
 3988TIP3    H236160   0.436   3.217  15.149 -0.6742  1.2189  0.6659
 3989TIP3   OH236161   2.301   2.566  14.868  0.5066  0.0756 -0.0524
 3989TIP3    H136162   2.275   2.659  14.870 -2.6949 -0.7013  0.7844
 3989TIP3    H236163   2.240   2.526  14.807  1.2326 -1.6553  0.3098
 3990TIP3   OH236164   2.531   0.739  14.673  0.6460  0.4410  0.4589
 3990TIP3    H136165   2.476   0.816  14.658  2.0322  1.0687 -1.8222
 3990TIP3    H236166   2.478   0.665  14.644  0.2732  0.8239  0.1582
 3991TIP3   OH236167   0.404   6.129  15.324  0.7112 -0.8856 -0.3930
 3991TIP3    H136168   0.379   6.161  15.238 -0.4761 -2.0421 -0.5147
 3991TIP3    H236169   0.383   6.200  15.385  0.3655 -0.5475 -0.9096
 3992TIP3   OH236170   5.501   5.208  15.151 -0.4684 -0.7060  0.2462
 3992TIP3    H136171   5.438   5.184  15.082 -0.2288 -3.1012  0.7490
 3992TIP3    H236172   5.454   5.269  15.207 -1.2495 -0.0197 -1.1178
 3993TIP3   OH236173   2.457   1.833  14.178  0.1237  0.2169 -0.3662
 3993TIP3    H136174   2.515   1.850  14.104  0.0805 -2.3506 -1.0924
 3993TIP3    H236175   2.504   1.769  14.231 -1.6309 -1.2694 -0.5127
 3994TIP3   OH236176   6.572   4.962  14.817 -0.2109 -0.3093  0.8070
 3994TIP3    H136177   6.517   5.026  14.771  1.3360  0.9113  0.5732
 3994TIP3    H236178   6.629   5.015  14.872  0.4232 -1.5696  1.3987
 3995TIP3   OH236179   2.700   1.074  16.108  0.3195  0.9111  0.0118
 3995TIP3    H136180   2.615   1.104  16.075  0.5640  0.5930 -0.9287
 3995TIP3    H236181   2.699   0.979  16.093  1.3788  1.0780 -1.3202
 3996TIP3   OH236182   1.645   7.798  14.456  0.1084  0.1235 -0.8984
 3996TIP3    H136183   1.735   7.765  14.452 -0.2354 -0.7883 -1.7767
 3996TIP3    H236184   1.627   7.809  14.549  0.9394 -0.2290 -0.6892
 3997TIP3   OH236185   3.408   7.549  14.305  0.3391  0.1607 -0.0598
 3997TIP3    H136186   3.478   7.484  14.301  0.0601 -0.1225 -0.4522
 3997TIP3    H236187   3.329   7.498  14.322 -0.0010  0.2945 -1.1377
 3998TIP3   OH236188   7.149   6.125  15.426  0.7690  0.0904 -0.3071
 3998TIP3    H136189   7.235   6.085  15.412  1.7763  1.5767  1.1010
 3998TIP3    H236190   7.126   6.101  15.516 -0.6295 -0.8265 -0.8804
 3999TIP3   OH236191   6.634   7.605  14.109 -0.7358 -0.3602 -0.6140
 3999TIP3    H136192   6.587   7.675  14.155 -1.8196 -0.2258 -1.8548
 3999TIP3    H236193   6.723   7.609  14.145 -0.0666  3.2090 -2.1788
 4000TIP3   OH236194   8.143   2.370  14.754 -0.4157 -0.0359  0.1881
 4000TIP3    H136195   8.133   2.279  14.782 -0.2818 -1.1590 -2.9993
 4000TIP3    H236196   8.060   2.391  14.711  0.5148  0.3234 -1.5366
 4001TIP3   OH236197   5.571   8.440  15.556 -0.4783  0.6957  0.0936
 4001TIP3    H136198   5.547   8.448  15.648  2.8510 -0.1046  1.1781
 4001TIP3    H236199   5.620   8.520  15.537 -2.0089  1.3554 -1.3883
 4002TIP3   OH236200   1.826   1.627  14.809  0.3688 -0.1719  0.5208
 4002TIP3    H136201   1.865   1.545  14.778 -1.7551 -2.7241  3.8965
 4002TIP3    H236202   1.895   1.692  14.797  1.6647 -1.9296 -3.7546
 4003TIP3   OH236203   4.661   2.456  15.052  0.0914 -0.2851  0.6489
 4003TIP3    H136204   4.638   2.500  14.970  0.5706 -0.6035  0.3348
 4003TIP3    H236205   4.717   2.519  15.097 -1.3089  0.4753  1.3990
 4004TIP3   OH236206   3.817   3.572  14.716  0.4063 -0.0823  0.3169
 4004TIP3    H136207   3.753   3.508  14.686  2.4066 -2.9704  1.6717
 4004TIP3    H236208   3.883   3.574  14.646  0.7113 -0.0863  0.6000
 4005TIP3   OH236209   1.364   6.390  15.712 -0.1747  0.1425 -0.4117
 4005TIP3    H136210   1.455   6.396  15.740 -0.7944  1.4681  1.5067
 4005TIP3    H236211   1.353   6.299  15.685  1.0442 -0.7745  1.9467
 4006TIP3   OH236212   6.831   2.890  14.053 -0.0249 -0.5744 -0.2248
 4006TIP3    H136213   6.808   2.849  13.969 -0.5414  0.2969 -0.5254
 4006TIP3    H236214   6.752   2.936  14.079 -0.7458 -2.8223  2.0155
 4007TIP3   OH236215   0.954   0.011  16.080 -0.2114  0.4169 -0.4920
 4007TIP3    H136216   0.937   0.090  16.131 -0.2143  0.7837 -1.0531
 4007TIP3    H236217   0.868  -0.030  16.071 -0.1269  0.0673  0.2532
 4008TIP3   OH236218   4.906   8.422  15.467  0.3580  0.0293 -0.2109
 4008TIP3    H136219   4.876   8.422  15.376 -0.0193 -3.2141 -0.2139
 4008TIP3    H236220   5.001   8.409  15.461  0.1833 -1.4032 -0.1866
 4009TIP3   OH236221   5.218   5.528  14.958  0.5738  0.2321  0.5190
 4009TIP3    H136222   5.182   5.456  15.010 -1.2237  0.9793  0.3677
 4009TIP3    H236223   5.181   5.607  14.997  0.1605  0.8889 -1.1192
 4010TIP3   OH236224   0.466   7.450  15.552 -0.5294 -0.5512  0.5636
 4010TIP3    H136225   0.420   7.374  15.588 -0.7780 -0.6217  0.1009
 4010TIP3    H236226   0.546   7.414  15.514  0.0911 -0.3910  1.6477
 4011TIP3   OH236227   3.154   1.522  15.093  0.6687 -0.1315  0.2629
 4011TIP3    H136228   3.168   1.615  15.074 -1.3609  0.0954 -0.3247
 4011TIP3    H236229   3.105   1.522  15.175 -0.4471 -0.6091 -0.3898
 4012TIP3   OH236230   8.329   1.755  15.628 -0.4147 -0.0877  0.3310
 4012TIP3    H136231   8.329   1.830  15.569 -0.9066 -0.9357 -0.7774
 4012TIP3    H236232   8.301   1.790  15.713  0.4887  1.1816  0.1236
 4013TIP3   OH236233   4.022   7.671  14.581  0.4677  0.0968  0.2158
 4013TIP3    H136234   3.975   7.742  14.625  0.6174  0.0438  0.4657
 4013TIP3    H236235   4.069   7.626  14.652  1.0913  0.3033 -0.0560
 4014TIP3   OH236236   7.460   2.397  14.387  0.2332  0.5683 -0.1127
 4014TIP3    H136237   7.555   2.404  14.378  0.1496  0.5499 -1.0473
 4014TIP3    H236238   7.425   2.466  14.331 -0.3955 -2.1155 -3.3250
 4015TIP3   OH236239   2.004   0.804  13.810 -1.1583  0.0696 -0.1706
 4015TIP3    H136240   1.962   0.773  13.891 -1.7812  2.7313  0.6227
 4015TIP3    H236241   2.066   0.735  13.787 -1.0802 -0.8575  2.4957
 4016TIP3   OH236242   5.000   0.293  16.167 -0.2072  0.1395 -0.2503
 4016TIP3    H136243   5.069   0.305  16.232  0.8050  0.5051 -1.3671
 4016TIP3    H236244   4.963   0.207  16.188  1.0064 -0.3444 -0.0206
 4017TIP3   OH236245   5.624   5.536  15.862 -0.1103  0.7189 -0.5212
 4017TIP3    H136246   5.623   5.631  15.855 -1.6499  1.0685  2.7740
 4017TIP3    H236247   5.711   5.515  15.896 -0.4103  1.1513  0.5257
 4018TIP3   OH236248   6.384   4.750  13.826 -0.1905 -0.6790 -0.0678
 4018TIP3    H136249   6.289   4.741  13.814 -0.2181  0.1508 -0.5919
 4018TIP3    H236250   6.399   4.845  13.819  0.9265 -0.9596 -1.8511
 4019TIP3   OH236251   6.357   3.991  16.025 -0.1974  0.0726 -0.8646
 4019TIP3    H136252   6.371   3.931  16.099 -0.9056 -0.2031 -0.9459
 4019TIP3    H236253   6.290   4.052  16.056 -1.2080 -0.6426 -1.6082
 4020TIP3   OH236254   0.734   6.693  14.507  0.8386  0.1139 -0.0030
 4020TIP3    H136255   0.791   6.625  14.471  0.1898 -0.0482 -0.7435
 4020TIP3    H236256   0.779   6.722  14.586  1.8578 -0.1363 -0.4760
 4021TIP3   OH236257   1.131   1.339  15.343  0.3710  0.9516 -0.1329
 4021TIP3    H136258   1.049   1.299  15.315 -0.1955  2.5410 -0.8811
 4021TIP3    H236259   1.198   1.273  15.323 -0.8213 -1.0284  1.9758
 4022TIP3   OH236260   5.490   6.513  14.267  0.1955 -0.2882 -0.1321
 4022TIP3    H136261   5.476   6.498  14.174  0.9327  0.2453 -0.3436
 4022TIP3    H236262   5.585   6.528  14.274  0.2961 -1.2749  0.8406
 4023TIP3   OH236263   7.307   3.473  16.216  0.0363 -0.2043  0.5487
 4023TIP3    H136264   7.213   3.487  16.208  0.0854 -0.6358 -1.2152
 4023TIP3    H236265   7.340   3.482  16.127  1.6943  0.0291  1.1468
 4024TIP3   OH236266   6.340   1.230  15.787 -0.0837  0.6823  0.3975
 4024TIP3    H136267   6.299   1.303  15.832  1.8541  2.1984 -0.1716
 4024TIP3    H236268   6.332   1.252  15.694  0.3472  0.0744  0.2090
 4025TIP3   OH236269   4.754   6.475  14.473 -0.2653 -0.2596  0.3099
 4025TIP3    H136270   4.749   6.526  14.392 -2.0628 -1.0200 -0.0937
 4025TIP3    H236271   4.832   6.420  14.461  0.5699  0.9633 -0.0726
 4026TIP3   OH236272   2.062   5.329  14.810  0.0177  0.3369  0.3681
 4026TIP3    H136273   2.091   5.418  14.829  1.1136 -0.0598  0.6614
 4026TIP3    H236274   1.968   5.330  14.825  0.2654  1.0148  2.1289
 4027TIP3   OH236275   6.700   3.419  15.343  0.1492 -0.3471  0.2162
 4027TIP3    H136276   6.653   3.337  15.352  0.9602 -0.8301  0.2150
 4027TIP3    H236277   6.766   3.401  15.276  0.9658 -0.0034  0.9008
 4028TIP3   OH236278   1.507   1.011  14.435 -0.0078 -0.1795 -0.3689
 4028TIP3    H136279   1.469   1.099  14.438  0.5620  0.0608  0.0446
 4028TIP3    H236280   1.486   0.973  14.520  2.3280  0.6852  0.6819
 4029TIP3   OH236281   0.339   0.905  15.843 -0.0799 -0.5129 -0.2301
 4029TIP3    H136282   0.269   0.963  15.813 -0.3159 -0.8730 -0.3840
 4029TIP3    H236283   0.320   0.890  15.935  0.1731 -0.0753 -0.1064
 4030TIP3   OH236284   5.183   3.208  14.504 -0.4492 -0.8715  0.0340
 4030TIP3    H136285   5.102   3.174  14.466  0.2422  0.4329 -2.8380
 4030TIP3    H236286   5.252   3.177  14.445  0.8865  0.0437  1.0551
 4031TIP3   OH236287   5.187   6.973  15.024  0.3960  0.0374 -0.3173
 4031TIP3    H136288   5.208   7.044  15.084 -2.1814  0.9918 -0.4133
 4031TIP3    H236289   5.106   7.000  14.982  0.4017 -2.0732 -1.8650
 4032TIP3   OH236290   1.675   1.037  14.882 -0.4421  0.4640 -0.5322
 4032TIP3    H136291   1.754   1.091  14.890 -1.1810  1.5882 -0.5637
 4032TIP3    H236292   1.619   1.068  14.953 -0.1492 -1.6146  0.6913
 4033TIP3   OH236293   4.640   0.338  14.403  0.0260 -0.4388 -0.0315
 4033TIP3    H136294   4.735   0.330  14.418  0.1747  0.8190 -0.1558
 4033TIP3    H236295   4.633   0.386  14.321 -0.7448 -1.5142 -0.6162
 4034TIP3   OH236296   6.301   4.829  15.515 -0.0754  0.1816  0.3074
 4034TIP3    H136297   6.225   4.820  15.572 -0.9247  2.4342 -0.3218
 4034TIP3    H236298   6.297   4.754  15.456 -1.9998  0.3657  0.1443
 4035TIP3   OH236299   3.904   4.602  14.997  0.0482  0.2673 -0.4241
 4035TIP3    H136300   3.811   4.626  14.994  0.2750  1.5735  1.2956
 4035TIP3    H236301   3.945   4.673  15.047  1.5613 -1.5265  1.0178
 4036TIP3   OH236302   0.811   8.291  14.461  0.0375 -0.0267 -0.0775
 4036TIP3    H136303   0.776   8.202  14.461 -0.0625  0.0126 -0.1209
 4036TIP3    H236304   0.875   8.292  14.390  0.0420 -0.0647 -0.0741
 4037TIP3   OH236305   6.756   2.722  15.131  0.0483  0.5850  0.7841
 4037TIP3    H136306   6.764   2.658  15.061  0.3486 -1.6425  2.7185
 4037TIP3    H236307   6.675   2.769  15.113 -0.4682 -0.7250 -0.4262
 4038TIP3   OH236308   4.103   0.688  15.658 -0.8962 -0.1434 -0.1173
 4038TIP3    H136309   4.061   0.628  15.720  0.3759  1.0017  1.9636
 4038TIP3    H236310   4.172   0.636  15.617 -1.0560 -0.6321  0.2229
 4039TIP3   OH236311   4.535   4.815  15.046 -0.3113  0.4605  0.2319
 4039TIP3    H136312   4.473   4.785  14.980 -0.5296  1.9465 -0.2544
 4039TIP3    H236313   4.541   4.741  15.108 -1.6392 -0.1573 -0.3466
 4040TIP3   OH236314   6.445   3.224  16.120  0.0106  0.4160  0.2533
 4040TIP3    H136315   6.455   3.128  16.118 -2.4911  0.0400  1.5853
 4040TIP3    H236316   6.462   3.247  16.212 -2.3145  0.7697  0.6623
 4041TIP3   OH236317   3.322   0.393  13.880  0.2364  0.1165 -0.1468
 4041TIP3    H136318   3.401   0.436  13.912  2.2186 -1.9408 -1.9362
 4041TIP3    H236319   3.262   0.465  13.860  3.5069  2.3075 -3.4028
 4042TIP3   OH236320   1.569   2.835  14.954  0.4943 -0.0193 -0.5921
 4042TIP3    H136321   1.647   2.780  14.963  2.4004  2.4535 -0.8702
 4042TIP3    H236322   1.552   2.867  15.043 -0.0548 -0.3300 -0.5806
 4043TIP3   OH236323   7.722   4.280  13.922 -1.2043  0.1599 -0.9088
 4043TIP3    H136324   7.725   4.370  13.892 -1.9433  0.9229  1.1471
 4043TIP3    H236325   7.629   4.258  13.925 -1.0315 -0.7980 -1.6199
 4044TIP3   OH236326   3.441   5.107  14.511  0.0668 -0.1570 -0.0668
 4044TIP3    H136327   3.439   5.194  14.551  2.1769  0.4420 -1.1110
 4044TIP3    H236328   3.471   5.049  14.580 -0.0663  0.1683  0.2684
 4045TIP3   OH236329   8.051   5.840  15.689  0.0166  0.1776 -0.0895
 4045TIP3    H136330   8.146   5.833  15.696 -0.0175  0.7689  1.3834
 4045TIP3    H236331   8.018   5.795  15.767 -0.8872  0.3226 -0.3751
 4046TIP3   OH236332   4.898   0.918  15.915  0.3368  0.2568  0.1318
 4046TIP3    H136333   4.975   0.973  15.927  1.0290 -0.7781  0.5238
 4046TIP3    H236334   4.864   0.905  16.004 -0.1721  0.5193 -0.0164
 4047TIP3   OH236335   1.724   0.398  15.885  0.3592  0.1615  0.1438
 4047TIP3    H136336   1.807   0.413  15.930  0.5802 -0.0634 -0.1904
 4047TIP3    H236337   1.743   0.332  15.819 -0.0014  0.3737 -0.1798
 4048TIP3   OH236338   2.670   0.610  14.422  0.1180  0.0167 -0.0449
 4048TIP3    H136339   2.636   0.692  14.388 -1.4739 -0.9865 -0.9834
 4048TIP3    H236340   2.720   0.635  14.499  0.5761  1.9581 -0.9289
 4049TIP3   OH236341   2.513   3.776  14.771  0.4413 -0.0255  0.5302
 4049TIP3    H136342   2.459   3.835  14.717  1.4310  0.6759  0.2762
 4049TIP3    H236343   2.541   3.831  14.844 -1.5177 -1.1659  2.2430
 4050TIP3   OH236344   1.082   1.100  14.415  0.3675  0.2125  0.1040
 4050TIP3    H136345   1.078   1.192  14.389 -0.7858  0.3175  0.6147
 4050TIP3    H236346   1.062   1.051  14.335  0.3564  0.4207 -0.0214
 4051TIP3   OH236347   4.548   7.069  15.049  0.0512  0.2205  0.8018
 4051TIP3    H136348   4.589   7.067  14.963  0.2052 -1.0907  0.8820
 4051TIP3    H236349   4.607   7.019  15.105  0.1945  1.4667  1.7941
 4052TIP3   OH236350   1.645   0.666  15.743 -0.3106  0.2444 -0.1000
 4052TIP3    H136351   1.735   0.697  15.730 -0.8450  2.1547  0.3706
 4052TIP3    H236352   1.648   0.613  15.822  0.9783 -2.6025 -1.8880
 4053TIP3   OH236353   5.930   1.322  15.173 -0.1065  0.8647  0.2610
 4053TIP3    H136354   5.950   1.336  15.080  0.6914  0.3437  0.3437
 4053TIP3    H236355   5.889   1.236  15.176 -1.7553  1.6048  0.1913
 4054TIP3   OH236356   1.959   5.766  15.686 -0.0837  0.1887  0.5360
 4054TIP3    H136357   1.975   5.859  15.704  0.5493  0.3101 -0.5808
 4054TIP3    H236358   2.018   5.745  15.614  0.0300 -1.1761  0.9932
 4055TIP3   OH236359   7.179   6.635  15.922  0.1065 -0.4561  0.9124
 4055TIP3    H136360   7.196   6.540  15.924 -1.5844 -0.9742 -2.5358
 4055TIP3    H236361   7.085   6.642  15.936 -0.0410  0.5396 -0.4342
 4056TIP3   OH236362   7.305   4.625  16.162 -0.2019  0.1292 -0.1206
 4056TIP3    H136363   7.314   4.652  16.071 -1.9404  0.8236 -0.1321
 4056TIP3    H236364   7.227   4.570  16.163 -0.7377  0.8705  1.0777
 4057TIP3   OH236365   0.311   1.370  15.141  0.1203  0.1371  0.1325
 4057TIP3    H136366   0.334   1.438  15.205 -0.4342  0.0334  0.4522
 4057TIP3    H236367   0.390   1.318  15.132 -0.2442 -0.8241  1.9893
 4058TIP3   OH236368   0.900   6.145  15.077 -0.0502 -0.4696 -0.8709
 4058TIP3    H136369   0.948   6.208  15.022 -1.0454  2.5007  1.4073
 4058TIP3    H236370   0.809   6.158  15.053 -0.2269 -1.6136 -0.8551
 4059TIP3   OH236371   4.450   1.469  13.818  0.0149  0.4873 -0.1224
 4059TIP3    H136372   4.474   1.495  13.729  1.5120 -0.3805  0.0127
 4059TIP3    H236373   4.422   1.551  13.860  0.4463  1.1134 -1.0255
 4060TIP3   OH236374   7.505   0.690  15.086  0.0898  0.0567 -0.5669
 4060TIP3    H136375   7.423   0.651  15.056  0.3332  0.2490 -1.5056
 4060TIP3    H236376   7.543   0.623  15.143 -0.4261 -0.2836 -0.6087
 4061TIP3   OH236377   4.810   6.685  15.235  0.4664  0.2576  0.2683
 4061TIP3    H136378   4.780   6.643  15.155  1.0317  0.1756  0.0907
 4061TIP3    H236379   4.905   6.674  15.233  0.4231 -0.4543  1.3555
 4062TIP3   OH236380   7.753   1.858  14.951 -0.3195  0.0508  0.1012
 4062TIP3    H136381   7.833   1.897  14.988 -1.0739  0.8290  0.9753
 4062TIP3    H236382   7.732   1.786  15.011  0.1796 -0.7065 -0.6098
 4063TIP3   OH236383   1.140   1.290  14.961  0.2611 -0.4431 -0.0093
 4063TIP3    H136384   1.118   1.204  14.997  0.8957 -0.0843  1.3373
 4063TIP3    H236385   1.056   1.334  14.951  0.0676 -0.3942  1.5636
 4064TIP3   OH236386   4.537   0.190  15.022 -0.0823 -0.4740 -0.8543
 4064TIP3    H136387   4.457   0.241  15.038  0.3847  0.8126 -2.3368
 4064TIP3    H236388   4.508   0.099  15.024 -1.5343 -0.0410 -1.0611
 4065TIP3   OH236389   0.005   2.776  15.172  0.2069 -0.5888 -0.0777
 4065TIP3    H136390   0.040   2.797  15.259 -0.0832 -0.4580  0.0063
 4065TIP3    H236391  -0.080   2.819  15.169 -0.3786 -1.7086  0.0758
 4066TIP3   OH236392   1.898   5.631  14.885  0.0067 -0.5474  0.0530
 4066TIP3    H136393   1.901   5.721  14.855  0.7147 -0.5322  0.1539
 4066TIP3    H236394   1.826   5.591  14.835  1.0043 -0.4618 -1.4936
 4067TIP3   OH236395   2.658   6.672  14.278 -0.3830  0.0095 -0.2826
 4067TIP3    H136396   2.647   6.603  14.344  3.0266  0.3868  0.9146
 4067TIP3    H236397   2.657   6.753  14.329 -0.3848  0.5302 -1.1036
 4068TIP3   OH236398   2.885   0.794  15.391  0.0538 -0.1240  0.3256
 4068TIP3    H136399   2.956   0.824  15.448  0.0863 -0.9336  0.7323
 4068TIP3    H236400   2.920   0.801  15.302  0.7222 -0.6923  0.5316
 4069TIP3   OH236401   6.453   2.518  15.346  0.1460 -0.4666  0.3296
 4069TIP3    H136402   6.370   2.548  15.384  0.3426  1.7769 -0.8403
 4069TIP3    H236403   6.520   2.545  15.409  0.2193  0.5040 -0.1501
 4070TIP3   OH236404   1.592   5.002  15.202 -0.1473 -0.0906  0.3489
 4070TIP3    H136405   1.651   4.992  15.127  0.2377 -0.1516  0.6510
 4070TIP3    H236406   1.636   5.066  15.258 -1.5040  1.6708 -0.5057
 4071TIP3   OH236407   8.020   7.742  14.093 -0.9766 -0.1844 -0.3591
 4071TIP3    H136408   8.043   7.721  14.003 -2.3595 -0.4810 -0.6602
 4071TIP3    H236409   8.003   7.657  14.134  1.4699 -0.2269  0.7453
 4072TIP3   OH236410   6.465   7.078  15.921  0.3947 -0.1047 -0.1563
 4072TIP3    H136411   6.556   7.080  15.893  0.1455  0.6398 -0.9388
 4072TIP3    H236412   6.453   7.159  15.971  0.3350 -0.5269  0.5304
 4073TIP3   OH236413   0.146   6.238  14.655 -0.1802 -0.6063  0.0875
 4073TIP3    H136414   0.128   6.332  14.666  1.8684 -0.2512  0.7882
 4073TIP3    H236415   0.062   6.201  14.629 -0.6425  1.7011 -2.1030
 4074TIP3   OH236416   4.980   1.556  15.527 -0.4325  0.2874 -0.0372
 4074TIP3    H136417   4.890   1.552  15.496 -0.5912 -0.0489  0.4609
 4074TIP3    H236418   4.973   1.552  15.622  0.0936  0.5185  0.0119
 4075TIP3   OH236419   3.836   3.818  15.700 -0.1271 -0.4798  0.0687
 4075TIP3    H136420   3.777   3.753  15.660 -0.7638  1.1313 -1.7815
 4075TIP3    H236421   3.916   3.813  15.647 -0.6153  0.9966 -0.8833
 4076TIP3   OH236422   3.260   6.911  13.979 -0.0049  0.0498 -0.1741
 4076TIP3    H136423   3.246   6.823  14.016  1.2986  0.3509  1.1734
 4076TIP3    H236424   3.337   6.901  13.923  0.9198  0.5370  0.9535
 4077TIP3   OH236425   2.178   0.025  15.612  0.4238  0.6662  0.5048
 4077TIP3    H136426   2.111  -0.037  15.642  1.8401 -1.2473 -0.0655
 4077TIP3    H236427   2.170   0.100  15.672 -2.4253  0.7008  0.2145
 4078TIP3   OH236428   2.836   2.082  16.003  0.1848 -0.4440  0.7519
 4078TIP3    H136429   2.930   2.062  16.007  0.4473  0.1392 -1.1529
 4078TIP3    H236430   2.793   1.997  16.014  1.1791 -1.8750 -3.9740
 4079TIP3   OH236431   3.381   4.269  14.637  0.2643  0.6898  0.0742
 4079TIP3    H136432   3.288   4.287  14.626 -0.2598 -1.2921  0.8727
 4079TIP3    H236433   3.423   4.319  14.566 -1.3922  1.5000 -0.3940
 4080TIP3   OH236434   4.114   4.539  14.807 -0.2901 -0.5246 -0.3949
 4080TIP3    H136435   4.047   4.592  14.849 -0.0912 -0.2569 -0.4120
 4080TIP3    H236436   4.071   4.504  14.728 -0.5395 -0.7076 -0.1789
 4081TIP3   OH236437   7.550   5.607  14.171  0.7748 -0.6453 -0.1375
 4081TIP3    H136438   7.476   5.628  14.230  1.5853  2.2564  0.0304
 4081TIP3    H236439   7.510   5.597  14.085  0.0007 -0.8364  0.2355
 4082TIP3   OH236440   6.297   6.366  14.187  0.0617  0.0311 -0.0049
 4082TIP3    H136441   6.264   6.426  14.120  0.2225  0.7260  0.5294
 4082TIP3    H236442   6.348   6.301  14.137  0.6528  0.8663 -0.5059
 4083TIP3   OH236443   1.533   0.264  13.817  0.0027  0.0404 -0.4178
 4083TIP3    H136444   1.625   0.274  13.842 -0.1356 -1.0983  0.6369
 4083TIP3    H236445   1.492   0.346  13.843  0.4222 -0.0567  0.6174
 4084TIP3   OH236446   4.557   6.687  14.031 -0.3162 -0.1647 -0.0500
 4084TIP3    H136447   4.573   6.717  13.942  0.9787 -1.8433 -0.4297
 4084TIP3    H236448   4.620   6.735  14.084 -0.9695  0.7070 -0.0380
 4085TIP3   OH236449   2.203   3.781  15.325 -0.0872 -0.1882  0.2547
 4085TIP3    H136450   2.259   3.763  15.249 -0.9078 -0.2311 -0.3573
 4085TIP3    H236451   2.120   3.809  15.287 -0.9034 -1.3258  1.1107
 4086TIP3   OH236452   5.881   5.939  15.111 -0.1630 -0.1881 -0.1269
 4086TIP3    H136453   5.944   5.872  15.084 -0.5478 -0.7091  0.2499
 4086TIP3    H236454   5.821   5.894  15.170 -1.1509  0.1925 -0.8039
 4087TIP3   OH236455   5.585   6.957  15.993 -0.2924  0.4953 -0.1484
 4087TIP3    H136456   5.535   6.876  15.997 -1.4910  1.1809 -0.5265
 4087TIP3    H236457   5.673   6.930  15.966 -0.7414 -0.6441 -0.5409
 4088TIP3   OH236458   2.723   6.771  15.218 -0.9421 -0.0835  0.6805
 4088TIP3    H136459   2.703   6.733  15.303  1.8280 -1.3131  0.8826
 4088TIP3    H236460   2.811   6.807  15.227 -1.2216  1.2302 -1.2194
 4089TIP3   OH236461   1.084   5.325  15.853 -0.1478  0.2412 -0.1090
 4089TIP3    H136462   1.107   5.383  15.781 -0.3388 -0.4122 -0.7101
 4089TIP3    H236463   0.988   5.324  15.853 -0.1612  0.7201  0.5582
 4090TIP3   OH236464   7.875   5.359  15.816 -0.2088  0.3190 -1.0322
 4090TIP3    H136465   7.903   5.306  15.890 -2.2179  0.2497 -0.2547
 4090TIP3    H236466   7.938   5.339  15.747  0.7828 -0.8322  0.1490
 4091TIP3   OH236467   4.030   6.502  14.275  0.3224  0.3934  0.0967
 4091TIP3    H136468   3.994   6.531  14.191 -0.1917 -0.9252 -0.1608
 4091TIP3    H236469   4.073   6.580  14.311 -0.3226  1.2425 -0.9152
 4092TIP3   OH236470   5.597   8.049  14.700 -0.1686  0.6907 -0.2443
 4092TIP3    H136471   5.597   8.139  14.667  1.5890  0.8523  0.0939
 4092TIP3    H236472   5.686   8.018  14.684 -0.9340 -1.2685 -1.0319
 4093TIP3   OH236473   6.616   4.447  15.919 -0.7037 -0.1895  0.1439
 4093TIP3    H136474   6.571   4.531  15.926 -1.1194 -0.3752 -0.2592
 4093TIP3    H236475   6.546   4.382  15.919 -0.4328 -0.4876 -0.3788
 4094TIP3   OH236476   2.604   2.483  14.212 -0.2036  0.1111  0.2920
 4094TIP3    H136477   2.539   2.522  14.271 -0.8608  0.2487 -0.4954
 4094TIP3    H236478   2.556   2.414  14.167  0.4278 -0.3211  0.2684
 4095TIP3   OH236479   5.832   4.948  15.177 -0.2333  0.6819 -0.2955
 4095TIP3    H136480   5.861   5.021  15.122 -0.0081  2.3193  1.8522
 4095TIP3    H236481   5.905   4.933  15.237 -0.0944 -1.6790 -0.9556
 4096TIP3   OH236482   3.165   1.300  16.222  0.0040 -0.3642  0.9236
 4096TIP3    H136483   3.094   1.236  16.225 -0.1232 -0.2600  0.2209
 4096TIP3    H236484   3.186   1.309  16.129 -0.1643  0.8145  0.9845
 4097TIP3   OH236485   2.294   7.440  15.667 -0.0275 -0.3848  0.2036
 4097TIP3    H136486   2.226   7.373  15.669 -0.4259  0.0269  1.0945
 4097TIP3    H236487   2.248   7.521  15.648  0.2593 -0.1557  0.4779
 4098TIP3   OH236488   1.497   4.338  14.632  0.2641 -0.4929  0.7115
 4098TIP3    H136489   1.530   4.258  14.592  1.3861 -0.4026  1.4310
 4098TIP3    H236490   1.545   4.408  14.589 -0.2191 -0.2388  0.5723
 4099TIP3   OH236491   3.968   5.749  13.549 -0.9275 -0.2802 -0.2525
 4099TIP3    H136492   3.935   5.718  13.633 -0.7554 -3.9123 -1.3419
 4099TIP3    H236493   3.890   5.767  13.497 -1.0443  0.3509  0.1326
 4100TIP3   OH236494   7.720   4.200  14.653 -0.7684  0.2258  0.3780
 4100TIP3    H136495   7.737   4.112  14.622 -0.1555 -0.0077  1.3324
 4100TIP3    H236496   7.643   4.229  14.603 -1.4254 -1.1121  0.5809
 4101TIP3   OH236497   0.826   4.392  14.415 -0.1624 -0.0880 -0.1212
 4101TIP3    H136498   0.741   4.350  14.432 -1.1274  1.9853  0.5944
 4101TIP3    H236499   0.822   4.474  14.464  2.4363 -0.0849  0.2024
 4102TIP3   OH236500   7.358   0.435  16.258 -0.0149 -0.2285 -0.2937
 4102TIP3    H136501   7.406   0.367  16.306  0.1784 -1.8182 -2.5857
 4102TIP3    H236502   7.416   0.458  16.185 -1.7694 -0.6265 -1.8982
 4103TIP3   OH236503   4.024   1.217  14.211  0.1223 -0.0751  0.6835
 4103TIP3    H136504   3.951   1.175  14.257 -0.4479 -0.8179 -0.8300
 4103TIP3    H236505   4.078   1.253  14.281 -0.3112 -1.8001  1.9995
 4104TIP3   OH236506   5.011   6.840  16.127  0.4542 -0.6965  0.0544
 4104TIP3    H136507   5.064   6.863  16.204  1.2989 -0.6452 -0.5257
 4104TIP3    H236508   5.070   6.854  16.053 -0.9652  1.3006 -0.7918
 4105TIP3   OH236509   3.829   3.280  13.874  0.4540 -0.0211  0.3779
 4105TIP3    H136510   3.762   3.251  13.936  1.8665 -0.6739  1.6494
 4105TIP3    H236511   3.789   3.267  13.788 -1.2146  0.0461  1.1161
 4106TIP3   OH236512   6.880   4.931  14.544 -0.0668 -0.8030  0.8047
 4106TIP3    H136513   6.826   4.884  14.608  1.2000 -0.2058  2.3850
 4106TIP3    H236514   6.884   5.020  14.578 -0.0731 -0.2561 -0.6033
 4107TIP3   OH236515   1.533   1.634  14.331  0.2608 -0.1052  0.0402
 4107TIP3    H136516   1.457   1.577  14.316  0.2413 -0.2542  0.7084
 4107TIP3    H236517   1.542   1.638  14.426  1.2636 -0.3146 -0.0353
 4108TIP3   OH236518   4.294   3.635  15.854  0.0459 -0.2542  0.5254
 4108TIP3    H136519   4.373   3.667  15.898  1.1774  0.3038 -1.7258
 4108TIP3    H236520   4.319   3.549  15.821 -0.4862 -0.3152  0.2779
 4109TIP3   OH236521   6.671   2.289  15.832 -0.3173 -0.1127 -0.2676
 4109TIP3    H136522   6.604   2.221  15.826 -0.3093 -0.1470  0.0085
 4109TIP3    H236523   6.677   2.308  15.926  0.5449 -0.5961 -0.2158
 4110TIP3   OH236524   1.071   0.558  14.744 -0.2136 -0.1457  0.0076
 4110TIP3    H136525   1.161   0.532  14.763 -0.3577  0.7829  2.3446
 4110TIP3    H236526   1.027   0.476  14.719  0.7453 -1.0390  1.1321
 4111TIP3   OH236527   3.371   5.562  15.238 -0.0949 -0.4207 -0.3767
 4111TIP3    H136528   3.370   5.466  15.236 -1.2720 -0.4419  0.0975
 4111TIP3    H236529   3.365   5.588  15.146  0.1508 -0.8058 -0.5025
 4112TIP3   OH236530   8.218   1.205  15.746 -0.1674 -0.0781  0.2331
 4112TIP3    H136531   8.277   1.235  15.677 -0.4131 -0.6331 -0.2226
 4112TIP3    H236532   8.248   1.251  15.824  1.5495 -1.1321  0.2462
 4113TIP3   OH236533   4.849   2.897  15.217 -0.7399 -0.7201 -0.2094
 4113TIP3    H136534   4.827   2.988  15.237 -1.4545 -1.2488  1.6391
 4113TIP3    H236535   4.938   2.886  15.251 -0.7544 -0.7919 -0.1954
 4114TIP3   OH236536   7.547   4.574  15.707 -0.0641  0.2387 -0.2254
 4114TIP3    H136537   7.634   4.537  15.726  0.3695  0.7220 -1.2144
 4114TIP3    H236538   7.526   4.544  15.619 -0.8398  0.2590 -0.0562
 4115TIP3   OH236539   3.131   5.361  14.285  0.4435 -0.5908 -0.1979
 4115TIP3    H136540   3.144   5.271  14.314  1.4689 -0.0292  1.1916
 4115TIP3    H236541   3.051   5.389  14.329 -0.8002 -1.2891 -1.9008
 4116TIP3   OH236542   3.161   4.244  14.468 -0.2998  0.8870  0.0727
 4116TIP3    H136543   3.189   4.333  14.447 -0.6268  0.9365 -0.1657
 4116TIP3    H236544   3.089   4.227  14.407  1.1866 -0.3619 -1.4118
 4117TIP3   OH236545   1.914   3.510  16.288  0.2778 -0.2883 -0.3927
 4117TIP3    H136546   1.981   3.497  16.355  0.6706 -0.6376 -0.8485
 4117TIP3    H236547   1.896   3.423  16.254 -1.0226 -0.3206  0.2990
 4118TIP3   OH236548   0.305   4.447  14.635  0.4635  0.0076 -0.2347
 4118TIP3    H136549   0.330   4.362  14.600 -2.4111 -0.5855 -1.0954
 4118TIP3    H236550   0.270   4.495  14.560 -1.3929  0.5005  0.8695
 4119TIP3   OH236551   1.862   1.140  15.387 -0.1920 -0.1718 -0.4949
 4119TIP3    H136552   1.847   1.117  15.295  0.0757 -0.8423 -0.3767
 4119TIP3    H236553   1.905   1.063  15.424  1.1503  0.7046 -0.1834
 4120TIP3   OH236554   2.023   7.964  15.571 -0.0029  0.0135 -0.1824
 4120TIP3    H136555   2.086   8.035  15.561  1.7012 -1.3354  0.3317
 4120TIP3    H236556   1.939   8.007  15.584  0.7322  1.8859 -1.3359
 4121TIP3   OH236557   4.003   7.752  15.199 -0.1952 -0.3264  0.5273
 4121TIP3    H136558   4.087   7.797  15.189  0.8706 -1.9761  1.6635
 4121TIP3    H236559   4.001   7.726  15.291 -0.8334 -2.4309 -0.0322
 4122TIP3   OH236560   3.425   2.222  14.890 -0.8290  0.3279  0.3198
 4122TIP3    H136561   3.343   2.174  14.880 -1.8371  2.1907 -0.8494
 4122TIP3    H236562   3.480   2.164  14.942 -2.4110 -1.5343  0.0318
 4123TIP3   OH236563   3.756   1.203  15.861 -0.6030  0.0635 -0.3970
 4123TIP3    H136564   3.690   1.135  15.846 -1.1466  0.4558  0.1866
 4123TIP3    H236565   3.707   1.277  15.896 -0.2178  1.2339 -2.2081
 4124TIP3   OH236566   0.850   2.309  14.908  0.4575  0.1608  0.3086
 4124TIP3    H136567   0.777   2.369  14.895  0.2169 -0.4201 -1.2012
 4124TIP3    H236568   0.809   2.230  14.943  0.4152  0.0106 -0.0712
 4125TIP3   OH236569   3.608   2.413  14.182 -0.2626  0.3708  0.0164
 4125TIP3    H136570   3.591   2.445  14.270  1.1830  1.2174  0.0200
 4125TIP3    H236571   3.536   2.448  14.130 -0.5802  0.7109  0.6733
 4126TIP3   OH236572   0.369   0.303  14.639  0.2773  0.0558 -0.3380
 4126TIP3    H136573   0.292   0.341  14.682  0.7833 -0.5941  1.2239
 4126TIP3    H236574   0.389   0.226  14.691  2.4750  0.6589 -0.1957
 4127TIP3   OH236575   2.221   0.212  13.978  0.0619 -0.2003 -0.3981
 4127TIP3    H136576   2.192   0.271  14.048  1.0399 -0.9429  0.6678
 4127TIP3    H236577   2.162   0.137  13.985 -0.9190  0.4458 -1.4875
 4128TIP3   OH236578   2.646   6.082  14.250  0.1514 -0.2147  0.2923
 4128TIP3    H136579   2.553   6.100  14.253  0.1633 -0.1512  0.2670
 4128TIP3    H236580   2.688   6.168  14.253  0.3167 -0.2651  3.6546
 4129TIP3   OH236581   1.205   1.745  16.339 -0.6343 -0.2308  0.2157
 4129TIP3    H136582   1.240   1.806  16.404 -3.6007  2.6346 -0.6023
 4129TIP3    H236583   1.275   1.737  16.274  0.9684 -0.2001  1.8414
 4130TIP3   OH236584   1.811   8.112  15.638 -0.0785  0.4882 -0.3940
 4130TIP3    H136585   1.775   8.132  15.724  1.5107  1.7525  0.0457
 4130TIP3    H236586   1.759   8.163  15.577 -0.6596  0.2686 -0.0836
 4131TIP3   OH236587   2.081   6.451  14.269 -0.2637  0.1421 -0.6355
 4131TIP3    H136588   2.017   6.389  14.233  1.1656 -1.4778 -0.5094
 4131TIP3    H236589   2.110   6.503  14.194  0.1879 -0.9066 -1.2145
 4132TIP3   OH236590   6.908   6.291  15.580 -0.0484 -0.2164 -0.2846
 4132TIP3    H136591   6.887   6.335  15.662  1.5486 -2.0265  1.1975
 4132TIP3    H236592   6.871   6.203  15.590  2.9699 -1.5974  0.0407
 4133TIP3   OH236593   2.942   0.435  15.672 -0.2833 -0.1749 -0.6873
 4133TIP3    H136594   3.032   0.434  15.642 -1.0598  0.6828 -3.3381
 4133TIP3    H236595   2.900   0.362  15.625 -1.0694 -0.3052  0.1796
 4134TIP3   OH236596   2.913   0.124  15.854 -0.7030 -0.3579  0.6650
 4134TIP3    H136597   2.900   0.100  15.763  0.6347  2.7558 -0.4821
 4134TIP3    H236598   3.004   0.100  15.873 -0.2688  0.9805  0.4062
 4135TIP3   OH236599   3.097   2.399  14.395  0.4334 -0.2797  0.2241
 4135TIP3    H136600   3.009   2.415  14.360  1.3060 -0.1087 -2.1097
 4135TIP3    H236601   3.102   2.454  14.473 -1.4961 -0.2558  0.3893
 4136TIP3   OH236602   7.017   3.414  14.375 -0.2850 -0.2621 -0.4967
 4136TIP3    H136603   6.985   3.504  14.362 -0.7328 -0.4253 -0.5348
 4136TIP3    H236604   7.042   3.411  14.468  2.8965  0.9027 -1.1776
 4137TIP3   OH236605   0.953   5.332  14.858  0.0442 -0.3330  0.1217
 4137TIP3    H136606   0.949   5.267  14.928 -1.1789  1.0794  1.3983
 4137TIP3    H236607   0.924   5.414  14.898 -1.5888  0.3464 -2.2290
 4138TIP3   OH236608   1.593   4.716  15.379  0.1529  0.1589 -0.1095
 4138TIP3    H136609   1.580   4.750  15.290 -1.1477  1.2188  0.4541
 4138TIP3    H236610   1.622   4.791  15.430 -0.2210 -0.1799  0.6120
 4139TIP3   OH236611   2.867   6.639  15.703  0.0291  0.0796 -0.5409
 4139TIP3    H136612   2.800   6.704  15.681 -0.2154 -0.1485 -0.4839
 4139TIP3    H236613   2.819   6.556  15.710  0.3493 -0.1231 -0.6984
 4140TIP3   OH236614   0.061   8.169  15.964  0.2585 -0.2832  0.3737
 4140TIP3    H136615   0.052   8.264  15.958  0.0527 -0.3529 -0.6446
 4140TIP3    H236616  -0.016   8.141  16.013 -0.8271 -0.0876 -1.1183
 4141TIP3   OH236617   1.478   2.127  14.230  0.4089 -0.1764 -0.4892
 4141TIP3    H136618   1.384   2.146  14.222  0.5718  0.7746 -0.2573
 4141TIP3    H236619   1.509   2.118  14.140  0.3946  1.0878 -0.6391
 4142TIP3   OH236620   0.780   1.694   9.036  0.3721 -0.5166  0.3191
 4142TIP3    H136621   0.685   1.678   9.037  0.3918 -0.8208 -0.7895
 4142TIP3    H236622   0.789   1.780   8.996  0.5658 -0.5963  0.1863
 4143TIP3   OH236623   0.258   1.744  15.103 -0.4754  0.0870 -0.0930
 4143TIP3    H136624   0.303   1.763  15.186 -1.5553 -1.0493  0.7902
 4143TIP3    H236625   0.233   1.831  15.070  2.8080  0.8505 -0.9712
 4144TIP3   OH236626   6.573   0.033  14.893 -0.4986  0.0451 -0.2444
 4144TIP3    H136627   6.597  -0.003  14.807 -1.3853  0.0119 -0.4930
 4144TIP3    H236628   6.593  -0.037  14.955 -0.3845 -0.1461 -0.4950
 4145TIP3   OH236629   6.876   0.586  16.085  0.1800  0.3366  0.2887
 4145TIP3    H136630   6.957   0.558  16.127  0.7017  0.4363 -0.6169
 4145TIP3    H236631   6.871   0.680  16.103  0.2106  0.3117  0.4280
 4146TIP3   OH236632   3.914   3.254  14.319 -0.0074 -0.0382 -0.9357
 4146TIP3    H136633   3.855   3.327  14.306 -0.4086 -0.5626 -2.2081
 4146TIP3    H236634   3.857   3.179  14.337  0.1808 -0.6784 -2.7667
 4147TIP3   OH236635   6.860   3.400  15.137  0.0840  0.5997 -0.2759
 4147TIP3    H136636   6.916   3.445  15.074  1.9241 -0.8896  0.2093
 4147TIP3    H236637   6.786   3.368  15.085  1.2123 -0.0113 -1.5691
 4148TIP3   OH236638   1.991   7.006  15.688  0.7689  0.4589  0.1380
 4148TIP3    H136639   1.918   6.979  15.744 -0.3310  2.8512 -0.0430
 4148TIP3    H236640   1.984   6.948  15.611  0.8717 -1.2742  1.3772
 4149TIP3   OH236641   0.051   1.626  14.220  0.5138 -0.4502  0.2313
 4149TIP3    H136642   0.033   1.702  14.165  0.3232  0.4750  1.5160
 4149TIP3    H236643   0.127   1.584  14.180  0.2582  0.0841 -0.8297
 4150TIP3   OH236644   2.879   2.577  15.754  0.4758  0.6175 -0.5247
 4150TIP3    H136645   2.895   2.483  15.757  0.1471  0.5878  1.0513
 4150TIP3    H236646   2.838   2.591  15.669  1.0706 -0.5630 -1.0335
 4151TIP3   OH236647   5.631   1.362  14.276 -0.0872 -0.2003  1.3292
 4151TIP3    H136648   5.679   1.373  14.358  2.3986  0.9704 -0.1778
 4151TIP3    H236649   5.631   1.449  14.236 -1.6591 -0.6500  0.2532
 4152TIP3   OH236650   4.158   3.591  14.822 -0.0705 -0.3320  0.4390
 4152TIP3    H136651   4.184   3.660  14.760 -1.2952  0.4126  0.7257
 4152TIP3    H236652   4.066   3.609  14.841  0.1134 -0.9188  2.0069
 4153TIP3   OH236653   1.109   0.968  15.331  0.7885  0.0509 -0.3165
 4153TIP3    H136654   1.085   0.876  15.328 -1.3633  0.5384  0.4044
 4153TIP3    H236655   1.204   0.968  15.344  0.9554 -2.0305 -1.2399
 4154TIP3   OH236656   1.716   3.387  15.502  0.4533 -0.1712 -0.2322
 4154TIP3    H136657   1.654   3.424  15.439 -0.7155  0.3021  1.1580
 4154TIP3    H236658   1.786   3.350  15.447 -1.2848 -1.2148 -1.8792
 4155TIP3   OH236659   0.349   2.176  15.116  0.0395 -0.6237  0.5803
 4155TIP3    H136660   0.324   2.268  15.108  0.3568 -0.5824 -0.0647
 4155TIP3    H236661   0.390   2.169  15.202  1.1227  0.1151  0.1455
 4156TIP3   OH236662   3.382   0.292  14.153  0.0211 -0.2849  0.0491
 4156TIP3    H136663   3.377   0.338  14.069  0.0507 -0.1880  0.0996
 4156TIP3    H236664   3.329   0.345  14.213  0.0696 -0.3075  0.1123
 4157TIP3   OH236665   0.152   7.059  15.227  0.9305  1.1434 -0.0046
 4157TIP3    H136666   0.149   7.103  15.312  0.7665  4.0036 -1.3434
 4157TIP3    H236667   0.131   7.129  15.164 -0.4933 -1.1709 -2.3002
 4158TIP3   OH236668   1.838   3.287  16.152 -0.2798 -0.0158 -0.4102
 4158TIP3    H136669   1.789   3.350  16.099 -1.4188 -2.3850 -2.3938
 4158TIP3    H236670   1.775   3.216  16.168  0.3150  0.1187  3.4494
 4159TIP3   OH236671   4.604   6.140  15.634  0.0973  0.0001 -0.2966
 4159TIP3    H136672   4.579   6.130  15.542 -1.2815  0.5855 -0.0169
 4159TIP3    H236673   4.695   6.112  15.638  0.0553 -0.4075 -1.7666
 4160TIP3   OH236674   6.306   1.705  15.231  0.4618  0.0543 -0.4506
 4160TIP3    H136675   6.384   1.750  15.266  1.0126 -0.1182 -1.4217
 4160TIP3    H236676   6.233   1.745  15.277  1.2218 -1.0530  1.8563
 4161TIP3   OH236677   8.412   8.121  14.264 -0.8247  0.2630 -0.4302
 4161TIP3    H136678   8.465   8.167  14.329 -1.1105 -2.9316  2.3292
 4161TIP3    H236679   8.474   8.064  14.218 -1.1467 -0.0464 -0.4857
 4162TIP3   OH236680   1.221   2.202  14.342 -0.6149 -0.4547  0.3437
 4162TIP3    H136681   1.149   2.213  14.404 -0.0854  2.8163  0.5384
 4162TIP3    H236682   1.189   2.242  14.261  0.9483  1.1871  0.4766
 4163TIP3   OH236683   6.346   3.395  14.782 -1.0997  0.2084 -0.1057
 4163TIP3    H136684   6.321   3.330  14.847  0.7353 -0.9163 -0.4695
 4163TIP3    H236685   6.344   3.348  14.699  0.7986  0.4335 -0.3088
 4164TIP3   OH236686   7.870   5.627  15.481  0.5064 -0.2753 -0.0892
 4164TIP3    H136687   7.959   5.654  15.458  0.2334  1.6758  0.9719
 4164TIP3    H236688   7.826   5.616  15.397  1.0160  1.3825 -0.6034
 4165TIP3   OH236689   6.643   3.472  13.980  0.3986 -0.5421 -0.0818
 4165TIP3    H136690   6.668   3.428  14.061 -0.6608 -0.2004  0.4494
 4165TIP3    H236691   6.585   3.411  13.936 -0.0681 -0.2014  0.0511
 4166TIP3   OH236692   7.221   6.147  14.499  0.0324  0.5785 -0.1798
 4166TIP3    H136693   7.227   6.063  14.453 -1.4208  0.3727 -0.0554
 4166TIP3    H236694   7.161   6.129  14.572  2.6602  0.7500  2.1764
 4167TIP3   OH236695   8.112   2.139  14.905 -0.0515 -0.4765 -0.6374
 4167TIP3    H136696   8.180   2.109  14.965  1.5155  0.6628 -1.7693
 4167TIP3    H236697   8.094   2.063  14.849 -1.1868 -1.4004  0.8915
 4168TIP3   OH236698   1.763   1.628  13.599  0.9181  0.0860 -0.6228
 4168TIP3    H136699   1.691   1.565  13.600  0.7361  0.2731  0.6939
 4168TIP3    H236700   1.724   1.709  13.568  0.9894 -0.2568 -1.6385
 4169TIP3   OH236701   2.419   4.610  14.661  0.1129 -0.1353  0.2303
 4169TIP3    H136702   2.413   4.659  14.743  1.6710  1.4778 -0.5525
 4169TIP3    H236703   2.509   4.578  14.658  0.3094  0.4649 -1.1773
 4170TIP3   OH236704   1.590   7.653  13.526 -0.1579  0.1397 -0.2155
 4170TIP3    H136705   1.547   7.676  13.444  2.3916  3.0546 -0.8855
 4170TIP3    H236706   1.560   7.718  13.589  1.0274  0.4605  0.0450
 4171TIP3   OH236707   0.676   1.857  16.322  0.4430 -0.0117  0.2350
 4171TIP3    H136708   0.754   1.816  16.361  1.2447  0.9465 -0.3091
 4171TIP3    H236709   0.619   1.783  16.301  1.4489 -0.7973  0.1385
 4172TIP3   OH236710   2.914   1.522  14.168 -0.0722  0.1463  0.0920
 4172TIP3    H136711   2.928   1.616  14.180  1.3530 -0.2477  2.1290
 4172TIP3    H236712   2.995   1.490  14.128 -0.0011 -0.3816  0.6319
 4173TIP3   OH236713   1.581   5.430  14.240 -0.2669 -0.5820  0.6444
 4173TIP3    H136714   1.627   5.357  14.198 -0.4777 -2.0016  2.7224
 4173TIP3    H236715   1.489   5.403  14.241 -0.7387  0.8549 -0.7432
 4174TIP3   OH236716   0.838   1.445  15.597 -0.5078 -0.6036  0.2793
 4174TIP3    H136717   0.848   1.363  15.646  0.9693 -0.7942 -0.2793
 4174TIP3    H236718   0.878   1.426  15.511  0.3597  0.8559  0.3291
 4175TIP3   OH236719   7.075   3.064  14.891  0.0227  0.8021 -0.0990
 4175TIP3    H136720   7.150   3.008  14.911  0.1881  0.3404 -1.8798
 4175TIP3    H236721   7.010   3.043  14.958  0.7238 -0.2594  0.2640
 4176TIP3   OH236722   4.242   1.746  14.579  0.3088 -0.2159  0.2085
 4176TIP3    H136723   4.172   1.733  14.516 -1.0924 -1.3778  1.8779
 4176TIP3    H236724   4.262   1.657  14.611  1.7347  0.2157  0.6034
 4177TIP3   OH236725   2.884   0.495  14.056  0.2145 -0.0351 -0.4577
 4177TIP3    H136726   2.923   0.419  14.012  0.0447  0.8967 -2.2946
 4177TIP3    H236727   2.959   0.546  14.087  0.3665 -0.1705 -0.5966
 4178TIP3   OH236728   6.968   3.757  15.302 -0.2308  0.2011 -0.0140
 4178TIP3    H136729   7.011   3.689  15.354 -0.4891 -1.6323 -2.0772
 4178TIP3    H236730   6.918   3.807  15.366  1.4440 -0.3462  1.8418
 4179TIP3   OH236731   5.651   1.010  14.606  0.0026  0.5676  0.3084
 4179TIP3    H136732   5.696   1.017  14.522 -0.6434 -1.7828 -0.3244
 4179TIP3    H236733   5.722   1.001  14.670  0.5196 -0.7324 -0.3978
 4180TIP3   OH236734   1.734   1.918  15.046 -0.2040  0.8357  0.8521
 4180TIP3    H136735   1.822   1.949  15.022  0.4047  0.2815  2.2579
 4180TIP3    H236736   1.677   1.951  14.976  1.4146 -0.4776 -1.2255
 4181TIP3   OH236737   6.169   5.649  15.284  0.6358  0.1854 -0.1044
 4181TIP3    H136738   6.214   5.586  15.228  3.0523  0.5183  1.2931
 4181TIP3    H236739   6.238   5.683  15.341 -1.4018  0.8119  2.1786
 4182TIP3   OH236740   2.008   0.067  13.503  0.1605 -0.4325  0.4877
 4182TIP3    H136741   1.923   0.107  13.483  0.7346  0.2358 -0.7690
 4182TIP3    H236742   1.988  -0.001  13.567 -1.0600  0.8985  1.6002
 4183TIP3   OH236743   1.604   1.381  14.445 -0.7119  0.3090 -0.2050
 4183TIP3    H136744   1.512   1.355  14.441 -0.3815 -0.7924 -1.6489
 4183TIP3    H236745   1.635   1.348  14.529 -1.2326 -0.8828 -0.4527
 4184TIP3   OH236746   8.408   1.194  16.236  1.0467 -0.0321 -0.3345
 4184TIP3    H136747   8.438   1.233  16.317  0.4971  1.2476 -0.7221
 4184TIP3    H236748   8.321   1.231  16.222  0.9503 -0.5737 -1.2768
 4185TIP3   OH236749   6.601   3.905  14.161  0.2899 -0.2405 -0.3977
 4185TIP3    H136750   6.688   3.871  14.144  0.4268  0.4007 -1.0062
 4185TIP3    H236751   6.555   3.897  14.077 -0.2196 -0.4978 -0.1062
 4186TIP3   OH236752   5.659   2.310  14.934 -0.1022 -0.1518 -0.1449
 4186TIP3    H136753   5.622   2.390  14.971 -1.4660 -0.3397 -1.0609
 4186TIP3    H236754   5.586   2.249  14.930  0.8758 -1.4205  0.3970
 4187TIP3   OH236755   4.855   7.960  14.893  0.0489  0.3219  0.1274
 4187TIP3    H136756   4.940   7.917  14.885  0.6691  1.4516  0.5745
 4187TIP3    H236757   4.874   8.053  14.893 -1.3709  0.6779 -1.9378
 4188TIP3   OH236758   0.865   7.573  14.886 -0.8062  0.0977  0.2145
 4188TIP3    H136759   0.884   7.508  14.819 -0.2597  1.1601 -0.6995
 4188TIP3    H236760   0.948   7.588  14.929 -0.9657  0.0645  0.5342
 4189TIP3   OH236761   7.202   2.710  15.753  0.8086 -0.4939  0.5983
 4189TIP3    H136762   7.269   2.642  15.747 -0.1417 -1.4970  0.9087
 4189TIP3    H236763   7.197   2.747  15.665  2.3422  0.1829  0.7733
 4190TIP3   OH236764   7.978   4.961  14.195 -0.1603 -0.4859 -0.0269
 4190TIP3    H136765   7.886   4.955  14.168 -0.2226 -1.3477  0.3437
 4190TIP3    H236766   8.008   4.870  14.197  0.7373 -0.2070 -0.2507
 4191TIP3   OH236767   7.921   1.459  16.230  0.2479 -0.0373 -0.3450
 4191TIP3    H136768   7.987   1.414  16.178  1.2708  0.4464  0.5187
 4191TIP3    H236769   7.924   1.550  16.199 -0.2093 -0.0646 -0.4843
 4192TIP3   OH236770   1.354   1.322  14.774  0.4180 -0.7625 -0.1230
 4192TIP3    H136771   1.279   1.312  14.833 -0.7073  2.4690 -0.8218
 4192TIP3    H236772   1.430   1.301  14.828 -0.8236 -2.0567  1.2056
 4193TIP3   OH236773   2.306   6.858  14.273  0.2083  0.0910  0.2828
 4193TIP3    H136774   2.217   6.888  14.256  0.1685 -0.5780 -0.7579
 4193TIP3    H236775   2.348   6.931  14.319 -0.1879  1.3368 -1.2736
 4194TIP3   OH236776   5.824   3.914  16.307 -0.0518  0.3522 -0.5745
 4194TIP3    H136777   5.833   4.009  16.296 -0.0499  0.4428  0.1331
 4194TIP3    H236778   5.806   3.903  16.400  0.7949 -0.4023 -0.4825
 4195TIP3   OH236779   0.675   5.014  15.110  0.3366  0.2380  0.3678
 4195TIP3    H136780   0.602   5.074  15.094 -0.7255 -1.1889 -0.2448
 4195TIP3    H236781   0.684   5.013  15.206 -1.3985 -0.6531  0.5530
 4196TIP3   OH236782   4.333   5.971  14.396  0.0508 -0.2370 -0.4442
 4196TIP3    H136783   4.396   5.954  14.325  1.5998  0.5199  0.6832
 4196TIP3    H236784   4.247   5.955  14.357  0.8920 -0.4030 -2.3154
 4197TIP3   OH236785   5.101   0.009  14.746 -0.6264 -0.0741  0.5804
 4197TIP3    H136786   5.152  -0.070  14.766  1.6367  0.8839 -0.9502
 4197TIP3    H236787   5.085   0.004  14.652 -0.9418  1.0256  0.5628
 4198TIP3   OH236788   5.442   4.605  14.762  0.0040  0.6269 -0.0659
 4198TIP3    H136789   5.439   4.594  14.857 -1.1991  1.5439  0.0259
 4198TIP3    H236790   5.535   4.613  14.742  0.4874 -2.0823  0.7005
 4199TIP3   OH236791   7.900   6.052  15.647 -0.0127  0.4575 -0.3362
 4199TIP3    H136792   7.954   5.975  15.664 -0.0434  0.3443 -0.7404
 4199TIP3    H236793   7.869   6.040  15.557 -0.0358  0.9301 -0.3924
 4200TIP3   OH236794   1.158   8.253  13.944  0.3053 -0.0446  0.7952
 4200TIP3    H136795   1.089   8.308  13.908  1.6511 -0.6971 -3.3409
 4200TIP3    H236796   1.113   8.194  14.005 -2.1581  1.6263  0.7360
 4201TIP3   OH236797   2.376   5.508  16.037  0.1024 -0.3463  0.0838
 4201TIP3    H136798   2.384   5.576  15.971 -0.6136 -0.8134 -0.5070
 4201TIP3    H236799   2.465   5.476  16.050  0.2977 -0.0137 -0.3985
 4202TIP3   OH236800   3.424   5.939  15.329 -0.5539  0.1664 -0.5088
 4202TIP3    H136801   3.472   6.013  15.292 -2.0271  1.4794  0.1119
 4202TIP3    H236802   3.428   5.953  15.424  2.2370 -2.5615 -0.0483
 4203TIP3   OH236803   1.637   5.534  14.798  0.3184  0.8160  0.0215
 4203TIP3    H136804   1.681   5.453  14.822 -0.9757  0.5470  1.6917
 4203TIP3    H236805   1.611   5.521  14.707  0.5433 -0.4570  0.1240
 4204TIP3   OH236806   5.235   3.608  15.216  0.1134 -0.2921  0.4156
 4204TIP3    H136807   5.231   3.685  15.160 -1.6038  1.0046  2.2257
 4204TIP3    H236808   5.195   3.538  15.163 -0.4450  0.6046 -0.3727
 4205TIP3   OH236809   7.251   7.626  14.107  0.4379  0.1562  0.1385
 4205TIP3    H136810   7.314   7.630  14.035 -0.0093  0.3799 -0.2521
 4205TIP3    H236811   7.256   7.536  14.139  0.4587 -0.0158 -0.3389
 4206TIP3   OH236812   2.633   1.874  15.257  0.0673 -0.0154 -0.3551
 4206TIP3    H136813   2.613   1.943  15.194  1.4184  2.1768  1.4768
 4206TIP3    H236814   2.548   1.844  15.288 -0.6788  3.5079  1.4842
 4207TIP3   OH236815   0.452   7.975  15.813  0.3012  0.4176  0.2425
 4207TIP3    H136816   0.402   7.937  15.741 -0.0111  0.1863  0.5771
 4207TIP3    H236817   0.398   8.047  15.845 -1.1992 -1.5381  2.4229
 4208TIP3   OH236818   0.953   6.906  15.926 -0.2360 -0.3624 -0.4129
 4208TIP3    H136819   0.935   6.947  16.011 -0.7868 -0.8033 -0.3143
 4208TIP3    H236820   0.978   6.979  15.869  0.0170 -0.0456  0.0935
 4209TIP3   OH236821   4.224   8.088  15.004 -0.7151 -0.5165 -0.1684
 4209TIP3    H136822   4.239   8.121  14.916  0.3638 -1.8077 -0.5015
 4209TIP3    H236823   4.307   8.101  15.049 -1.1838 -0.0945  0.5890
 4210TIP3   OH236824   6.269   4.636  16.003 -0.0650 -0.1231  0.5243
 4210TIP3    H136825   6.189   4.685  16.020  0.0860  0.1308  0.5005
 4210TIP3    H236826   6.306   4.619  16.090 -0.3031 -0.5081  0.5531
 4211TIP3   OH236827   1.089   7.565  15.021  0.2154  0.1768  0.3458
 4211TIP3    H136828   1.108   7.472  15.034 -1.6107 -0.1194  1.1148
 4211TIP3    H236829   1.174   7.608  15.030  1.7110 -1.6370 -3.0514
 4212TIP3   OH236830   3.034   2.694  13.914 -0.8426 -0.4078  0.3023
 4212TIP3    H136831   2.969   2.757  13.944  0.6097  1.6529 -0.6597
 4212TIP3    H236832   3.067   2.653  13.995 -0.8462  1.0598  1.0738
 4213TIP3   OH236833   1.173   2.949  16.025  0.6273 -0.3753 -0.2508
 4213TIP3    H136834   1.179   2.909  16.111  0.5381  0.0861 -0.0304
 4213TIP3    H236835   1.164   3.043  16.042  3.0605  0.0173 -0.7937
 4214TIP3   OH236836   2.572   4.847  15.404 -0.7177  0.7288 -0.1809
 4214TIP3    H136837   2.630   4.863  15.478 -0.7415  0.8593 -0.1907
 4214TIP3    H236838   2.631   4.829  15.331 -0.6993  0.3333 -0.0693
 4215TIP3   OH236839   2.508   4.026  15.649  0.0011 -0.4295 -0.1878
 4215TIP3    H136840   2.590   4.057  15.610 -0.2604  0.1810 -0.2660
 4215TIP3    H236841   2.530   3.941  15.687  0.9363  0.1693  0.6789
 4216TIP3   OH236842   2.951   5.193  15.049  0.0575  0.0804  0.1705
 4216TIP3    H136843   2.931   5.100  15.045 -3.3529  0.5755  1.7491
 4216TIP3    H236844   3.021   5.200  15.115 -0.7244 -1.2786  1.1988
 4217TIP3   OH236845   7.759   7.644  14.400  0.2719 -0.5713 -0.0628
 4217TIP3    H136846   7.718   7.731  14.393  0.6913 -0.5024 -3.9219
 4217TIP3    H236847   7.685   7.584  14.409 -0.0592  0.0411  1.9529
 4218TIP3   OH236848   6.606   7.537  14.752  0.1929 -0.6369  0.0633
 4218TIP3    H136849   6.629   7.587  14.674  4.0090 -1.0237  0.7604
 4218TIP3    H236850   6.566   7.456  14.719 -1.7986  0.7870 -1.2235
 4219TIP3   OH236851   6.793   5.480  15.003  0.2222 -0.8416  0.0293
 4219TIP3    H136852   6.814   5.532  15.081  1.5169 -0.4912 -0.5161
 4219TIP3    H236853   6.868   5.422  14.992  0.9691  0.3971 -1.9882
 4220TIP3   OH236854   1.635   0.507  14.169  0.1854  0.3167  0.3631
 4220TIP3    H136855   1.554   0.455  14.179  0.3806  0.0569  0.6040
 4220TIP3    H236856   1.635   0.533  14.076  0.0418 -0.0408  0.2599
 4221TIP3   OH236857   0.668   8.135  15.765  0.4964  0.0610 -0.3558
 4221TIP3    H136858   0.674   8.122  15.671 -1.7939  0.2898 -0.5841
 4221TIP3    H236859   0.606   8.069  15.795  0.9294  0.2087  0.9436
 4222TIP3   OH236860   4.084   8.054  15.430  0.1341 -0.4834  0.2848
 4222TIP3    H136861   4.039   8.024  15.509 -1.1763  0.0379 -0.2492
 4222TIP3    H236862   4.093   7.975  15.376 -1.5108 -0.3481 -0.2451
 4223TIP3   OH236863   6.834   3.623  16.402  0.6654  0.7365  0.2912
 4223TIP3    H136864   6.747   3.625  16.362  1.6059  0.6390 -1.8973
 4223TIP3    H236865   6.839   3.704  16.451 -0.5531  0.8874  0.2116
 4224TIP3   OH236866   2.184   4.560  14.518  0.1831 -0.1782  0.1491
 4224TIP3    H136867   2.122   4.623  14.555 -0.1269 -1.0901  1.2270
 4224TIP3    H236868   2.266   4.579  14.564  0.6606  0.7915 -1.0229
 4225TIP3   OH236869   1.393   3.139  15.961 -0.6411 -0.3328  0.4469
 4225TIP3    H136870   1.396   3.234  15.952  1.1699 -0.5285 -1.7877
 4225TIP3    H236871   1.321   3.112  15.905 -1.4530 -0.2936  1.4358
 4226TIP3   OH236872   5.823   6.167  15.329 -0.3600 -0.3782  0.6262
 4226TIP3    H136873   5.832   6.076  15.299 -0.3086 -0.4755  0.9334
 4226TIP3    H236874   5.814   6.160  15.424  0.1122 -0.0311  0.6987
 4227TIP3   OH236875   3.702   2.511  15.389  0.0366 -0.1661 -0.0041
 4227TIP3    H136876   3.755   2.545  15.316  1.1551 -2.5201 -0.4130
 4227TIP3    H236877   3.631   2.464  15.346  0.1684 -0.7669  0.4124
 4228TIP3   OH236878   4.540   8.167  15.124 -0.5347 -0.3207  0.6399
 4228TIP3    H136879   4.586   8.196  15.202  0.0399  0.3474  0.0703
 4228TIP3    H236880   4.593   8.094  15.091  0.8976  1.2559 -0.7239
 4229TIP3   OH236881   2.472   5.486  14.816  0.5798 -0.5449  0.2158
 4229TIP3    H136882   2.514   5.554  14.763 -0.1074 -0.6509 -0.4902
 4229TIP3    H236883   2.385   5.476  14.776 -0.3911  0.1580  2.0432
 4230TIP3   OH236884   0.508   5.949  14.917  0.0814  0.2379  0.3207
 4230TIP3    H136885   0.438   6.005  14.881  1.4328  1.4245 -0.5611
 4230TIP3    H236886   0.552   6.005  14.981  1.2112  0.0758 -0.2914
 4231TIP3   OH236887   6.740   5.070  14.279  0.0215  0.3463 -0.1143
 4231TIP3    H136888   6.671   5.007  14.258 -0.9098  1.8723 -1.9987
 4231TIP3    H236889   6.787   5.031  14.353 -1.4171 -1.8196 -0.2511
 4232TIP3   OH236890   1.703   3.389  15.114  0.5571 -0.5737 -0.3098
 4232TIP3    H136891   1.780   3.336  15.133  1.6563  0.4281 -1.7426
 4232TIP3    H236892   1.723   3.474  15.153  0.1268 -0.3439 -0.5907
 4233TIP3   OH236893   0.351   3.770  15.385 -0.0717  0.2096 -0.8324
 4233TIP3    H136894   0.441   3.767  15.352  0.2465 -1.9318  0.0079
 4233TIP3    H236895   0.339   3.861  15.413  2.5762  0.1879  0.8435
 4234TIP3   OH236896   4.019   0.029  13.797 -0.0988 -0.4857  0.7355
 4234TIP3    H136897   4.031  -0.044  13.736  0.3543 -1.3458  1.8397
 4234TIP3    H236898   4.108   0.055  13.821 -0.2784 -0.1091  0.9928
 4235TIP3   OH236899   0.014   5.089  14.550 -0.0400  0.2278 -0.5854
 4235TIP3    H136900  -0.024   5.001  14.545 -0.1992  0.2365  0.3022
 4235TIP3    H236901  -0.021   5.126  14.631  0.1881  1.0371 -0.8477
 4236TIP3   OH236902   4.329   4.725  14.838  0.1156 -0.0331 -0.1405
 4236TIP3    H136903   4.311   4.787  14.768 -0.1740  0.5505  0.4452
 4236TIP3    H236904   4.256   4.663  14.835  0.1770 -0.0954 -0.4363
 4237TIP3   OH236905   7.081   6.722  14.297 -0.9068  0.4481  0.3774
 4237TIP3    H136906   7.052   6.791  14.357 -1.8170 -0.0813  0.5617
 4237TIP3    H236907   7.027   6.646  14.320 -0.2547 -0.1838 -0.1503
 4238TIP3   OH236908   1.095   0.707  15.260 -0.7211 -0.1944 -0.1066
 4238TIP3    H136909   1.008   0.668  15.262 -1.3569  1.1643  1.3540
 4238TIP3    H236910   1.150   0.645  15.308 -1.1282 -0.5157 -0.0506
 4239TIP3   OH236911   2.981   4.545  15.864 -0.0341  0.2766  0.3673
 4239TIP3    H136912   2.930   4.607  15.916  2.3363  1.8832  0.9419
 4239TIP3    H236913   3.020   4.598  15.794 -0.5889 -1.2422 -1.1509
 4240TIP3   OH236914   4.960   6.609  14.280 -0.3535  0.6913  0.1448
 4240TIP3    H136915   5.052   6.598  14.302 -0.3228  0.6870  0.0106
 4240TIP3    H236916   4.936   6.692  14.322 -0.3902  0.4987  0.5113
 4241TIP3   OH236917   1.904   0.249  14.143  0.1849  0.0008  0.1518
 4241TIP3    H136918   1.984   0.297  14.166 -0.9954  2.4575 -0.5136
 4241TIP3    H236919   1.882   0.281  14.056 -0.6913 -1.8392 -0.3299
 4242TIP3   OH236920   8.181   0.364  15.237 -0.5912  0.2735 -0.4443
 4242TIP3    H136921   8.267   0.333  15.211  0.0837  2.5723 -1.1541
 4242TIP3    H236922   8.195   0.406  15.322 -1.3432 -0.6696  0.1717
 4243TIP3   OH236923   3.040   4.808  15.155 -0.4104  0.1798 -0.1426
 4243TIP3    H136924   3.083   4.873  15.099  0.2539  0.6916  0.9384
 4243TIP3    H236925   3.097   4.732  15.151 -0.4771  0.1389 -0.3297
 4244TIP3   OH236926   2.977   5.450  15.434 -0.1161 -0.3443 -0.3981
 4244TIP3    H136927   2.900   5.500  15.408 -0.7841 -1.2460 -0.2013
 4244TIP3    H236928   2.965   5.435  15.528 -0.3984 -1.6639 -0.6347
 4245TIP3   OH236929   5.069   5.094  14.460 -0.1413 -0.4947 -0.3501
 4245TIP3    H136930   4.996   5.064  14.516 -1.6300  1.9501 -0.8319
 4245TIP3    H236931   5.032   5.095  14.372  0.8990 -0.4264 -0.7931
 4246TIP3   OH236932   7.828   0.896  15.778  0.2993 -0.1703 -0.1633
 4246TIP3    H136933   7.759   0.946  15.822 -1.6341 -3.3017  0.6697
 4246TIP3    H236934   7.908   0.918  15.825  0.0365  3.6203 -1.1797
 4247TIP3   OH236935   4.714   0.343  13.911  0.0830  0.3193 -0.5288
 4247TIP3    H136936   4.802   0.311  13.929  0.3859  1.1474 -0.4838
 4247TIP3    H236937   4.720   0.438  13.925 -1.1399  0.2384  0.7961
 4248TIP3   OH236938   1.074   7.582  14.631 -0.7701 -0.3812 -0.1488
 4248TIP3    H136939   0.990   7.536  14.635 -1.3599  0.4298 -1.8748
 4248TIP3    H236940   1.120   7.541  14.557 -0.2918  0.1936 -0.1772
 4249TIP3   OH236941   0.187   4.017  16.130 -0.1970 -0.3212 -0.0036
 4249TIP3    H136942   0.112   3.958  16.137 -1.3720  1.2081  1.1421
 4249TIP3    H236943   0.150   4.098  16.095  0.6493  0.8881  1.7537
 4250TIP3   OH236944   5.519   5.918  14.289  0.0687  0.4787 -0.9220
 4250TIP3    H136945   5.451   5.860  14.321  0.0883 -0.2361 -2.1373
 4250TIP3    H236946   5.486   6.006  14.307  1.1375  0.2451  3.3280
 4251TIP3   OH236947   2.842   1.758  14.766  0.3377  0.3733 -0.2296
 4251TIP3    H136948   2.840   1.695  14.694  0.6867 -0.7352  0.6941
 4251TIP3    H236949   2.930   1.796  14.763  0.1328  0.8218 -0.7752
 4252TIP3   OH236950   5.745   5.678  13.935 -0.2866  0.3033  0.2193
 4252TIP3    H136951   5.717   5.768  13.920 -0.1757 -0.0790 -3.2170
 4252TIP3    H236952   5.841   5.683  13.942 -0.3375  0.5212  0.7421
 4253TIP3   OH236953   1.962   5.063  14.754 -0.1986  0.1507  0.2170
 4253TIP3    H136954   2.009   5.146  14.765  0.4049 -0.3503  1.6883
 4253TIP3    H236955   2.028   5.001  14.726 -0.3268 -0.1653  0.6010
 4254TIP3   OH236956   1.480   2.155  15.055 -0.5928  0.3069 -0.0644
 4254TIP3    H136957   1.525   2.094  14.997  2.1858  0.1786  2.0125
 4254TIP3    H236958   1.457   2.229  14.999  0.1702 -0.6489 -1.7087
 4255TIP3   OH236959   0.384   4.433  15.071  0.6119  0.6680  0.0932
 4255TIP3    H136960   0.339   4.478  14.999  1.3284  1.3390  0.0478
 4255TIP3    H236961   0.477   4.446  15.052  0.9012 -1.6440 -0.4355
 4256TIP3   OH236962   6.242   7.181  14.945 -0.4671 -0.2778 -0.0763
 4256TIP3    H136963   6.178   7.161  15.013 -1.8537 -1.0950 -1.5442
 4256TIP3    H236964   6.225   7.273  14.923 -0.9273 -0.3961 -0.2275
 4257TIP3   OH236965   7.233   7.775  14.659 -0.5270  0.9176  0.7412
 4257TIP3    H136966   7.226   7.749  14.750  0.5881  0.4375  0.7004
 4257TIP3    H236967   7.270   7.699  14.614  0.6950  1.7873  0.2323
 4258TIP3   OH236968   0.651   4.632  15.506 -0.1463  0.0892 -0.6401
 4258TIP3    H136969   0.736   4.674  15.521 -0.4222  0.2637  0.5599
 4258TIP3    H236970   0.618   4.613  15.594  0.5004 -3.7190 -1.0095
 4259TIP3   OH236971   6.943   7.847  15.881  0.5272 -0.1227 -0.2485
 4259TIP3    H136972   7.003   7.878  15.948 -0.7743 -0.3699  1.0804
 4259TIP3    H236973   6.884   7.922  15.866  0.1364 -0.4391 -0.3119
 4260TIP3   OH236974   7.831   1.349  15.508 -0.1828  0.4154  0.1592
 4260TIP3    H136975   7.893   1.388  15.570  0.7940  0.8347 -1.0300
 4260TIP3    H236976   7.790   1.277  15.556 -0.7229  1.7745  1.8407
 4261TIP3   OH236977   4.805   7.331  14.745  0.4772 -0.7278  0.2697
 4261TIP3    H136978   4.821   7.425  14.737 -0.4333 -0.3738  2.2166
 4261TIP3    H236979   4.882   7.291  14.705  1.0680  0.8320 -0.2531
 4262TIP3   OH236980   4.345   2.233  16.117 -0.1265  0.0174  0.4717
 4262TIP3    H136981   4.284   2.266  16.184  0.0014 -0.0386  0.6168
 4262TIP3    H236982   4.341   2.298  16.047  0.2892  0.4576  0.8460
 4263TIP3   OH236983   0.674   7.826  15.849 -0.1262  0.4020 -0.1153
 4263TIP3    H136984   0.592   7.866  15.877 -0.8543 -0.8149 -0.4745
 4263TIP3    H236985   0.649   7.761  15.783  0.8888 -1.4962  1.2766
 4264TIP3   OH236986   1.360   3.968  14.823 -0.0890 -0.2457 -0.2349
 4264TIP3    H136987   1.399   3.928  14.745 -0.0954  1.2170 -1.0331
 4264TIP3    H236988   1.378   3.906  14.893 -1.2890 -2.2830 -1.6118
 4265TIP3   OH236989   6.451   5.939  14.818 -0.0587 -0.1836  0.2046
 4265TIP3    H136990   6.374   5.908  14.770 -0.1405  1.0529 -0.4950
 4265TIP3    H236991   6.507   5.977  14.751  1.1351 -0.9723  0.7261
 4266TIP3   OH236992   3.118   1.383  13.617 -0.2536 -0.2010  0.1092
 4266TIP3    H136993   3.026   1.375  13.592 -0.3292  0.0601  0.3008
 4266TIP3    H236994   3.155   1.444  13.554  0.1833 -1.5462 -0.9816
 4267TIP3   OH236995   0.183   3.376  15.459  0.4214  0.0115  0.0053
 4267TIP3    H136996   0.140   3.392  15.375  1.2358  0.1141 -0.3964
 4267TIP3    H236997   0.267   3.420  15.452  0.7097 -0.4200  0.6830
 4268TIP3   OH236998   1.178   7.867  15.494 -0.2776  0.4002 -0.2664
 4268TIP3    H136999   1.093   7.910  15.502 -0.6581  0.0186 -1.8241
 4268TIP3    H237000   1.239   7.936  15.468 -0.3877  0.4543 -0.3818
 4269TIP3   OH237001   1.963   2.773  14.885  0.0911  0.1043 -0.3029
 4269TIP3    H137002   1.957   2.707  14.954 -0.5247 -0.0179 -0.4670
 4269TIP3    H237003   2.056   2.777  14.865 -0.0396 -2.4729 -1.9452
 4270TIP3   OH237004   8.146   6.945  14.482 -0.4630 -0.5566 -0.1526
 4270TIP3    H137005   8.207   6.997  14.430 -0.3002 -0.7618 -0.1661
 4270TIP3    H237006   8.080   6.915  14.419 -0.9419  0.2045 -0.0205
 4271TIP3   OH237007   3.765   0.690  14.578  0.3083 -0.3012  0.5905
 4271TIP3    H137008   3.784   0.677  14.485 -0.3769  0.7664  0.2872
 4271TIP3    H237009   3.773   0.785  14.591 -0.6789 -0.3119  1.3760
 4272TIP3   OH237010   6.651   7.506  15.235 -0.3796 -0.2722  0.3093
 4272TIP3    H137011   6.633   7.517  15.328 -2.6955 -1.2800  0.0662
 4272TIP3    H237012   6.728   7.449  15.231  1.3861  1.8959  1.5277
 4273TIP3   OH237013   4.634   0.430  14.910  0.3660  0.2330  0.2488
 4273TIP3    H137014   4.557   0.484  14.930  1.3444  0.7153  3.1871
 4273TIP3    H237015   4.612   0.343  14.942  1.0958  0.4294  1.3242
 4274TIP3   OH237016   3.630   5.643  14.915 -0.1765 -0.1438  0.0758
 4274TIP3    H137017   3.702   5.583  14.937 -1.1529 -1.8189 -1.0546
 4274TIP3    H237018   3.618   5.696  14.994  3.4651  1.5235 -0.2617
 4275TIP3   OH237019   1.999   4.724  15.730 -0.0359  0.3550 -0.2935
 4275TIP3    H137020   2.035   4.806  15.763 -2.8728  2.1593 -1.3494
 4275TIP3    H237021   2.020   4.724  15.637  0.2162 -0.3064 -0.2425
 4276TIP3   OH237022   3.579   0.963  15.721 -0.5248  0.5963 -0.2462
 4276TIP3    H137023   3.599   0.874  15.691 -0.2521  0.3104  0.7476
 4276TIP3    H237024   3.628   1.020  15.662 -0.3712  0.0721 -0.6338
 4277TIP3   OH237025   8.082   8.090  15.296  0.5793 -0.2685  0.7184
 4277TIP3    H137026   8.027   8.020  15.330  0.6394 -1.0095 -0.6552
 4277TIP3    H237027   8.156   8.046  15.255  0.2833  0.5322 -0.7654
 4278TIP3   OH237028   0.071   1.883  15.985  0.2813  0.1473 -0.4642
 4278TIP3    H137029   0.107   1.909  15.900 -0.0305 -0.3336 -0.7506
 4278TIP3    H237030   0.039   1.965  16.023 -0.4790  0.2450 -1.2552
 4279TIP3   OH237031   4.067   7.656  14.315 -0.0593 -0.0669 -0.2279
 4279TIP3    H137032   4.064   7.670  14.409  0.9407 -0.1510 -0.1745
 4279TIP3    H237033   3.998   7.713  14.280 -2.3382 -2.0097  0.7511
 4280TIP3   OH237034   6.182   5.064  15.342  0.0358 -0.4531  0.4315
 4280TIP3    H137035   6.138   4.980  15.333 -0.7246  0.0091 -0.2538
 4280TIP3    H237036   6.274   5.042  15.356 -0.3260 -1.4207  1.3753
 4281TIP3   OH237037   4.008   6.349  14.011  0.5929 -0.2572 -0.8620
 4281TIP3    H137038   4.044   6.413  13.949 -0.8570  0.3677 -1.1115
 4281TIP3    H237039   3.914   6.370  14.014  0.4728 -0.9104  0.8003
 4282TIP3   OH237040   7.141   4.659  15.241 -0.1870 -0.2363  0.1922
 4282TIP3    H137041   7.142   4.628  15.151  0.9539 -0.5436  0.3012
 4282TIP3    H237042   7.110   4.585  15.292 -0.9767 -0.0149  0.0464
 4283TIP3   OH237043   6.297   2.999  15.212  0.2626  0.5859 -0.4521
 4283TIP3    H137044   6.204   3.002  15.189 -0.0278 -0.6283  0.4258
 4283TIP3    H237045   6.298   3.005  15.307  1.0167 -0.1289 -0.3994
 4284TIP3   OH237046   7.360   3.795  16.104 -0.0507 -0.3420 -0.1353
 4284TIP3    H137047   7.298   3.853  16.148 -0.7794  0.0829 -1.6566
 4284TIP3    H237048   7.398   3.743  16.174 -0.0401  1.3468  1.1804
 4285TIP3   OH237049   4.456   0.798  14.145  0.2833 -0.0031 -0.3253
 4285TIP3    H137050   4.537   0.814  14.193  0.6985 -0.0578 -0.9983
 4285TIP3    H237051   4.443   0.876  14.092  0.1681 -0.2142 -0.6096
 4286TIP3   OH237052   0.077   7.169  15.748 -0.2281 -0.1222  0.8111
 4286TIP3    H137053   0.009   7.221  15.791 -0.5753  0.4697 -0.3965
 4286TIP3    H237054   0.069   7.081  15.786 -0.2444  0.4761  2.2136
 4287TIP3   OH237055   3.554   5.754  15.169  0.3062  1.0367 -0.5611
 4287TIP3    H137056   3.520   5.666  15.187  3.5588  0.0422  1.5626
 4287TIP3    H237057   3.494   5.812  15.216  0.7748 -0.5356  2.2501
 4288TIP3   OH237058   3.352   1.860  16.165 -0.0297 -0.0634  0.0607
 4288TIP3    H137059   3.426   1.905  16.205 -0.6938  0.4791  0.7135
 4288TIP3    H237060   3.361   1.875  16.071  1.8714 -1.8271 -0.1067
 4289TIP3   OH237061   2.401   1.127  14.391  0.4176 -0.2286  0.2096
 4289TIP3    H137062   2.350   1.144  14.312  1.6579 -1.6266 -0.9471
 4289TIP3    H237063   2.365   1.046  14.427  1.4958 -1.0077 -0.3944
 4290TIP3   OH237064   7.750   1.095  15.602  0.6663 -0.1875 -0.1950
 4290TIP3    H137065   7.768   1.018  15.656 -0.1658  0.9890  1.9098
 4290TIP3    H237066   7.658   1.087  15.578  0.6952 -0.0730 -0.3448
 4291TIP3   OH237067   3.926   1.058  15.251 -0.1530 -0.8148  0.3634
 4291TIP3    H137068   3.871   1.127  15.288  1.0893  0.8864 -0.7910
 4291TIP3    H237069   3.903   1.056  15.158  0.5184 -1.2674  0.1990
 4292TIP3   OH237070   5.502   6.507  13.982 -0.0964  0.2367 -0.2782
 4292TIP3    H137071   5.409   6.490  13.968  0.2826 -0.1337 -2.7207
 4292TIP3    H237072   5.526   6.568  13.912  1.5491  0.1496  0.1646
 4293TIP3   OH237073   3.920   2.751  14.289  1.1178 -0.0591  0.4057
 4293TIP3    H137074   3.881   2.684  14.346  0.5937 -0.8656 -0.8740
 4293TIP3    H237075   3.890   2.728  14.201 -0.1860  2.6341  0.0592
 4294TIP3   OH237076   8.064   6.453  15.104 -0.4068 -0.8032  0.1906
 4294TIP3    H137077   8.080   6.539  15.142  1.2810  0.2199 -2.5314
 4294TIP3    H237078   8.131   6.397  15.143 -2.4218 -1.4281  3.1127
 4295TIP3   OH237079   5.639   6.370  15.074 -0.6227 -0.1992  0.4830
 4295TIP3    H137080   5.617   6.277  15.084  2.5027 -1.2934 -1.3790
 4295TIP3    H237081   5.717   6.382  15.127 -0.9557  1.3904  0.6577
 4296TIP3   OH237082   7.376   4.813  14.439 -0.0264  0.7314 -0.2521
 4296TIP3    H137083   7.368   4.908  14.437 -0.1025  0.8717  2.5068
 4296TIP3    H237084   7.464   4.795  14.409  1.6503  2.1381  3.2368
 4297TIP3   OH237085   5.154   0.807  15.377 -0.2304 -0.2351  0.1410
 4297TIP3    H137086   5.120   0.763  15.455 -2.5266  2.5515  0.9039
 4297TIP3    H237087   5.223   0.864  15.409 -0.7560  0.4569  0.0722
 4298TIP3   OH237088   4.253   1.713  14.997  0.6068  0.1788 -0.3284
 4298TIP3    H137089   4.240   1.719  15.091  1.4564 -0.3653 -0.1619
 4298TIP3    H237090   4.165   1.710  14.960  0.2712 -0.3978  0.4985
 4299TIP3   OH237091   1.531   6.485  15.201  0.2260 -0.4507  0.8314
 4299TIP3    H137092   1.458   6.439  15.158  0.8877  0.2818 -1.1735
 4299TIP3    H237093   1.600   6.487  15.136  1.4474  0.3917  2.0948
 4300TIP3   OH237094   5.261   4.286  15.043  0.0212  0.4227  0.8494
 4300TIP3    H137095   5.331   4.221  15.056 -0.2812  0.6810  4.7828
 4300TIP3    H237096   5.180   4.235  15.042 -0.1009  0.5435  2.3730
 4301TIP3   OH237097   3.733   0.392  15.443 -0.4254 -0.4119 -0.0568
 4301TIP3    H137098   3.793   0.320  15.423  1.6342  0.6240  1.9304
 4301TIP3    H237099   3.787   0.471  15.439 -2.7765  1.2710 -2.9930
 4302TIP3   OH237100   8.116   7.207  15.172 -0.9673 -0.1396 -0.0339
 4302TIP3    H137101   8.114   7.119  15.208  4.0810  0.3678  2.4509
 4302TIP3    H237102   8.125   7.194  15.077 -2.0444 -2.1476  0.0926
 4303TIP3   OH237103   5.723   0.305  15.344  0.4689  0.2898 -0.0876
 4303TIP3    H137104   5.724   0.257  15.261 -1.1561 -0.3622  0.2348
 4303TIP3    H237105   5.682   0.389  15.322 -1.4217 -0.4795  0.3081
 4304TIP3   OH237106   4.212   1.119  14.685 -0.0145  0.4171 -0.1551
 4304TIP3    H137107   4.125   1.159  14.688 -0.1972 -0.0230  0.4072
 4304TIP3    H237108   4.262   1.166  14.752 -0.4245 -0.7344  0.9870
 4305TIP3   OH237109   3.752   8.195  15.671  0.1995  0.4690 -0.6827
 4305TIP3    H137110   3.825   8.135  15.663  1.7937  2.3544 -0.9779
 4305TIP3    H237111   3.758   8.230  15.760 -0.0390  0.9828 -0.8612
 4306TIP3   OH237112   3.149   7.223  13.717 -0.2875  0.1397 -0.4629
 4306TIP3    H137113   3.125   7.290  13.782  0.0229 -1.0679  0.9549
 4306TIP3    H237114   3.161   7.272  13.636 -1.0536  1.6629  0.2943
 4307TIP3   OH237115   2.842   2.422  14.309  0.2596 -0.7874 -0.4705
 4307TIP3    H137116   2.841   2.513  14.339  1.2566 -0.1490 -2.2562
 4307TIP3    H237117   2.771   2.418  14.245  0.7889 -1.0100 -1.0512
 4308TIP3   OH237118   1.291   7.807  14.390  0.0621 -0.0094 -0.3417
 4308TIP3    H137119   1.204   7.775  14.412 -0.1951 -1.2069 -2.7784
 4308TIP3    H237120   1.294   7.895  14.427 -2.7730  0.6602 -1.4329
 4309TIP3   OH237121   8.421   1.808  14.024 -0.0146 -1.0399  0.4819
 4309TIP3    H137122   8.395   1.862  13.950  0.6484  0.0288  0.9888
 4309TIP3    H237123   8.507   1.773  14.000  0.4502 -0.2541  0.9347
 4310TIP3   OH237124   1.399   4.860  15.066  0.1726  0.1930  0.6086
 4310TIP3    H137125   1.427   4.892  14.980 -0.7040 -1.5098 -0.3433
 4310TIP3    H237126   1.455   4.908  15.128 -1.0892  3.6505 -0.6416
 4311TIP3   OH237127   6.880   8.101  15.153 -0.3818  0.2014  0.0869
 4311TIP3    H137128   6.948   8.034  15.145 -1.9359 -1.3377 -1.1591
 4311TIP3    H237129   6.807   8.055  15.195 -0.7958  1.7181  1.1052
 4312TIP3   OH237130   6.768   7.199  14.093 -0.1536 -0.8753  0.1450
 4312TIP3    H137131   6.703   7.260  14.058  0.5812  1.5258  2.5595
 4312TIP3    H237132   6.847   7.216  14.042  0.2262  0.7942  1.2024
 4313TIP3   OH237133   5.187   7.684  15.458  0.0321  0.0402  0.2026
 4313TIP3    H137134   5.124   7.677  15.529 -0.6781 -0.6653 -0.4785
 4313TIP3    H237135   5.134   7.691  15.379  0.8032 -0.1171 -0.3456
 4314TIP3   OH237136   4.221   3.940  14.812  0.1612  0.1600 -0.0993
 4314TIP3    H137137   4.184   4.025  14.787  0.5840  0.6575  0.9167
 4314TIP3    H237138   4.278   3.960  14.886  1.6572 -0.7418 -0.9575
 4315TIP3   OH237139   0.901   3.650  15.502 -0.5129  0.5537  0.1396
 4315TIP3    H137140   0.868   3.738  15.520  3.7029  2.0308  1.9647
 4315TIP3    H237141   0.934   3.618  15.586  0.8393 -1.4420 -1.0496
 4316TIP3   OH237142   2.262   2.224  15.123  0.5224 -0.1017  0.0154
 4316TIP3    H137143   2.311   2.290  15.171 -2.1824  0.7740  1.7994
 4316TIP3    H237144   2.231   2.164  15.190 -1.3920 -0.2169 -0.9137
 4317TIP3   OH237145   7.738   7.348  14.621  0.2903 -0.3824  0.8739
 4317TIP3    H137146   7.722   7.310  14.534 -2.1321 -0.1158  1.1217
 4317TIP3    H237147   7.746   7.272  14.679  0.3968 -0.5504  0.6398
 4318TIP3   OH237148   6.416   6.415  15.456 -0.5554  0.6182 -0.0779
 4318TIP3    H137149   6.473   6.471  15.509 -0.3189 -0.5109  0.9133
 4318TIP3    H237150   6.413   6.333  15.504 -0.2884 -0.4902 -1.8734
 4319TIP3   OH237151   0.897   5.245  15.478 -0.6574  0.5072  0.3202
 4319TIP3    H137152   0.956   5.252  15.553 -2.2376  0.6080  1.6094
 4319TIP3    H237153   0.810   5.256  15.515 -1.4887  0.6996 -1.5710
 4320TIP3   OH237154   6.462   0.967  16.180  0.2046 -0.1998  0.5114
 4320TIP3    H137155   6.429   1.056  16.170  2.5374  0.7824  0.7334
 4320TIP3    H237156   6.542   0.966  16.127 -0.3562 -2.5568 -0.4227
 4321TIP3   OH237157   2.393   5.710  15.698 -0.3908 -0.1418 -0.1981
 4321TIP3    H137158   2.406   5.804  15.709  1.5314 -0.5261  1.3912
 4321TIP3    H237159   2.312   5.702  15.647  0.6321  2.4094 -2.4345
 4322TIP3   OH237160   1.501   0.199  14.543  0.4255  0.0075  0.0761
 4322TIP3    H137161   1.566   0.220  14.476 -1.0825  0.0458 -1.4355
 4322TIP3    H237162   1.491   0.104  14.538  0.5019 -0.0254  0.4588
 4323TIP3   OH237163   1.350   1.417  15.109  0.6188  0.0035 -0.3730
 4323TIP3    H137164   1.420   1.384  15.053  1.5623  0.3543  0.5551
 4323TIP3    H237165   1.269   1.393  15.065  1.2976 -1.8941 -0.6458
 4324TIP3   OH237166   8.058   0.585  14.184 -0.1408  0.5222  0.7661
 4324TIP3    H137167   8.001   0.650  14.143 -0.0153  0.4412  0.4561
 4324TIP3    H237168   8.144   0.602  14.147  0.4186  1.7534  2.5186
 4325TIP3   OH237169   2.872   4.515  14.979  0.1934 -0.0124 -0.0520
 4325TIP3    H137170   2.906   4.538  15.065 -0.4218  1.3346 -0.1390
 4325TIP3    H237171   2.923   4.567  14.918  0.2551 -0.5447 -0.4560
 4326TIP3   OH237172   3.027   7.590  13.998  0.4719  0.1047  0.1532
 4326TIP3    H137173   3.061   7.666  14.046 -0.2692  1.0626 -0.8057
 4326TIP3    H237174   2.975   7.627  13.927 -0.7430 -1.3016  0.2484
 4327TIP3   OH237175   7.085   5.900  14.316  0.4853 -0.6185  0.3408
 4327TIP3    H137176   7.094   5.879  14.409 -0.2560  2.2402  1.1503
 4327TIP3    H237177   6.991   5.891  14.299  0.3336  0.6716  0.4000
 4328TIP3   OH237178   1.121   0.414  14.328 -0.8004 -1.2156  0.1119
 4328TIP3    H137179   1.138   0.330  14.370 -0.8424 -0.9372  0.6941
 4328TIP3    H237180   1.146   0.480  14.393  0.1529 -0.7531 -0.6777
 4329TIP3   OH237181   8.118   5.540  16.119 -0.7656 -0.2978  0.0220
 4329TIP3    H137182   8.103   5.633  16.104  1.2031 -0.0498 -0.6797
 4329TIP3    H237183   8.179   5.514  16.049 -0.5693 -1.8928  0.7503
 4330TIP3   OH237184   8.015   3.938  14.154 -0.3636  0.0593 -0.2733
 4330TIP3    H137185   8.074   3.901  14.089  1.0963 -2.8977  2.4388
 4330TIP3    H237186   7.956   3.866  14.177  0.2510  0.3703  2.7382
 4331TIP3   OH237187   7.728   5.760  13.907  0.2558  0.4669 -0.2152
 4331TIP3    H137188   7.791   5.688  13.910  0.1734  0.4353  2.1710
 4331TIP3    H237189   7.645   5.718  13.885  0.6772  0.2437 -1.4622
 4332TIP3   OH237190   4.943   0.720  15.717  0.1091 -0.4008  0.1030
 4332TIP3    H137191   5.035   0.713  15.740 -0.1807 -0.7476  1.2350
 4332TIP3    H237192   4.918   0.809  15.746  0.8273  0.9758 -3.1202
 4333TIP3   OH237193   5.996   5.625  14.534  0.2286 -0.6904 -0.0631
 4333TIP3    H137194   6.040   5.710  14.526 -1.4373  0.0755 -1.8452
 4333TIP3    H237195   6.050   5.566  14.480 -1.2467  0.4420 -2.9656
 4334TIP3   OH237196   3.701   0.400  14.326  0.3117 -0.1980 -0.1001
 4334TIP3    H137197   3.712   0.493  14.307 -1.0326 -0.3938 -2.1448
 4334TIP3    H237198   3.790   0.366  14.331  0.8059  0.9862 -0.3876
 4335TIP3   OH237199   6.344   3.424  15.279 -0.0830 -0.6382 -0.0468
 4335TIP3    H137200   6.362   3.518  15.288 -2.4112 -0.0941 -0.2468
 4335TIP3    H237201   6.325   3.412  15.186  0.5139 -1.3985 -0.0799
 4336TIP3   OH237202   0.341   0.115  15.449 -0.3295  0.0461 -0.5584
 4336TIP3    H137203   0.334   0.206  15.419 -0.3123  0.6027  1.0183
 4336TIP3    H237204   0.433   0.105  15.472 -0.2378 -0.5270 -1.1520
 4337TIP3   OH237205   1.958   2.223  15.700 -0.3020 -0.2822  0.1192
 4337TIP3    H137206   1.892   2.274  15.654  0.0471  0.5697  0.5385
 4337TIP3    H237207   1.995   2.284  15.765  1.7062 -0.3364 -0.8759
 4338TIP3   OH237208   6.532   4.642  14.026  0.1225 -0.1372 -0.2902
 4338TIP3    H137209   6.468   4.685  13.969 -2.9134  1.1963  3.6525
 4338TIP3    H237210   6.501   4.552  14.033 -1.2720  0.4074  1.2980
 4339TIP3   OH237211   7.591   2.500  15.484  0.4966 -0.0565 -0.2138
 4339TIP3    H137212   7.683   2.527  15.479  0.5867 -0.5832 -1.9407
 4339TIP3    H237213   7.543   2.569  15.439 -0.2213  1.1204  2.1907
 4340TIP3   OH237214   8.276   7.966  14.026 -0.6532 -0.0268  0.3800
 4340TIP3    H137215   8.275   7.956  13.931 -2.7676  1.7509  0.1339
 4340TIP3    H237216   8.365   7.942  14.052 -0.1111 -0.8251 -1.9943
 4341TIP3   OH237217   0.701   3.334  15.611  0.3734 -0.2143  0.6333
 4341TIP3    H137218   0.723   3.362  15.699 -0.9787  0.3587  0.8197
 4341TIP3    H237219   0.661   3.247  15.622 -1.5177  0.6296  0.8471
 4342TIP3   OH237220   5.617   2.626  14.941  0.3918  0.8980  0.5868
 4342TIP3    H137221   5.570   2.604  15.021 -1.8313 -1.0483 -1.0924
 4342TIP3    H237222   5.616   2.722  14.938 -2.2986  0.9840  1.3712
 4343TIP3   OH237223   7.276   3.386  14.924  0.1443 -0.3423  0.4767
 4343TIP3    H137224   7.252   3.335  15.002  0.0713 -1.0307  0.0153
 4343TIP3    H237225   7.296   3.319  14.858  0.2601  0.2376 -0.0768
 4344TIP3   OH237226   1.844   2.276  13.616 -0.0721  0.9319 -0.2417
 4344TIP3    H137227   1.793   2.219  13.559  0.5432 -0.1342  0.2463
 4344TIP3    H237228   1.797   2.274  13.700  0.9029 -0.3128  0.3064
 4345TIP3   OH237229   5.637   7.240  15.910  0.0297  0.5257 -0.3449
 4345TIP3    H137230   5.631   7.160  15.963 -0.9734 -0.8406 -2.3993
 4345TIP3    H237231   5.596   7.307  15.965 -0.5918 -0.7165  0.7851
 4346TIP3   OH237232   0.455   5.317  15.840 -0.2421 -0.2264  0.0554
 4346TIP3    H137233   0.432   5.271  15.921 -1.8486  0.0283 -0.2229
 4346TIP3    H237234   0.550   5.327  15.844 -0.2180 -0.8392  1.5766
 4347TIP3   OH237235   7.169   4.160  14.637 -0.3886 -0.0965 -0.0233
 4347TIP3    H137236   7.110   4.226  14.673 -0.0781 -0.6876  1.6421
 4347TIP3    H237237   7.196   4.196  14.552  0.0901  2.1295  0.9874
 4348TIP3   OH237238   0.260   3.258  15.092 -1.0270 -0.5144  0.1290
 4348TIP3    H137239   0.205   3.307  15.152  0.3757  0.2669  0.8229
 4348TIP3    H237240   0.278   3.319  15.021 -0.3362 -0.4440  0.3560
 4349TIP3   OH237241   7.794   2.000  15.816  0.4712 -0.1341 -0.0967
 4349TIP3    H137242   7.875   2.030  15.856  1.0662 -1.3502 -0.3431
 4349TIP3    H237243   7.814   1.912  15.784 -1.8794 -2.0108  2.9450
 4350TIP3   OH237244   7.367   4.833  15.069 -0.1636  0.3271  0.1135
 4350TIP3    H137245   7.304   4.901  15.042 -0.2197  0.2282 -0.0044
 4350TIP3    H237246   7.315   4.753  15.072  0.5811 -0.4261 -3.1339
 4351TIP3   OH237247   2.853   0.675  15.734  0.0110 -0.2594 -0.2483
 4351TIP3    H137248   2.880   0.587  15.707  0.2517  0.1667 -1.4677
 4351TIP3    H237249   2.908   0.734  15.682 -1.5383  0.6192 -0.9606
 4352TIP3   OH237250   5.742   1.534  16.177 -0.2436  0.4098 -0.4503
 4352TIP3    H137251   5.760   1.617  16.134 -0.2536  0.4857 -0.3055
 4352TIP3    H237252   5.647   1.533  16.189 -0.0885  1.0670  0.9578
 4353TIP3   OH237253   6.530   3.607  14.824  0.3314  0.3132 -0.3859
 4353TIP3    H137254   6.453   3.557  14.796 -0.1993 -0.4383  2.2241
 4353TIP3    H237255   6.599   3.582  14.762 -0.7347 -1.3056 -0.9821
 4354TIP3   OH237256   1.803   0.339  13.890  0.2212  0.2653  0.1691
 4354TIP3    H137257   1.854   0.296  13.822 -1.5002 -0.0236 -0.9931
 4354TIP3    H237258   1.794   0.429  13.861  0.1600  0.3408  0.4181
 4355TIP3   OH237259   2.155   6.232  14.412  0.5621  0.3269  0.0783
 4355TIP3    H137260   2.151   6.312  14.360  1.2294 -0.3373 -1.0614
 4355TIP3    H237261   2.065   6.214  14.437  0.2660  0.8233 -0.6154
 4356TIP3   OH237262   5.600   7.336  14.907 -0.0081 -0.0754  0.0904
 4356TIP3    H137263   5.646   7.382  14.837 -2.9818  1.1938 -1.2008
 4356TIP3    H237264   5.593   7.400  14.977 -1.8981  0.6751 -0.7130
 4357TIP3   OH237265   3.866   7.365  14.866  0.1990  0.0668 -0.0452
 4357TIP3    H137266   3.846   7.312  14.943  2.1094 -0.4407  0.1653
 4357TIP3    H237267   3.926   7.432  14.899  0.0757  0.5907 -0.8659
 4358TIP3   OH237268   5.036   7.175  14.649 -0.5222  0.0075  0.4544
 4358TIP3    H137269   5.050   7.139  14.561  0.2649 -1.8811  1.3193
 4358TIP3    H237270   5.124   7.196  14.680 -0.7022 -0.2960  1.1792
 4359TIP3   OH237271   6.982   5.483  15.331 -0.2463 -0.5399 -0.6138
 4359TIP3    H137272   6.944   5.563  15.294 -1.3025 -1.0342 -0.6219
 4359TIP3    H237273   7.068   5.510  15.362 -1.1343  0.9691  0.7007
 4360TIP3   OH237274   7.618   3.415  16.318 -0.1299  0.1788 -0.6395
 4360TIP3    H137275   7.675   3.469  16.264  0.9036 -0.6681 -0.4212
 4360TIP3    H237276   7.530   3.435  16.287  0.1353  2.6060 -0.0211
 4361TIP3   OH237277   7.458   2.614  14.579  0.3094  0.1841  0.8112
 4361TIP3    H137278   7.445   2.601  14.485 -1.7692  1.3128  0.8824
 4361TIP3    H237279   7.525   2.550  14.603  1.0362  0.0045 -1.4504
 4362TIP3   OH237280   7.215   6.913  14.567 -0.3175 -0.1538 -0.5581
 4362TIP3    H137281   7.293   6.937  14.618 -0.5044 -3.0027  1.3009
 4362TIP3    H237282   7.223   6.963  14.486  1.8936  1.8807  0.7762
 4363TIP3   OH237283   0.593   6.398  15.137 -0.6601 -0.2068  0.6489
 4363TIP3    H137284   0.580   6.477  15.084  0.6637 -0.4475 -0.0731
 4363TIP3    H237285   0.678   6.411  15.178 -0.8029 -0.9048  1.1812
 4364TIP3   OH237286   1.960   4.160  15.771 -0.0815  0.9413 -0.2499
 4364TIP3    H137287   1.973   4.104  15.847 -0.8329  1.3787  0.2040
 4364TIP3    H237288   1.932   4.244  15.807 -1.0450  0.9715 -1.0285
 4365TIP3   OH237289   8.242   0.178  15.708 -0.0831 -0.3082  0.1051
 4365TIP3    H137290   8.160   0.130  15.696 -0.2874 -0.0656  0.5159
 4365TIP3    H237291   8.239   0.209  15.798  1.1223 -1.5227  0.6102
 4366TIP3   OH237292   0.467   1.046  16.149 -0.7367  0.1153 -0.0631
 4366TIP3    H137293   0.384   0.999  16.137 -0.3444 -0.8121  0.7169
 4366TIP3    H237294   0.456   1.094  16.230 -0.2030 -0.7564  0.5526
 4367TIP3   OH237295   8.316   4.582  16.102 -0.2277  0.0791  0.3839
 4367TIP3    H137296   8.257   4.527  16.050 -0.0121  0.3873 -0.1875
 4367TIP3    H237297   8.404   4.552  16.079  0.0017  1.8749 -1.3698
 4368TIP3   OH237298   0.105   2.010  15.738 -0.1021 -0.2374 -0.3044
 4368TIP3    H137299   0.168   2.076  15.711  1.9573 -1.6308  0.8090
 4368TIP3    H237300   0.023   2.058  15.751  0.7836  1.6957 -1.4435
 4369TIP3   OH237301   8.330   3.030  16.086 -0.5361 -0.1818 -0.0172
 4369TIP3    H137302   8.296   3.009  16.173 -1.1949 -0.6049 -0.3633
 4369TIP3    H237303   8.361   3.120  16.093 -1.5419  0.1476  0.3866
 4370TIP3   OH237304   1.976   4.417  14.439  0.3747 -0.5635 -0.1301
 4370TIP3    H137305   1.945   4.371  14.517  1.3049 -0.2393  0.4513
 4370TIP3    H237306   2.041   4.479  14.472  1.5719 -1.1455 -1.2565
 4371TIP3   OH237307   3.800   7.954  13.781 -0.5039  0.1125 -0.4586
 4371TIP3    H137308   3.737   8.025  13.775 -2.4602 -1.4134  0.6398
 4371TIP3    H237309   3.864   7.982  13.846  1.2045  2.4759 -2.9161
 4372TIP3   OH237310   6.193   2.306  15.768 -0.2312  0.6063 -0.0985
 4372TIP3    H137311   6.262   2.372  15.763 -1.0346  1.5074  0.4576
 4372TIP3    H237312   6.190   2.280  15.860  0.4152 -0.5857 -0.3983
 4373TIP3   OH237313   2.766   0.555  15.060  0.1580 -0.3466 -0.0690
 4373TIP3    H137314   2.691   0.614  15.055 -1.1310 -1.5906  2.3148
 4373TIP3    H237315   2.795   0.545  14.970 -2.0112  0.8677 -0.9917
 4374TIP3   OH237316   7.020   1.586  15.978  0.5865 -0.0305  0.0051
 4374TIP3    H137317   7.107   1.548  15.971 -0.2701 -2.0802 -0.1944
 4374TIP3    H237318   7.010   1.637  15.897  1.3286 -0.3774 -0.3140
 4375TIP3   OH237319   2.609   6.868  14.677 -0.2250 -0.1328  0.2313
 4375TIP3    H137320   2.529   6.822  14.653  0.5289 -1.3596 -0.0360
 4375TIP3    H237321   2.608   6.870  14.773 -1.5823  1.7655  0.2316
 4376TIP3   OH237322   7.854   6.907  14.335  0.5901 -0.2470 -0.4069
 4376TIP3    H137323   7.792   6.869  14.273  0.3645  0.2018 -0.4599
 4376TIP3    H237324   7.895   6.832  14.377  0.3256 -0.5495 -0.6856
 4377TIP3   OH237325   7.071   4.950  14.345  0.2459  0.1793  0.1574
 4377TIP3    H137326   7.029   4.954  14.431  0.7701 -1.1048  0.4952
 4377TIP3    H237327   7.011   4.898  14.291 -0.7553  2.0855 -0.7058
 4378TIP3   OH237328   4.822   6.350  15.305  0.1791  0.1897 -0.3441
 4378TIP3    H137329   4.886   6.421  15.305 -1.2850  1.6638  2.4917
 4378TIP3    H237330   4.866   6.278  15.349  0.9934 -0.0396 -1.4756
 4379TIP3   OH237331   4.975   0.702  14.741 -0.3218 -0.0713  0.2833
 4379TIP3    H137332   5.045   0.766  14.734  1.3435 -1.9766 -2.2644
 4379TIP3    H237333   5.001   0.645  14.813 -1.2175  1.3467  1.7839
 4380TIP3   OH237334   0.443   1.546  14.173 -0.3092  0.2564  0.2799
 4380TIP3    H137335   0.453   1.638  14.196  0.2500 -0.0502  1.3082
 4380TIP3    H237336   0.485   1.538  14.088 -1.6846  1.2479 -0.5297
 4381TIP3   OH237337   3.083   3.699  15.235 -0.6342  0.3870 -0.6975
 4381TIP3    H137338   3.042   3.753  15.167 -1.6697  1.4823  0.7380
 4381TIP3    H237339   3.020   3.628  15.249 -2.2685  2.1426  1.6025
 4382TIP3   OH237340   5.296   6.776  14.873  0.0779 -0.4097 -0.0601
 4382TIP3    H137341   5.391   6.766  14.869  0.3516  2.0345 -2.0510
 4382TIP3    H237342   5.283   6.853  14.928 -0.6478  0.1299 -0.9671
 4383TIP3   OH237343   6.156   5.427  15.820 -0.1249 -0.1663  0.1916
 4383TIP3    H137344   6.071   5.408  15.859 -0.2593  0.6583  0.3215
 4383TIP3    H237345   6.142   5.416  15.726 -0.0775 -1.1172  0.2899
 4384TIP3   OH237346   6.685   4.975  13.506 -0.1340  0.2265 -0.2354
 4384TIP3    H137347   6.607   5.012  13.548 -0.5746 -0.5225 -0.3715
 4384TIP3    H237348   6.686   5.014  13.418  0.4848  1.3774  0.2682
 4385TIP3   OH237349   1.710   2.158  15.260  0.4842  0.0960 -0.3096
 4385TIP3    H137350   1.773   2.139  15.329  1.3018  1.2508 -0.6982
 4385TIP3    H237351   1.682   2.073  15.228 -0.4758 -0.4896  1.9243
 4386TIP3   OH237352   1.821   2.713  15.779  0.4200  0.3075  0.0589
 4386TIP3    H137353   1.748   2.725  15.840 -0.4355  0.3269 -0.9465
 4386TIP3    H237354   1.781   2.717  15.692  1.9770  3.3116 -0.6710
 4387TIP3   OH237355   7.419   0.330  14.317 -0.2179  0.1026 -0.7539
 4387TIP3    H137356   7.326   0.352  14.312 -0.6777 -0.3974  2.9486
 4387TIP3    H237357   7.421   0.234  14.312 -0.1045  0.0181  0.5273
 4388TIP3   OH237358   5.485   5.388  15.581  0.6129 -0.1030 -0.1479
 4388TIP3    H137359   5.558   5.423  15.631  0.2825  0.2507  0.0866
 4388TIP3    H237360   5.418   5.368  15.646 -0.1054  1.0532 -0.5088
 4389TIP3   OH237361   7.399   1.129  15.559  0.1146 -0.2541  0.3439
 4389TIP3    H137362   7.395   1.062  15.491  1.9905 -0.5692  0.4859
 4389TIP3    H237363   7.358   1.089  15.636  3.1378 -2.2089  1.1259
 4390TIP3   OH237364   2.406   0.738  13.711 -0.1502 -0.5039 -0.1663
 4390TIP3    H137365   2.500   0.758  13.705  0.0492 -1.6610 -1.2340
 4390TIP3    H237366   2.369   0.773  13.630 -0.5470 -0.5973 -0.0285
 4391TIP3   OH237367   1.018   4.424  15.286 -0.2978  0.0906  0.0448
 4391TIP3    H137368   1.066   4.505  15.271 -0.1691 -0.1393 -0.8059
 4391TIP3    H237369   1.025   4.376  15.204 -2.5447  0.3357 -0.3640
 4392TIP3   OH237370   1.938   2.862  15.361 -0.6271 -0.0009 -0.1947
 4392TIP3    H137371   1.972   2.910  15.436  1.4982 -0.6648 -0.6669
 4392TIP3    H237372   1.972   2.908  15.285  0.8879 -1.7442 -0.6575
 4393TIP3   OH237373   3.863   4.299  14.889 -0.0892  0.2213  0.1418
 4393TIP3    H137374   3.867   4.391  14.917 -0.5989  0.1991  0.2957
 4393TIP3    H237375   3.862   4.303  14.793  0.2105  0.3592  0.1418
 4394TIP3   OH237376   2.453   3.507  15.839 -0.7407  0.0750 -0.5727
 4394TIP3    H137377   2.384   3.471  15.895 -1.6693  0.6798 -1.3063
 4394TIP3    H237378   2.441   3.601  15.843 -1.6883  0.1077 -2.8012
 4395TIP3   OH237379   6.050   1.019  14.956  0.1356 -0.3789 -0.0594
 4395TIP3    H137380   5.955   1.034  14.955 -0.0945 -1.4086  1.4696
 4395TIP3    H237381   6.059   0.924  14.960  1.1978 -0.2652  0.7832
 4396TIP3   OH237382   7.058   7.983  16.102  0.8158  0.1854 -0.3175
 4396TIP3    H137383   7.052   8.078  16.089 -0.4917  0.0264 -1.1333
 4396TIP3    H237384   7.054   7.971  16.197 -0.1289  0.9007 -0.2543
 4397TIP3   OH237385   6.642   3.120  15.133  0.0229  0.4431 -0.0634
 4397TIP3    H137386   6.637   3.196  15.076 -0.4213  1.2601  1.0337
 4397TIP3    H237387   6.597   3.147  15.213 -0.1207 -0.9606  0.3585
 4398TIP3   OH237388   5.110   3.560  14.817 -0.2915  0.4095  0.4999
 4398TIP3    H137389   5.114   3.588  14.726  0.4654  0.0030  0.4021
 4398TIP3    H237390   5.039   3.612  14.855 -2.6110 -1.4567 -1.0151
 4399TIP3   OH237391   3.208   2.134  14.419 -0.2698 -0.0824 -0.1124
 4399TIP3    H137392   3.277   2.148  14.483 -1.8494  0.1115  1.6508
 4399TIP3    H237393   3.162   2.218  14.414 -2.6718 -1.1308  1.7242
 4400TIP3   OH237394   7.714   3.075  15.436  0.5829  0.1370 -0.0559
 4400TIP3    H137395   7.677   3.104  15.353  1.3189  0.8139 -0.1532
 4400TIP3    H237396   7.763   3.150  15.468 -0.0884  0.0429  1.2354
 4401TIP3   OH237397   1.281   7.697  14.846 -0.2866  0.2763  0.0311
 4401TIP3    H137398   1.208   7.636  14.841 -0.0086 -0.0381 -0.2866
 4401TIP3    H237399   1.242   7.780  14.874 -0.9186  0.4038 -1.1897
 4402TIP3   OH237400   3.185   8.390  14.558 -0.5294 -0.4403 -0.8605
 4402TIP3    H137401   3.097   8.417  14.584 -0.5163  1.1031 -2.2452
 4402TIP3    H237402   3.173   8.306  14.515 -1.4145 -0.0034 -1.4883
 4403TIP3   OH237403   4.803   4.816  15.815  0.2827  0.4219 -0.4251
 4403TIP3    H137404   4.759   4.733  15.798  1.9638 -0.4910 -0.4473
 4403TIP3    H237405   4.751   4.881  15.767 -1.5303 -0.4649  0.2626
 4404TIP3   OH237406   3.917   2.821  13.580 -0.5721 -0.2269 -0.2169
 4404TIP3    H137407   3.950   2.733  13.563  0.2450 -0.1749  0.9493
 4404TIP3    H237408   3.891   2.820  13.672 -0.7189  0.7046 -0.2326
 4405TIP3   OH237409   1.965   4.806  14.892  0.2705 -0.1168 -0.0246
 4405TIP3    H137410   2.056   4.818  14.866  0.3358 -2.4967 -1.2173
 4405TIP3    H237411   1.970   4.766  14.979  0.4739 -1.5809 -0.6766
 4406TIP3   OH237412   1.311   7.246  14.775 -0.0031  0.2623  0.8451
 4406TIP3    H137413   1.384   7.264  14.834  0.6863 -2.1520  0.8283
 4406TIP3    H237414   1.322   7.155  14.750 -1.4739  0.6105 -1.3847
 4407TIP3   OH237415   1.217   7.286  15.304 -0.1949 -0.3244 -0.3548
 4407TIP3    H137416   1.132   7.321  15.328 -0.2484 -1.0364  0.5267
 4407TIP3    H237417   1.276   7.317  15.372  0.0707 -0.6236 -0.4469
 4408TIP3   OH237418   7.128   5.644  14.172  0.1825 -0.2364  0.8358
 4408TIP3    H137419   7.048   5.690  14.200  1.2751  0.1470  3.6920
 4408TIP3    H237420   7.191   5.714  14.158  0.8374 -0.6555  1.6131
 4409TIP3   OH237421   7.351   3.653  14.515 -0.5565  0.2204 -0.0677
 4409TIP3    H137422   7.333   3.746  14.524  0.2850  0.2566  1.5038
 4409TIP3    H237423   7.284   3.610  14.568  1.1636  0.1513  2.1786
 4410TIP3   OH237424   2.197   8.256  15.330  0.0009  0.0677  0.0851
 4410TIP3    H137425   2.224   8.224  15.416 -0.9152  0.4970  0.5486
 4410TIP3    H237426   2.198   8.352  15.340  0.4334  0.1350 -0.5597
 4411TIP3   OH237427   3.703   7.738  15.717  0.2485 -0.1527  0.0408
 4411TIP3    H137428   3.777   7.798  15.706  1.4476 -1.8035 -1.3868
 4411TIP3    H237429   3.629   7.795  15.736  1.8453  1.5672  1.4412
 4412TIP3   OH237430   7.035   7.484  14.550 -0.3109 -0.7675  0.4050
 4412TIP3    H137431   7.020   7.428  14.474  0.0671 -0.1363 -0.1450
 4412TIP3    H237432   6.977   7.449  14.617 -0.3527 -1.5865 -0.0454
 4413TIP3   OH237433   5.796   4.119  14.932 -0.2616  0.0770 -0.2884
 4413TIP3    H137434   5.761   4.037  14.896 -0.8186 -1.3563  3.0548
 4413TIP3    H237435   5.718   4.168  14.958  0.0770  1.7201 -2.1930
 4414TIP3   OH237436   3.238   0.010  14.189  0.2703 -0.4699 -0.5499
 4414TIP3    H137437   3.313   0.070  14.185 -1.1634  1.5170  0.3648
 4414TIP3    H237438   3.260  -0.050  14.261  0.0725  1.5284  1.2804
 4415TIP3   OH237439   7.142   5.707  15.411  0.1022 -0.3191  0.4391
 4415TIP3    H137440   7.145   5.677  15.502 -0.7804  1.5669  1.1330
 4415TIP3    H237441   7.066   5.765  15.407  1.0743  0.9296 -1.0816
 4416TIP3   OH237442   8.447   5.264  14.232  0.0943  0.3479 -0.5946
 4416TIP3    H137443   8.473   5.293  14.319 -0.5117  0.9100 -0.5980
 4416TIP3    H237444   8.426   5.171  14.243  0.2879  0.3508 -0.2043
 4417TIP3   OH237445   4.701   0.344  16.202  0.3328 -0.0978 -0.5243
 4417TIP3    H137446   4.667   0.431  16.221  0.5298 -0.6670  3.2484
 4417TIP3    H237447   4.795   0.350  16.220  0.4732 -0.9261 -0.9182
 4418TIP3   OH237448   0.969   3.991  15.863 -0.0594  0.0227  0.2231
 4418TIP3    H137449   0.889   3.983  15.914 -1.1053 -3.4053 -1.6524
 4418TIP3    H237450   1.031   3.932  15.904  0.9854  1.3482  0.6348
 4419TIP3   OH237451   0.601   5.200  14.055  0.3860  0.1061 -0.4297
 4419TIP3    H137452   0.582   5.264  14.123  0.4946 -1.6662  1.3369
 4419TIP3    H237453   0.693   5.176  14.068 -0.0760 -1.5801  0.0188
 4420TIP3   OH237454   4.313   6.482  15.995  0.4257 -0.5389 -0.1956
 4420TIP3    H137455   4.408   6.480  16.006  0.5754  3.5331  0.7467
 4420TIP3    H237456   4.277   6.459  16.080  0.6037 -0.5892 -0.1368
 4421TIP3   OH237457   7.132   7.627  15.444  0.5474 -0.6456  0.3293
 4421TIP3    H137458   7.154   7.702  15.390  0.8278  0.1592  1.5138
 4421TIP3    H237459   7.056   7.656  15.495  0.0095 -1.5401  0.0544
 4422TIP3   OH237460   5.291   5.823  15.772 -0.1083  0.0536 -0.0717
 4422TIP3    H137461   5.256   5.896  15.822 -0.5184 -0.5136  0.4912
 4422TIP3    H237462   5.369   5.796  15.821  1.6817  1.8388 -1.7608
 4423TIP3   OH237463   4.235   0.526  15.316  0.2781 -0.0030 -0.2656
 4423TIP3    H137464   4.243   0.608  15.366 -1.0229  0.0967 -0.1913
 4423TIP3    H237465   4.141   0.511  15.310  0.4448 -0.5186 -1.8965
 4424TIP3   OH237466   2.185   2.311  14.174 -0.0168 -0.0996 -0.2163
 4424TIP3    H137467   2.109   2.336  14.226  0.2195  0.2624 -0.0395
 4424TIP3    H237468   2.236   2.254  14.232  1.7776  2.6230  1.1453
 4425TIP3   OH237469   6.913   4.192  14.316  0.4263 -0.1600  0.1345
 4425TIP3    H137470   6.911   4.097  14.302 -1.6174 -0.1192 -0.1638
 4425TIP3    H237471   6.990   4.207  14.372 -0.0626 -2.1620  1.4413
 4426TIP3   OH237472   5.517   5.021  14.139 -0.6211  0.6342 -0.1932
 4426TIP3    H137473   5.473   5.097  14.102 -1.2635  0.0949 -0.5462
 4426TIP3    H237474   5.539   5.048  14.228  0.3595  1.7093 -0.7331
 4427TIP3   OH237475   2.234   1.412  14.769  0.1978  0.2383  0.0171
 4427TIP3    H137476   2.249   1.365  14.687 -1.0700  1.7233 -1.1345
 4427TIP3    H237477   2.280   1.360  14.835  0.9505 -1.2099 -1.5568
 4428TIP3   OH237478   2.983   6.607  14.435 -0.0713 -0.1610 -0.3750
 4428TIP3    H137479   2.986   6.664  14.512  0.8952  0.7968 -1.0941
 4428TIP3    H237480   2.933   6.656  14.370  0.8212 -0.0789 -1.0220
 4429TIP3   OH237481   7.300   3.059  14.249 -0.4655  0.2827  0.2106
 4429TIP3    H137482   7.372   3.020  14.199  1.4221  0.2001  2.8021
 4429TIP3    H237483   7.221   3.029  14.205  1.0416 -1.3711 -1.5189
 4430TIP3   OH237484   3.213   6.545  14.786 -0.0260  1.0426  0.2739
 4430TIP3    H137485   3.197   6.635  14.814 -0.5538  0.2270  2.8394
 4430TIP3    H237486   3.128   6.514  14.756 -0.3116  0.8124  1.2858
 4431TIP3   OH237487   2.285   8.040  15.093  0.4521  0.2555  0.3672
 4431TIP3    H137488   2.270   8.127  15.129 -3.0464  0.0850 -0.2676
 4431TIP3    H237489   2.276   8.050  14.998 -1.7202 -0.9414  0.3677
 4432TIP3   OH237490   6.590   1.329  14.152 -0.6170 -0.2111  0.2960
 4432TIP3    H137491   6.513   1.338  14.095 -0.7718 -1.0404  0.3567
 4432TIP3    H237492   6.575   1.392  14.222 -0.3439  0.9372 -0.6568
 4433TIP3   OH237493   5.801   2.469  15.990 -0.5869 -0.3526  0.3473
 4433TIP3    H137494   5.737   2.402  16.016  1.5286 -1.6424  2.7994
 4433TIP3    H237495   5.873   2.420  15.950 -0.4788  0.8913 -1.0678
 4434TIP3   OH237496   6.347   2.337  14.840  0.2250  0.6790 -0.1365
 4434TIP3    H137497   6.265   2.361  14.884 -0.8013 -0.9775 -1.0270
 4434TIP3    H237498   6.384   2.268  14.895  1.0752  1.4445  0.2804
 4435TIP3   OH237499   2.928   7.941  15.407 -0.2443  0.2556  0.2273
 4435TIP3    H137500   2.963   7.985  15.329 -1.0959  0.3040 -0.1432
 4435TIP3    H237501   2.959   7.851  15.399  1.5597  0.7762  1.0244
 4436TIP3   OH237502   2.102   4.872  14.105 -0.1108 -0.2898  0.3526
 4436TIP3    H137503   2.036   4.861  14.036  1.5178  1.3412 -1.6194
 4436TIP3    H237504   2.091   4.796  14.162 -1.5577 -1.7298 -1.7040
 4437TIP3   OH237505   7.774   1.266  14.022 -0.0875  0.3424 -0.0195
 4437TIP3    H137506   7.718   1.343  14.006 -1.6492 -0.3171  1.8933
 4437TIP3    H237507   7.830   1.292  14.095  1.3275  0.5669 -1.1402
 4438TIP3   OH237508   8.331   7.370  15.312 -0.6795 -0.1550 -0.0855
 4438TIP3    H137509   8.259   7.312  15.287 -0.4321 -0.6924  0.4203
 4438TIP3    H237510   8.331   7.439  15.246 -0.8718 -0.8289 -0.7914
 4439TIP3   OH237511   1.380   8.198  15.998 -0.7700 -0.3336 -0.5929
 4439TIP3    H137512   1.423   8.282  16.015 -0.9262 -0.7864  2.6506
 4439TIP3    H237513   1.306   8.196  16.060 -0.4630 -3.0313 -0.2041
 4440TIP3   OH237514   5.870   2.308  14.716  0.3172 -0.0185 -0.1197
 4440TIP3    H137515   5.833   2.274  14.797 -0.6762  0.3581 -0.4071
 4440TIP3    H237516   5.949   2.355  14.743 -1.0165  1.7310  0.8712
 4441TIP3   OH237517   7.541   7.821  14.591  0.1491  0.0018  0.0498
 4441TIP3    H137518   7.560   7.730  14.614  1.2983  0.4762  1.0928
 4441TIP3    H237519   7.483   7.851  14.661  0.8779  0.4603  0.4621
 4442TIP3   OH237520   0.405   3.284  14.183 -0.4208 -0.2738  0.2736
 4442TIP3    H137521   0.478   3.257  14.127 -0.1994 -0.1983  0.5221
 4442TIP3    H237522   0.446   3.305  14.267 -0.9643 -2.3932  1.1454
 4443TIP3   OH237523   6.836   6.939  15.347 -0.7739 -0.2971 -0.4144
 4443TIP3    H137524   6.908   6.921  15.286 -0.9900 -0.0255 -0.7513
 4443TIP3    H237525   6.795   7.019  15.314 -0.8354 -0.0925  0.1448
 4444TIP3   OH237526   5.932   2.307  15.695 -0.2480  0.2178  0.1037
 4444TIP3    H137527   6.027   2.291  15.698 -0.1802  0.4366  4.2298
 4444TIP3    H237528   5.894   2.235  15.744 -1.9576  1.5004  0.7408
 4445TIP3   OH237529   7.540   1.324  15.710  0.5501 -0.6070  0.1581
 4445TIP3    H137530   7.535   1.303  15.803  1.4457 -0.8048  0.1702
 4445TIP3    H237531   7.491   1.254  15.667  0.8250 -0.9651  0.4232
 4446TIP3   OH237532   8.015   4.023  14.615  0.0446 -0.0900 -0.2537
 4446TIP3    H137533   7.945   3.980  14.566 -0.7274  0.6053  0.2195
 4446TIP3    H237534   7.983   4.026  14.705  0.3880  0.8453 -0.1513
 4447TIP3   OH237535   3.966   7.734  15.467 -0.3723  0.0644  0.0302
 4447TIP3    H137536   3.959   7.817  15.514 -0.6519  0.1513 -0.1621
 4447TIP3    H237537   3.914   7.672  15.518  0.8075 -0.2998  0.8356
 4448TIP3   OH237538   7.747   7.231  14.122 -0.0714 -0.1433  0.3542
 4448TIP3    H137539   7.745   7.308  14.064 -1.8531  0.7243  1.4950
 4448TIP3    H237540   7.840   7.222  14.145  0.0011  2.9103  1.7378
 4449TIP3   OH237541   6.576   2.050  15.242 -0.0504  0.1756 -0.0720
 4449TIP3    H137542   6.667   2.071  15.260 -0.4286  3.1797 -0.9840
 4449TIP3    H237543   6.526   2.110  15.298 -1.4658 -0.9528 -0.0660
 4450TIP3   OH237544   7.431   8.009  15.514 -0.7795 -0.1825 -0.4071
 4450TIP3    H137545   7.451   7.996  15.607  0.0923 -0.4387 -0.6238
 4450TIP3    H237546   7.336   7.998  15.508 -0.6812 -1.5816  0.2282
 4451TIP3   OH237547   7.081   2.087  15.478  0.2269 -0.1849 -0.0787
 4451TIP3    H137548   7.002   2.122  15.520  0.1104  0.6840 -0.9783
 4451TIP3    H237549   7.111   2.018  15.538 -1.2783 -0.6274  0.2238
 4452TIP3   OH237550   5.207   5.149  14.027  0.2378 -0.2757 -0.5160
 4452TIP3    H137551   5.156   5.172  13.949  0.4235 -1.6132 -1.0511
 4452TIP3    H237552   5.298   5.158  14.000  0.3134  0.8580  0.0589
 4453TIP3   OH237553   4.759   7.782  15.490  0.1756 -0.0654 -0.2541
 4453TIP3    H137554   4.785   7.851  15.551 -0.9619 -1.2496  1.6715
 4453TIP3    H237555   4.841   7.742  15.461  0.7561  0.8575  0.0904
 4454TIP3   OH237556   4.310   7.515  15.016 -0.6509  0.6353 -0.1332
 4454TIP3    H137557   4.307   7.428  15.055 -0.6665  0.0503 -1.3926
 4454TIP3    H237558   4.386   7.557  15.056  0.2253 -0.4842 -0.5854
 4455TIP3   OH237559   5.516   1.639  15.145  0.0540  0.2987  0.2176
 4455TIP3    H137560   5.509   1.629  15.050 -0.0175  0.3780  0.2141
 4455TIP3    H237561   5.529   1.550  15.178 -0.5918  0.1872  0.1887
 4456TIP3   OH237562   6.343   7.947  14.512 -0.1112 -0.5390  0.4246
 4456TIP3    H137563   6.274   7.913  14.568  1.4954 -0.2558  2.6897
 4456TIP3    H237564   6.380   7.869  14.470 -0.6536 -0.8644  0.5438
 4457TIP3   OH237565   2.253   2.590  16.045 -0.8392 -0.1916  0.0840
 4457TIP3    H137566   2.330   2.549  16.084 -0.8163 -0.9046 -0.6798
 4457TIP3    H237567   2.179   2.546  16.087 -0.8413  0.3542  0.6717
 4458TIP3   OH237568   6.317   4.155  15.018  0.1321 -0.0565 -0.5129
 4458TIP3    H137569   6.333   4.150  14.924 -0.7998  0.9696 -0.7539
 4458TIP3    H237570   6.223   4.140  15.027  0.0563  0.7539  0.1513
 4459TIP3   OH237571   1.971   1.363  14.742  0.2011  0.0186 -0.2291
 4459TIP3    H137572   2.053   1.404  14.715  0.8686 -1.2769 -0.2434
 4459TIP3    H237573   1.997   1.296  14.805 -1.0870  1.1407  1.5946
 4460TIP3   OH237574   1.168   3.939  15.063  0.1109  0.7074  0.2325
 4460TIP3    H137575   1.244   3.957  15.119 -0.6067  1.3595  1.0225
 4460TIP3    H237576   1.162   4.016  15.006 -0.3039  0.9423  0.5842
 4461TIP3   OH237577   4.788   3.792  15.755  0.2777  0.3505 -0.5744
 4461TIP3    H137578   4.882   3.786  15.737  0.1570  0.7898 -1.4364
 4461TIP3    H237579   4.750   3.817  15.671 -0.6300  0.0307 -0.2658
 4462TIP3   OH237580   4.523   3.599  14.966  0.0963  0.1937 -0.1052
 4462TIP3    H137581   4.481   3.669  14.917 -1.6033 -0.1775  0.7478
 4462TIP3    H237582   4.510   3.623  15.058  1.3860 -0.1685  0.1947
 4463TIP3   OH237583   4.349   7.976  14.247  0.1279 -0.1811  0.1732
 4463TIP3    H137584   4.270   7.926  14.223 -0.0286  0.4624 -0.7074
 4463TIP3    H237585   4.321   8.067  14.243  0.8921  0.0463 -0.0139
 4464TIP3   OH237586   8.186   4.098  15.344 -0.1373  0.2533  0.0163
 4464TIP3    H137587   8.158   4.027  15.402 -0.2761  0.0981 -0.2348
 4464TIP3    H237588   8.119   4.166  15.356 -0.5952 -0.0888 -0.5312
 4465TIP3   OH237589   7.546   5.267  16.006  0.6402  0.2845 -0.0182
 4465TIP3    H137590   7.620   5.310  16.049  0.2882 -1.7712  2.9727
 4465TIP3    H237591   7.587   5.209  15.941  1.3832  1.4354 -0.6269
 4466TIP3   OH237592   1.095   0.170  14.528 -0.2779  0.3488  0.0991
 4466TIP3    H137593   1.178   0.160  14.574  0.8208  2.2894 -1.2879
 4466TIP3    H237594   1.049   0.238  14.577  0.3714  1.5394 -0.8661
 4467TIP3   OH237595   6.057   6.167  15.771  0.0199 -0.1177 -0.1613
 4467TIP3    H137596   6.087   6.077  15.784  1.4762  0.3882  0.1535
 4467TIP3    H237597   6.109   6.219  15.832  0.4930  1.1632 -1.5826
 4468TIP3   OH237598   7.837   0.175  15.451  0.4716 -0.0395 -0.0881
 4468TIP3    H137599   7.845   0.145  15.361 -3.1290  0.3093 -0.6351
 4468TIP3    H237600   7.808   0.266  15.444 -0.2633 -0.1309  1.4249
 4469TIP3   OH237601   8.135   2.179  14.265  0.5084 -0.0884 -0.0061
 4469TIP3    H137602   8.061   2.229  14.298  0.3539 -0.9281  0.9677
 4469TIP3    H237603   8.132   2.096  14.313  0.7396 -1.0545 -1.6060
 4470TIP3   OH237604   6.581   3.553  15.581  0.3287  0.2922  0.4622
 4470TIP3    H137605   6.667   3.514  15.593  0.3913  0.5507  0.8937
 4470TIP3    H237606   6.592   3.614  15.509 -0.2110 -1.7665 -1.4650
 4471TIP3   OH237607   6.597   0.122  15.999 -0.2697  0.4967  0.2994
 4471TIP3    H137608   6.502   0.129  16.008 -0.4590  0.2090 -1.2630
 4471TIP3    H237609   6.625   0.207  15.965  0.5181  1.8032  3.7578
 4472TIP3   OH237610   0.147   3.767  14.620 -0.3649  0.3969 -0.4497
 4472TIP3    H137611   0.120   3.858  14.610 -0.1224  0.6289  0.7872
 4472TIP3    H237612   0.113   3.742  14.706  0.7180 -0.2556 -0.1987
 4473TIP3   OH237613   7.634   5.301  14.860 -0.2510  0.2851  0.4363
 4473TIP3    H137614   7.643   5.290  14.766  0.3394  0.7355  0.4348
 4473TIP3    H237615   7.648   5.214  14.896 -3.2507 -0.5135 -0.0411
 4474TIP3   OH237616   6.796   0.494  14.648  0.3672 -0.0849  0.3089
 4474TIP3    H137617   6.832   0.574  14.610  0.4297 -0.9759 -1.6871
 4474TIP3    H237618   6.793   0.510  14.742 -0.9735  2.7753 -0.1379
 4475TIP3   OH237619   5.378   6.138  14.414  0.5371 -0.1394  0.0824
 4475TIP3    H137620   5.346   6.227  14.402  0.6831 -0.2366 -1.2246
 4475TIP3    H237621   5.300   6.083  14.413  0.4950 -0.0802  0.2212
 4476TIP3   OH237622   2.124   3.338  13.969 -0.3844  0.1745  0.4426
 4476TIP3    H137623   2.067   3.263  13.987  0.3656 -0.5837 -0.2650
 4476TIP3    H237624   2.076   3.390  13.905  0.1163 -0.9807 -0.9183
 4477TIP3   OH237625   6.077   8.293  15.791  0.6394 -0.3001  0.1629
 4477TIP3    H137626   6.170   8.315  15.789  0.5420  0.3118  1.2791
 4477TIP3    H237627   6.035   8.372  15.825 -0.2839 -0.5941 -0.2671
 4478TIP3   OH237628   4.271   6.887  14.317 -0.0788  0.5437 -0.6591
 4478TIP3    H137629   4.182   6.917  14.339  0.1296  0.2561  0.6156
 4478TIP3    H237630   4.279   6.803  14.361  0.8418  0.5869 -0.7435
 4479TIP3   OH237631   1.248   5.501  14.510  0.4256  0.1596  0.2507
 4479TIP3    H137632   1.224   5.497  14.602  1.1814  0.0953  0.4525
 4479TIP3    H237633   1.179   5.553  14.469 -1.7780 -2.5880  0.2157
 4480TIP3   OH237634   2.480   4.978  13.836 -0.5641  0.4781  0.0160
 4480TIP3    H137635   2.546   4.980  13.767  1.0261  1.5764  1.5013
 4480TIP3    H237636   2.501   4.900  13.887 -1.0710  0.2619 -0.1016
 4481TIP3   OH237637   2.428   0.282  15.913 -0.0433  0.0238 -0.2016
 4481TIP3    H137638   2.433   0.191  15.885  0.2968  0.5374 -1.9312
 4481TIP3    H237639   2.519   0.307  15.931 -0.1869 -0.1008  0.7734
 4482TIP3   OH237640   5.946   2.805  15.624  0.1147 -0.0777 -0.0414
 4482TIP3    H137641   5.924   2.863  15.551 -2.1395 -0.7417  0.0320
 4482TIP3    H237642   5.944   2.717  15.586 -1.3998 -0.4522  0.8390
 4483TIP3   OH237643   8.344   2.906  15.543  0.2934  0.1696 -0.2941
 4483TIP3    H137644   8.372   2.991  15.578 -1.3986  1.5136 -1.9981
 4483TIP3    H237645   8.286   2.870  15.610  0.2539  0.8032  0.0225
 4484TIP3   OH237646   0.572   2.541  16.587  0.6024  0.1053 -0.1243
 4484TIP3    H137647   0.617   2.579  16.511 -1.0412  0.5999 -0.8999
 4484TIP3    H237648   0.515   2.611  16.619  1.7643  0.1323  2.0412
 4485TIP3   OH237649   3.513   4.918  14.717 -0.1333  0.3293  0.1096
 4485TIP3    H137650   3.542   4.942  14.805 -1.2066 -0.5502  0.7260
 4485TIP3    H237651   3.506   4.823  14.719 -1.0693  0.3685 -0.6331
 4486TIP3   OH237652   0.607   0.450  14.206  0.5757  0.5768 -0.3233
 4486TIP3    H137653   0.665   0.378  14.230  0.2766  0.2487 -0.5760
 4486TIP3    H237654   0.665   0.525  14.192  0.7237  1.0069  2.1382
 4487TIP3   OH237655   6.507   7.259  13.634  0.4711 -0.1199 -0.2509
 4487TIP3    H137656   6.531   7.344  13.597  0.9146 -0.4161 -0.6571
 4487TIP3    H237657   6.443   7.279  13.702  0.7583  0.5614 -0.1788
 4488TIP3   OH237658   1.783   0.402  15.205  0.3923 -0.0223 -0.3965
 4488TIP3    H137659   1.760   0.353  15.126 -0.1031 -1.8215  0.8049
 4488TIP3    H237660   1.877   0.387  15.216  1.0690  2.3673 -1.9797
 4489TIP3   OH237661   6.500   8.226  13.903 -0.0297 -0.5134  0.1463
 4489TIP3    H137662   6.526   8.208  13.993  0.6557 -1.5006 -0.2335
 4489TIP3    H237663   6.521   8.146  13.855  1.1517  0.5511 -1.2232
 4490TIP3   OH237664   1.832   5.569  14.245  0.2280 -0.0450 -0.0946
 4490TIP3    H137665   1.915   5.526  14.267  2.3661  2.0232 -3.2632
 4490TIP3    H237666   1.784   5.504  14.194  0.9943 -0.5092 -0.2478
 4491TIP3   OH237667   8.434   4.942  14.839 -0.2528 -0.6500 -0.2144
 4491TIP3    H137668   8.463   4.929  14.929  2.2330  1.5125 -0.5756
 4491TIP3    H237669   8.342   4.967  14.846  0.4860  1.8140  1.9889
 4492TIP3   OH237670   1.578   4.115  14.508  0.1117  0.7415 -0.1031
 4492TIP3    H137671   1.586   4.106  14.413  1.0904 -0.8101  0.0892
 4492TIP3    H237672   1.603   4.029  14.542  2.7432  2.1008  1.7095
 4493TIP3   OH237673   5.957   4.018  15.602 -0.1950 -0.4635 -0.1114
 4493TIP3    H137674   6.018   4.002  15.530 -0.4470  0.2469 -0.4921
 4493TIP3    H237675   5.890   3.951  15.592  0.1701 -0.8344 -0.0876
 4494TIP3   OH237676   4.337   6.497  14.773  0.2342  0.3816 -0.2092
 4494TIP3    H137677   4.330   6.447  14.692 -0.8761  1.5821 -0.8991
 4494TIP3    H237678   4.381   6.438  14.834  0.6273 -0.7385 -1.5227
 4495TIP3   OH237679   7.296   4.039  15.770  0.4688 -0.2853 -0.1307
 4495TIP3    H137680   7.242   4.035  15.691 -0.7700  0.4102  0.6305
 4495TIP3    H237681   7.245   3.990  15.835  1.5060 -0.9161  0.2267
 4496TIP3   OH237682   0.004   7.657  15.431 -0.6425  0.5291  0.2804
 4496TIP3    H137683  -0.007   7.717  15.357 -0.9574  0.9567  0.6750
 4496TIP3    H237684   0.079   7.602  15.406 -1.8936 -0.6001 -1.2186
 4497TIP3   OH237685   5.321   4.984  14.488 -0.3856  0.5190  0.2735
 4497TIP3    H137686   5.299   4.919  14.555  0.2297  0.1084  0.0827
 4497TIP3    H237687   5.239   5.032  14.475 -1.0779 -0.7120 -0.1444
 4498TIP3   OH237688   7.470   8.362  16.184 -0.1838 -0.2006  0.6310
 4498TIP3    H137689   7.382   8.396  16.173 -0.1130  0.0907  0.9424
 4498TIP3    H237690   7.470   8.323  16.272 -0.0928 -0.4783  0.5099
 4499TIP3   OH237691   0.678   2.243  15.210 -0.5187 -0.4750  0.0035
 4499TIP3    H137692   0.666   2.301  15.285 -0.7164 -0.2091 -0.2314
 4499TIP3    H237693   0.655   2.297  15.134 -0.8616 -0.9051 -0.2042
 4500TIP3   OH237694   4.349   6.784  14.742  0.3181 -0.5362  0.3518
 4500TIP3    H137695   4.288   6.776  14.669  0.3692 -0.3078  0.2817
 4500TIP3    H237696   4.360   6.695  14.775 -2.2638 -0.3098  2.1747
 4501TIP3   OH237697   2.764   6.004  14.751 -0.4493  0.0635  0.1094
 4501TIP3    H137698   2.835   6.046  14.703 -0.9410 -0.8550 -1.4916
 4501TIP3    H237699   2.698   6.072  14.762 -1.0552 -0.0887 -2.0706
 4502TIP3   OH237700   7.720   7.878  14.841 -0.0666  0.1093  0.0199
 4502TIP3    H137701   7.734   7.807  14.904  1.2915 -1.4432 -1.8828
 4502TIP3    H237702   7.626   7.878  14.824 -0.1806 -0.7429  0.6085
 4503TIP3   OH237703   2.540   1.010  15.403 -0.0172 -0.7458 -0.5199
 4503TIP3    H137704   2.561   0.990  15.494 -0.1967  1.7206  0.1433
 4503TIP3    H237705   2.624   1.039  15.365 -0.2909 -0.0365 -0.5992
 4504TIP3   OH237706   1.817   1.414  13.786  0.7614 -0.0871 -0.7404
 4504TIP3    H137707   1.765   1.486  13.749 -0.5426 -0.3483  0.4763
 4504TIP3    H237708   1.820   1.348  13.716 -1.4555 -0.4863 -0.5431
 4505TIP3   OH237709   1.405   1.952  13.901  0.5669 -0.2542 -0.3944
 4505TIP3    H137710   1.446   1.885  13.847  1.4257  0.6439 -0.8897
 4505TIP3    H237711   1.475   1.985  13.957 -0.1890 -0.7894  0.9059
 4506TIP3   OH237712   2.049   7.874  14.128 -0.4958 -0.8115  0.2595
 4506TIP3    H137713   2.104   7.929  14.184 -0.6198 -0.2818 -0.1320
 4506TIP3    H237714   1.971   7.927  14.112 -1.2633 -1.6718  1.0513
 4507TIP3   OH237715   3.084   6.761  14.988  0.1713  0.4427  0.2735
 4507TIP3    H137716   3.008   6.800  14.944 -0.7154 -1.0572  0.3995
 4507TIP3    H237717   3.139   6.835  15.011 -0.7946  1.4985 -0.6948
 4508TIP3   OH237718   3.432   2.658  14.141 -0.0427 -0.1243 -0.5775
 4508TIP3    H137719   3.377   2.736  14.149 -1.6663 -1.2759  0.0416
 4508TIP3    H237720   3.481   2.654  14.223 -0.0783  0.1623 -0.5427
 4509TIP3   OH237721   3.594   0.089  15.286 -0.1118  0.7046  0.1679
 4509TIP3    H137722   3.615   0.000  15.258  0.7543  0.4204  1.6128
 4509TIP3    H237723   3.533   0.078  15.359  2.5303  1.0509  2.6174
 4510TIP3   OH237724   1.308   0.775  14.808  0.3398 -0.2356 -0.1801
 4510TIP3    H137725   1.276   0.836  14.874  0.0439 -0.1115 -0.4380
 4510TIP3    H237726   1.278   0.689  14.839 -0.3583 -0.1089 -0.4810
 4511TIP3   OH237727   2.052   2.441  15.851  0.1002 -0.1162  0.1966
 4511TIP3    H137728   2.005   2.521  15.829  1.5012  0.5193 -0.5851
 4511TIP3    H237729   2.033   2.427  15.944 -1.6004  0.1032 -0.0807
 4512TIP3   OH237730   7.790   2.003  15.350  0.2674  0.4379  0.8228
 4512TIP3    H137731   7.755   2.080  15.396  0.6441  0.8219  0.4788
 4512TIP3    H237732   7.782   1.931  15.413 -1.4437  0.4337  0.6542
 4513TIP3   OH237733   0.538   1.466  14.836  0.3733 -0.1971  0.3255
 4513TIP3    H137734   0.487   1.494  14.760 -1.5385 -0.9626  1.2776
 4513TIP3    H237735   0.522   1.533  14.902  1.3258 -0.0066  0.3902
 4514TIP3   OH237736   5.101   1.894  14.602  0.1407 -0.1992 -0.6989
 4514TIP3    H137737   5.128   1.984  14.582  0.3150  0.2093  1.1547
 4514TIP3    H237738   5.024   1.879  14.547 -0.1271  1.2362 -0.7555
 4515TIP3   OH237739   4.733   1.427  15.423  0.7482  0.3483  0.0081
 4515TIP3    H137740   4.646   1.412  15.387  0.7428  0.0312  0.1566
 4515TIP3    H237741   4.754   1.348  15.472  1.1218  0.4190 -0.0294
 4516TIP3   OH237742   2.632   7.730  15.365  0.0004 -0.2328 -0.4467
 4516TIP3    H137743   2.611   7.778  15.285  0.5811  1.5777  0.4372
 4516TIP3    H237744   2.547   7.708  15.402 -0.2715 -0.5848 -1.2434
 4517TIP3   OH237745   1.916   7.752  14.468 -0.2641  0.5324  0.3961
 4517TIP3    H137746   1.934   7.846  14.463  0.6759  0.3880  0.7267
 4517TIP3    H237747   2.002   7.711  14.458 -0.2089 -0.2021  3.0061
 4518TIP3   OH237748   7.386   7.361  16.061  0.2790 -0.4525 -0.6335
 4518TIP3    H137749   7.462   7.406  16.024 -0.0092 -0.3717 -1.1469
 4518TIP3    H237750   7.418   7.323  16.143  0.4599  0.9241 -0.0331
 4519TIP3   OH237751   0.983   4.245  15.059  0.2021  0.4604 -0.3027
 4519TIP3    H137752   0.912   4.203  15.107  0.6090  1.0898  0.9009
 4519TIP3    H237753   0.988   4.197  14.976 -1.5681  0.3608 -0.3907
 4520TIP3   OH237754   6.972   4.587  15.753 -0.0144 -0.2746  0.1056
 4520TIP3    H137755   6.962   4.602  15.847 -0.4505 -1.1875  0.2240
 4520TIP3    H237756   6.885   4.607  15.716 -0.1075 -0.7861  0.0339
 4521TIP3   OH237757   8.144   1.683  14.665 -0.5185  0.4048 -0.4837
 4521TIP3    H137758   8.227   1.661  14.622 -0.5322 -0.6508  0.0123
 4521TIP3    H237759   8.114   1.601  14.704 -2.2264  0.5701 -1.3655
 4522TIP3   OH237760   1.590   1.356  14.972 -0.1042 -0.2185 -1.0914
 4522TIP3    H137761   1.678   1.336  15.005  0.2274 -0.7247 -2.2689
 4522TIP3    H237762   1.602   1.437  14.923 -0.4222  0.0222 -0.7794
 4523TIP3   OH237763   4.815   3.320  15.646 -0.4887 -0.2531  0.0929
 4523TIP3    H137764   4.823   3.364  15.561  1.1614 -0.3839  0.1503
 4523TIP3    H237765   4.826   3.390  15.711 -0.5884 -0.3294  0.1929
 4524TIP3   OH237766   8.091   1.556  14.341 -0.2100  0.5256  0.1076
 4524TIP3    H137767   8.071   1.467  14.310  0.7213  0.0051  0.9102
 4524TIP3    H237768   8.094   1.609  14.262 -0.4194 -0.2364 -0.4268
 4525TIP3   OH237769   3.022   0.874  15.617  0.0411  0.3900 -0.2774
 4525TIP3    H137770   3.118   0.882  15.621  0.1672 -1.0773  0.3210
 4525TIP3    H237771   2.990   0.941  15.678  0.8181 -0.7615  1.4816
 4526TIP3   OH237772   6.403   2.418  14.023 -0.2307  0.0268 -0.2695
 4526TIP3    H137773   6.440   2.395  14.109  0.3128  0.1007 -0.4811
 4526TIP3    H237774   6.309   2.405  14.034 -0.0359 -1.4609 -0.1238
 4527TIP3   OH237775   2.790   1.095  14.526  0.2552 -0.4399 -0.2231
 4527TIP3    H137776   2.786   1.181  14.486  1.6572 -0.6293 -0.8146
 4527TIP3    H237777   2.821   1.112  14.615  0.0168 -0.3010 -0.1632
 4528TIP3   OH237778   6.853   0.256  14.091 -0.1374  0.2978 -0.0759
 4528TIP3    H137779   6.932   0.205  14.071  1.0047  1.7995  0.4079
 4528TIP3    H237780   6.793   0.193  14.131  1.8215 -0.3760  2.0325
 4529TIP3   OH237781   0.763   1.889  13.873  0.2482  0.0936  0.5061
 4529TIP3    H137782   0.820   1.834  13.928 -1.4414  0.2967  2.5700
 4529TIP3    H237783   0.720   1.948  13.935  0.1335  2.0961 -1.3706
 4530TIP3   OH237784   0.570   1.778  14.486  0.9174 -0.3027  0.5126
 4530TIP3    H137785   0.616   1.855  14.519  0.1214  0.3879  0.0710
 4530TIP3    H237786   0.613   1.758  14.403  1.6887 -0.8788  1.0397
 4531TIP3   OH237787   4.894   0.739  16.162 -0.5600  0.3331  0.2290
 4531TIP3    H137788   4.937   0.655  16.180  0.6096  1.2661  2.0190
 4531TIP3    H237789   4.958   0.805  16.186 -1.3393  1.7965 -1.4633
 4532TIP3   OH237790   3.268   0.202  14.905  0.5628  0.0517  0.4670
 4532TIP3    H137791   3.320   0.123  14.920 -0.1697 -0.4914  0.1643
 4532TIP3    H237792   3.309   0.268  14.962  3.4124  0.4678 -1.8509
 4533TIP3   OH237793   4.315   6.982  14.931  0.4421 -0.2514 -0.0457
 4533TIP3    H137794   4.384   7.000  14.995 -0.2803 -0.9976  0.9804
 4533TIP3    H237795   4.356   6.924  14.867  1.1561  0.4501 -0.2393
 4534TIP3   OH237796   4.248   7.870  15.245  0.1442 -0.1421  0.6835
 4534TIP3    H137797   4.298   7.870  15.163 -0.0136 -1.6698  0.5501
 4534TIP3    H237798   4.312   7.888  15.313 -0.1733  4.2173  0.0823
 4535TIP3   OH237799   7.934   4.472  15.615  0.5099  0.2343 -0.1279
 4535TIP3    H137800   7.872   4.499  15.683 -0.0295  0.2324 -0.6052
 4535TIP3    H237801   7.954   4.552  15.567  3.3325  0.8775  1.9135
 4536TIP3   OH237802   8.093   2.054  15.814 -0.2947  0.4580  0.1714
 4536TIP3    H137803   8.038   2.103  15.875  0.6167 -0.1870  1.5551
 4536TIP3    H237804   8.172   2.108  15.804 -0.8140  1.0255 -1.2379
 4537TIP3   OH237805   4.671   6.900  15.272  0.2879  0.3321 -0.3765
 4537TIP3    H137806   4.602   6.861  15.327  0.2181  2.0754  0.8647
 4537TIP3    H237807   4.730   6.827  15.252 -0.2321 -0.5776  1.2093
 4538TIP3   OH237808   5.233   6.316  14.646  0.5100 -0.2296  0.3439
 4538TIP3    H137809   5.223   6.307  14.741 -0.3437  1.2000  0.4200
 4538TIP3    H237810   5.151   6.281  14.610  0.3204  0.3299  0.2202
 4539TIP3   OH237811   5.862   5.090  15.439 -0.4053 -0.1229 -0.2145
 4539TIP3    H137812   5.785   5.145  15.420 -0.9471 -1.0198 -0.6929
 4539TIP3    H237813   5.834   5.033  15.511 -0.4439 -0.9325 -0.8520
 4540TIP3   OH237814   6.029   1.126  15.527 -0.5410  0.3777 -0.2266
 4540TIP3    H137815   6.019   1.133  15.432 -2.4961 -0.8366 -0.1758
 4540TIP3    H237816   6.058   1.036  15.541  1.0511  0.9353  0.2971
 4541TIP3   OH237817   0.654   3.829  15.616 -0.2082 -0.8935  0.2403
 4541TIP3    H137818   0.588   3.819  15.685  0.0111 -1.4581  0.3713
 4541TIP3    H237819   0.606   3.865  15.542 -0.7502 -1.6761  0.2012
 4542TIP3   OH237820   1.353   7.818  16.066  0.2683  0.0779 -0.0747
 4542TIP3    H137821   1.270   7.846  16.105  0.6251 -0.3064  1.0020
 4542TIP3    H237822   1.420   7.856  16.124  0.8441  0.3570 -0.9146
 4543TIP3   OH237823   8.347   7.466  15.019  0.0305  0.0005  0.3713
 4543TIP3    H137824   8.337   7.490  14.927 -2.1434 -0.5580  0.4083
 4543TIP3    H237825   8.387   7.543  15.059  1.5612  0.0417 -1.1041
 4544TIP3   OH237826   4.415   3.154  14.085 -0.3906  0.0923  0.3003
 4544TIP3    H137827   4.453   3.078  14.039 -0.6637 -0.6947  1.3524
 4544TIP3    H237828   4.487   3.189  14.138 -1.0416 -1.3499  2.2320
 4545TIP3   OH237829   3.890   6.823  13.894  0.6298 -0.1627 -0.2587
 4545TIP3    H137830   3.959   6.884  13.867  0.5693  0.7505  1.4804
 4545TIP3    H237831   3.814   6.848  13.842  0.9068  0.5358 -0.3398
 4546TIP3   OH237832   0.739   8.015  14.492 -0.1281 -0.5557 -0.3443
 4546TIP3    H137833   0.723   8.047  14.581  0.2558  0.8197 -0.7376
 4546TIP3    H237834   0.656   7.978  14.465 -0.1359 -1.3791  0.7298
 4547TIP3   OH237835   7.012   2.833  14.712  0.0940  0.1538 -0.2388
 4547TIP3    H137836   6.929   2.869  14.680 -0.4098  0.3134  1.1571
 4547TIP3    H237837   7.033   2.887  14.789 -0.0903 -1.7717  1.2427
 4548TIP3   OH237838   2.948   2.674  14.804 -0.1660 -0.0036  0.0675
 4548TIP3    H137839   2.914   2.633  14.883 -1.1166 -1.3164 -0.9761
 4548TIP3    H237840   2.872   2.718  14.766 -0.1915 -1.0098 -1.0989
 4549TIP3   OH237841   8.431   1.275  15.583 -0.1292 -0.2624  0.0240
 4549TIP3    H137842   8.465   1.364  15.573  0.9240 -0.5937  0.5517
 4549TIP3    H237843   8.490   1.233  15.645 -0.9831 -1.1466  0.2741
 4550TIP3   OH237844   0.608   2.727  15.890  0.4637  0.4087 -0.5364
 4550TIP3    H137845   0.685   2.745  15.836  0.6409  0.5577 -0.2334
 4550TIP3    H237846   0.534   2.755  15.836  0.5281 -0.8479 -1.3254
 4551TIP3   OH237847   8.168   1.170  14.607 -0.8101 -0.2185 -0.1052
 4551TIP3    H137848   8.123   1.102  14.557 -1.7900 -0.6278  1.2404
 4551TIP3    H237849   8.251   1.183  14.562 -1.3047 -1.1351 -1.3359
 4552TIP3   OH237850   2.580   2.016  14.364  0.0813  0.5704 -0.1864
 4552TIP3    H137851   2.497   1.968  14.365  1.2805 -1.6695 -0.0191
 4552TIP3    H237852   2.590   2.046  14.274 -0.4199 -0.0971 -0.4756
 4553TIP3   OH237853   0.468   0.736  15.130 -0.5520 -0.1757  0.2715
 4553TIP3    H137854   0.551   0.768  15.165  0.6761  0.2253 -2.7021
 4553TIP3    H237855   0.441   0.803  15.066 -2.1690 -1.2303 -0.2239
 4554TIP3   OH237856   3.440   2.368  15.386  0.0572  0.1167 -0.3030
 4554TIP3    H137857   3.412   2.428  15.317  0.2595  1.2964  0.6027
 4554TIP3    H237858   3.406   2.408  15.467  0.5668 -0.7710  0.3636
 4555TIP3   OH237859   5.319   6.209  14.085 -0.1564 -0.1200  0.6002
 4555TIP3    H137860   5.302   6.303  14.096 -1.0334 -0.1941 -0.0731
 4555TIP3    H237861   5.259   6.181  14.016  1.9509 -0.6287 -1.1589
 4556TIP3   OH237862   0.672   0.412  15.107 -0.3927  0.0763 -0.2036
 4556TIP3    H137863   0.607   0.460  15.055 -1.5469 -1.8173 -0.6014
 4556TIP3    H237864   0.713   0.480  15.161 -0.4908  1.8148 -2.1677
 4557TIP3   OH237865   4.633   0.808  14.389 -0.3631  0.1498  0.0431
 4557TIP3    H137866   4.714   0.764  14.418  1.7737  3.9686  0.5322
 4557TIP3    H237867   4.577   0.808  14.466 -0.6719 -1.9302 -0.0992
 4558TIP3   OH237868   0.108   4.341  14.052 -0.7312 -0.2703  0.1019
 4558TIP3    H137869   0.027   4.291  14.043 -1.7199  1.5525 -2.4610
 4558TIP3    H237870   0.080   4.432  14.046  1.4564  0.4432 -0.1629
 4559TIP3   OH237871   2.909   2.844  13.632  0.0855  0.0861 -0.3378
 4559TIP3    H137872   2.871   2.930  13.614 -0.5188 -0.1598 -0.2736
 4559TIP3    H237873   2.922   2.843  13.727  0.5825  0.3026 -0.4023
 4560TIP3   OH237874   1.983   4.444  15.916  0.3039 -0.5316  0.3069
 4560TIP3    H137875   1.994   4.519  15.858  1.7022  0.1691  1.4185
 4560TIP3    H237876   2.070   4.405  15.921  0.5278  0.1847  2.9091
 4561TIP3   OH237877   6.096   8.035  14.413 -0.3323  0.0862  0.5261
 4561TIP3    H137878   6.029   7.967  14.416 -0.8291  0.5572  0.3136
 4561TIP3    H237879   6.175   7.990  14.383 -1.3024  0.0691 -2.3422
 4562TIP3   OH237880   4.637   3.354  14.983  0.3946 -0.2332  0.0476
 4562TIP3    H137881   4.589   3.437  14.988 -1.1504 -1.0136 -1.0479
 4562TIP3    H237882   4.602   3.302  15.056  0.2718 -0.4576 -0.1703
 4563TIP3   OH237883   6.523   1.581  15.782 -0.3126  0.3589  0.0939
 4563TIP3    H137884   6.449   1.566  15.724  0.4725 -1.3593 -0.5439
 4563TIP3    H237885   6.590   1.519  15.752  0.4086 -0.0534  2.3325
 4564TIP3   OH237886   3.063   7.179  14.692 -0.0030 -0.7954  0.2076
 4564TIP3    H137887   3.148   7.213  14.719 -0.3327  0.8895 -0.7308
 4564TIP3    H237888   3.005   7.255  14.694 -1.4481 -1.8569  0.5877
 4565TIP3   OH237889   1.846   6.143  15.855 -0.2557  0.0023 -0.3479
 4565TIP3    H137890   1.757   6.124  15.884 -0.4560  0.7298 -0.4643
 4565TIP3    H237891   1.893   6.166  15.936 -0.0968 -0.6397 -0.2510
 4566TIP3   OH237892   0.842   0.667  15.642 -0.2968 -0.1068 -0.1062
 4566TIP3    H137893   0.799   0.661  15.728  0.5596  1.7704  0.4945
 4566TIP3    H237894   0.769   0.665  15.579 -0.9489 -1.2492  0.6428
 4567TIP3   OH237895   2.993   6.699  13.794  0.1497  0.0856 -0.0204
 4567TIP3    H137896   3.067   6.660  13.748  0.7165 -0.1732  1.0822
 4567TIP3    H237897   3.020   6.790  13.811  0.2241 -0.0098  0.3832
 4568TIP3   OH237898   5.929   1.539  15.351 -1.1242 -0.2440 -0.1286
 4568TIP3    H137899   5.915   1.462  15.297  0.1751 -0.9988  0.5640
 4568TIP3    H237900   6.005   1.517  15.405  0.1814  2.0301 -0.8956
 4569TIP3   OH237901   1.306   7.381  14.537  0.1753 -0.3315  0.2724
 4569TIP3    H137902   1.321   7.346  14.626 -0.9182 -0.0352  0.5854
 4569TIP3    H237903   1.341   7.470  14.540  2.6552 -1.2045 -0.4249
 4570TIP3   OH237904   1.848   4.744  15.140 -0.1485 -0.1217 -0.1392
 4570TIP3    H137905   1.883   4.805  15.204 -1.3917  2.0732 -1.4325
 4570TIP3    H237906   1.893   4.661  15.158  1.8126  1.2156  1.5032
 4571TIP3   OH237907   1.494   1.717  13.819  0.4276 -0.0967  0.0676
 4571TIP3    H137908   1.448   1.678  13.744  1.0099  1.4977 -1.1753
 4571TIP3    H237909   1.583   1.680  13.814  0.8343  0.9498 -0.8141
 4572TIP3   OH237910   0.212   1.340  16.100 -0.2731 -0.4153 -0.0254
 4572TIP3    H137911   0.234   1.307  16.013 -1.4183 -0.1076 -0.4585
 4572TIP3    H237912   0.171   1.425  16.084 -1.5285 -0.8449  0.7026
 4573TIP3   OH237913   1.439   0.284  15.616 -0.5544  0.0505  0.0026
 4573TIP3    H137914   1.391   0.215  15.570 -1.1478 -0.6103  1.5421
 4573TIP3    H237915   1.431   0.261  15.709 -0.5689  2.0641  0.5407
 4574TIP3   OH237916   8.066   0.091  14.930 -0.2106  0.6035  0.4483
 4574TIP3    H137917   8.060   0.003  14.967 -0.8102  0.2266 -0.5135
 4574TIP3    H237918   8.126   0.137  14.988 -0.2892 -0.2829  1.2631
 4575TIP3   OH237919   4.494   2.679  15.790 -0.4384  0.1284 -0.4200
 4575TIP3    H137920   4.527   2.692  15.701  0.4902  1.0123  0.0313
 4575TIP3    H237921   4.437   2.602  15.784 -0.7210  0.4298 -1.8566
 4576TIP3   OH237922   1.708   8.305  14.230  0.2602  0.0934 -0.7673
 4576TIP3    H137923   1.722   8.268  14.142 -0.8321  0.8454 -1.2934
 4576TIP3    H237924   1.622   8.348  14.223  0.3637  0.5351  0.5537
 4577TIP3   OH237925   1.871   6.574  15.278  0.4160 -0.1819 -0.1895
 4577TIP3    H137926   1.804   6.586  15.344  1.1738 -0.8467  0.7350
 4577TIP3    H237927   1.900   6.662  15.255 -2.3092  0.2999 -2.3074
 4578TIP3   OH237928   3.918   6.295  13.703 -0.6387 -0.0046  0.0407
 4578TIP3    H137929   3.985   6.361  13.687 -1.6231  0.6624 -1.5969
 4578TIP3    H237930   3.853   6.340  13.757 -1.5639  0.5973 -1.5050
 4579TIP3   OH237931   5.671   6.599  15.842  0.5323  0.2712  0.3134
 4579TIP3    H137932   5.745   6.609  15.783  0.4833 -1.6770 -0.1103
 4579TIP3    H237933   5.710   6.598  15.930  0.8748  0.4680  0.1639
 4580TIP3   OH237934   5.235   2.369  14.779 -0.2256  0.3951  0.1619
 4580TIP3    H137935   5.179   2.429  14.829  0.5929  1.2941  0.0247
 4580TIP3    H237936   5.311   2.421  14.755  1.7151 -1.3539  2.1431
 4581TIP3   OH237937   7.035   0.563  14.467  0.3816  0.6031 -0.1727
 4581TIP3    H137938   7.088   0.546  14.389  0.6127  1.3547 -0.1935
 4581TIP3    H237939   7.012   0.656  14.459  1.0741  0.9016  1.0385
 4582TIP3   OH237940   0.044   3.188  14.500  0.2078 -0.6509  0.0230
 4582TIP3    H137941  -0.024   3.183  14.568 -0.5544  0.3074 -0.6458
 4582TIP3    H237942   0.105   3.254  14.532 -1.4768  1.7131 -1.2996
 4583TIP3   OH237943   5.515   2.051  14.620 -0.2072  0.5755 -0.4146
 4583TIP3    H137944   5.464   2.133  14.620 -0.4053  0.4654  0.4785
 4583TIP3    H237945   5.602   2.077  14.590 -0.4366  1.0050 -0.7199
 4584TIP3   OH237946   6.818   1.676  14.898 -0.3706 -0.1595  0.2324
 4584TIP3    H137947   6.851   1.615  14.832  0.7124  0.5838  0.0730
 4584TIP3    H237948   6.816   1.761  14.854  1.4452  0.5717  1.4487
 4585TIP3   OH237949   4.608   1.323  15.068 -0.3546 -0.3555  0.5654
 4585TIP3    H137950   4.703   1.338  15.076 -0.2124 -1.5546  1.3790
 4585TIP3    H237951   4.576   1.328  15.158 -1.1600  0.5351  0.2430
 4586TIP3   OH237952   4.874   5.429  15.123  0.0055  0.0401 -0.9301
 4586TIP3    H137953   4.831   5.358  15.170  0.6726  0.5857  0.5736
 4586TIP3    H237954   4.960   5.394  15.099 -0.1510 -0.0810 -1.3105
 4587TIP3   OH237955   5.997   0.521  14.862  0.2349  0.3397 -0.0930
 4587TIP3    H137956   5.902   0.508  14.854  0.5531 -1.3253 -1.9443
 4587TIP3    H237957   6.033   0.434  14.874  1.6042  0.8378 -0.3696
 4588TIP3   OH237958   0.740   4.949  15.428  0.0128 -0.5878  0.6939
 4588TIP3    H137959   0.683   4.876  15.453 -0.3196 -1.1900 -1.6283
 4588TIP3    H237960   0.763   4.990  15.511 -2.6368 -1.1807  1.8454
 4589TIP3   OH237961   0.177   4.338  14.838 -0.1223  0.1992 -0.1054
 4589TIP3    H137962   0.130   4.416  14.868  0.5345  0.6827 -0.2966
 4589TIP3    H237963   0.254   4.373  14.793  0.3880 -0.5668  0.1501
 4590TIP3   OH237964   5.908   6.063  13.824 -0.2898 -0.3837  0.0878
 4590TIP3    H137965   5.995   6.098  13.844 -0.3814 -0.2159  0.1969
 4590TIP3    H237966   5.909   6.047  13.730  0.4506 -1.9983  0.3353
 4591TIP3   OH237967   2.813   1.551  14.552  0.2134 -0.0512 -0.3477
 4591TIP3    H137968   2.784   1.601  14.476 -0.9506 -0.5454 -0.2481
 4591TIP3    H237969   2.888   1.501  14.520 -0.6915 -0.7977 -1.4028
 4592TIP3   OH237970   2.034   0.015  14.119  0.3513 -1.2077  0.4322
 4592TIP3    H137971   1.994  -0.030  14.045  0.4920 -1.9809  0.8217
 4592TIP3    H237972   1.967   0.078  14.147  0.5189 -0.4922 -0.7002
 4593TIP3   OH237973   0.901   2.886  14.694 -0.1627  0.2370  0.2651
 4593TIP3    H137974   0.860   2.961  14.652  1.8087  1.5045  0.4799
 4593TIP3    H237975   0.983   2.920  14.728  0.1206 -1.7023  1.6510
 4594TIP3   OH237976   0.622   2.253  16.574 -0.6119 -0.1108  0.0411
 4594TIP3    H137977   0.632   2.224  16.664 -1.5866 -1.5901 -0.2836
 4594TIP3    H237978   0.612   2.348  16.580 -1.0144 -0.2203  1.5279
 4595TIP3   OH237979   2.354   5.325  14.029 -0.3434 -0.2237 -1.0222
 4595TIP3    H137980   2.404   5.385  13.973  1.0825 -0.3414  0.0465
 4595TIP3    H237981   2.327   5.254  13.971  1.0380 -0.3136 -1.6067
 4596TIP3   OH237982   1.329   0.679  15.869 -0.5137 -0.0798  0.2562
 4596TIP3    H137983   1.263   0.632  15.819 -0.0988  0.3795 -0.7546
 4596TIP3    H237984   1.391   0.612  15.898 -0.0974 -0.2101 -0.8998
 4597TIP3   OH237985   1.392   6.139  13.887  0.1230  0.5366  0.2415
 4597TIP3    H137986   1.402   6.160  13.794  0.6741  1.1018  0.4251
 4597TIP3    H237987   1.479   6.114  13.916 -0.3397 -1.2450  0.2424
 4598TIP3   OH237988   7.907   0.309  14.887 -0.6290 -0.0688  0.3033
 4598TIP3    H137989   7.813   0.304  14.871 -1.0174 -1.2341  2.5682
 4598TIP3    H237990   7.938   0.219  14.877  0.0895  0.1513  0.4349
 4599TIP3   OH237991   8.142   3.547  15.826 -0.0975 -0.0780  0.1995
 4599TIP3    H137992   8.162   3.455  15.813  0.6515 -0.1013  1.3704
 4599TIP3    H237993   8.174   3.590  15.747 -0.2200 -0.7835 -0.2431
 4600TIP3   OH237994   5.237   4.855  15.639  1.1635 -0.1420 -0.4172
 4600TIP3    H137995   5.300   4.924  15.660  0.5385  0.2507  0.2005
 4600TIP3    H237996   5.152   4.893  15.658  0.7041 -0.5741 -1.5017
 4601TIP3   OH237997   1.660   3.114  15.680 -0.7389  0.2650 -0.0612
 4601TIP3    H137998   1.601   3.180  15.645  0.2750 -0.1668 -2.8720
 4601TIP3    H237999   1.744   3.132  15.637 -0.0999 -2.0092  0.0778
 4602TIP3   OH238000   7.542   0.523  16.072  0.1020  0.2269  0.4490
 4602TIP3    H138001   7.616   0.485  16.120  0.3282  0.4172  0.2481
 4602TIP3    H238002   7.580   0.560  15.993 -0.2604 -0.0014  0.1647
 4603TIP3   OH238003   1.855   5.929  15.007  0.1412  0.4070 -0.0055
 4603TIP3    H138004   1.821   5.849  15.048 -0.7178  0.7595 -0.0216
 4603TIP3    H238005   1.783   5.992  15.014  0.2557  0.7046 -1.3671
 4604TIP3   OH238006   3.150   0.593  13.865 -0.1358  0.0101 -0.0838
 4604TIP3    H138007   3.054   0.595  13.860 -0.3035 -3.3284 -0.0078
 4604TIP3    H238008   3.170   0.613  13.956 -0.9722 -1.8550  0.5462
 4605TIP3   OH238009   5.465   0.781  14.551  0.2645  0.1257  0.9532
 4605TIP3    H138010   5.502   0.843  14.614 -0.9930  0.9214  0.9449
 4605TIP3    H238011   5.496   0.811  14.466  0.8079 -0.1111  1.0628
 4606TIP3   OH238012   5.376   7.856  14.677  0.4865  0.6503  0.3164
 4606TIP3    H138013   5.450   7.903  14.716  0.9600 -1.0196  1.5696
 4606TIP3    H238014   5.410   7.767  14.662 -0.9648  0.1358 -0.0422
 4607TIP3   OH238015   5.100   8.375  14.496 -0.0015 -0.0608  0.0476
 4607TIP3    H138016   5.147   8.410  14.420 -0.7620  0.5090 -0.1735
 4607TIP3    H238017   5.010   8.364  14.465  0.3038 -2.8934 -0.1122
 4608TIP3   OH238018   3.185   5.027  15.035 -0.4447  0.1596  0.3756
 4608TIP3    H138019   3.171   5.033  14.941 -3.6084 -0.5482  0.6828
 4608TIP3    H238020   3.265   5.076  15.051  0.8274 -0.6751 -2.7909
 4609TIP3   OH238021   7.671   5.055  14.954 -0.3112 -0.1460  0.2824
 4609TIP3    H138022   7.658   5.016  15.040  2.0952  0.0865  0.8340
 4609TIP3    H238023   7.743   5.005  14.915 -0.1631  0.8721 -0.8531
 4610TIP3   OH238024   7.024   4.705  14.568 -0.4484  0.1202 -0.0194
 4610TIP3    H138025   6.967   4.661  14.631 -0.8351 -0.0937 -0.5025
 4610TIP3    H238026   6.977   4.785  14.546 -1.5729 -0.9476 -1.8751
 4611TIP3   OH238027   1.557   2.093  15.524  0.1579 -0.3471 -0.3505
 4611TIP3    H138028   1.497   2.048  15.583 -0.5323  0.3104 -0.5320
 4611TIP3    H238029   1.514   2.087  15.438  0.2540  0.2963 -0.4477
 4612TIP3   OH238030   4.835   6.527  15.580 -0.0327 -0.3358  0.1130
 4612TIP3    H138031   4.829   6.616  15.612  2.0230 -0.8479  2.1884
 4612TIP3    H238032   4.914   6.526  15.526 -0.9935 -0.5398 -1.3375
 4613TIP3   OH238033   2.981   0.088  14.107 -0.4156  0.1921  0.4655
 4613TIP3    H138034   2.992   0.158  14.042  0.3710 -3.3724 -3.7872
 4613TIP3    H238035   3.070   0.065  14.133 -0.5887  0.0170  0.9124
 4614TIP3   OH238036   1.031   3.922  13.933 -0.2242 -0.6576  0.4629
 4614TIP3    H138037   1.047   3.840  13.886  0.8119 -0.1893 -0.0485
 4614TIP3    H238038   0.946   3.911  13.974  0.1225 -2.1747  0.8035
 4615TIP3   OH238039   3.209   7.524  14.572 -0.5955 -0.4421  0.4558
 4615TIP3    H138040   3.227   7.447  14.625  0.5522  0.2198  1.0731
 4615TIP3    H238041   3.186   7.489  14.486  0.0894 -1.4667  0.6696
 4616TIP3   OH238042   2.154   4.588  13.836  0.6388  0.1674  0.5265
 4616TIP3    H138043   2.085   4.553  13.779 -0.1932  2.7048 -0.1526
 4616TIP3    H238044   2.112   4.661  13.881  1.6929 -0.8859  3.4204
 4617TIP3   OH238045   1.087   0.601  14.078  0.0206  0.4520 -0.0233
 4617TIP3    H138046   1.080   0.552  14.160 -1.8471  0.2778 -0.2289
 4617TIP3    H238047   1.009   0.656  14.077 -0.3586 -0.0358 -1.9705
 4618TIP3   OH238048   2.764   8.430  14.571  0.4797  0.2036  0.4488
 4618TIP3    H138049   2.778   8.443  14.477 -0.3246  1.1375  0.4416
 4618TIP3    H238050   2.745   8.337  14.580 -0.0119  0.2102 -0.3949
 4619TIP3   OH238051   6.532   3.009  15.666  0.1583  0.4541  0.2386
 4619TIP3    H138052   6.510   3.083  15.723  0.2516 -0.3249  1.3238
 4619TIP3    H238053   6.586   2.952  15.721 -1.4696 -1.3423  0.0697
 4620TIP3   OH238054   2.604   4.202  14.780  0.1229  0.1453 -0.2474
 4620TIP3    H138055   2.540   4.132  14.761  1.1790 -0.7948 -0.4485
 4620TIP3    H238056   2.688   4.156  14.784  0.6151  1.1292  1.4795
 4621TIP3   OH238057   0.720   6.509  13.987 -0.5007  0.1576  0.0408
 4621TIP3    H138058   0.741   6.506  14.080  1.2708 -0.7298 -0.3354
 4621TIP3    H238059   0.629   6.480  13.982 -0.5519 -0.0117  1.4691
 4622TIP3   OH238060   8.355   2.470  15.819 -0.5736 -0.0274 -0.2273
 4622TIP3    H138061   8.340   2.443  15.728  1.0820 -0.1793 -0.4767
 4622TIP3    H238062   8.297   2.546  15.831 -2.9898 -1.7113 -0.4613
 4623TIP3   OH238063   0.252   0.331  15.045  0.4016  0.1121 -0.0908
 4623TIP3    H138064   0.280   0.269  14.978  0.8933  0.2296  0.0039
 4623TIP3    H238065   0.311   0.406  15.035  1.1430 -0.2844  1.1159
 4624TIP3   OH238066   2.030   3.922  14.764 -0.0225  0.0677  0.2061
 4624TIP3    H138067   1.959   3.912  14.827  0.8598 -1.8806  0.9699
 4624TIP3    H238068   2.069   4.006  14.785  0.5288 -0.7146  2.6278
 4625TIP3   OH238069   4.138   5.703  14.437  0.0223  0.5056  0.1249
 4625TIP3    H138070   4.137   5.788  14.392  0.1090  1.4572  1.8491
 4625TIP3    H238071   4.048   5.690  14.466 -0.3514 -0.7771 -1.4538
 4626TIP3   OH238072   5.464   1.314  15.475  0.1375 -0.1283  0.4594
 4626TIP3    H138073   5.494   1.371  15.546  0.6302  2.0410 -1.3798
 4626TIP3    H238074   5.402   1.367  15.426 -0.8003 -1.8501 -0.3331
 4627TIP3   OH238075   6.564   3.324  16.343 -0.0652  0.0795 -0.0515
 4627TIP3    H138076   6.525   3.410  16.327 -0.5183  0.1024  1.0684
 4627TIP3    H238077   6.603   3.331  16.431 -0.0388 -0.8263  0.0200
 4628TIP3   OH238078   4.059   3.248  14.595  0.3679  0.4878 -1.0281
 4628TIP3    H138079   4.062   3.344  14.587 -0.5732  0.7862  1.3000
 4628TIP3    H238080   3.975   3.224  14.556 -0.7622  1.0176  0.9361
 4629TIP3   OH238081   3.608   2.672  14.335 -0.1088  0.3093  0.4024
 4629TIP3    H138082   3.669   2.609  14.373 -0.6956 -1.4581 -1.4069
 4629TIP3    H238083   3.590   2.734  14.406  0.3836 -1.6515  2.3462
 4630TIP3   OH238084   5.791   6.800  14.466  0.0895 -0.5679  0.5660
 4630TIP3    H138085   5.859   6.867  14.472 -0.9449  0.4265  1.6523
 4630TIP3    H238086   5.837   6.718  14.483  1.1259  0.0069  0.6143
 4631TIP3   OH238087   7.724   1.903  16.155 -0.5905 -0.1969  0.1933
 4631TIP3    H138088   7.666   1.930  16.083  0.4814  2.0069  0.0932
 4631TIP3    H238089   7.674   1.922  16.234 -0.4657  0.5891  0.0872
 4632TIP3   OH238090   4.522   2.065  15.216 -0.1426 -0.3874  0.6678
 4632TIP3    H138091   4.571   2.085  15.296 -0.7876  0.8191  0.7866
 4632TIP3    H238092   4.524   1.969  15.210  0.9117 -0.4383  1.4870
 4633TIP3   OH238093   8.245   6.236  15.309  0.2302 -0.5821 -1.1863
 4633TIP3    H138094   8.264   6.149  15.274  0.6360 -0.6345 -0.8518
 4633TIP3    H238095   8.331   6.278  15.316 -0.0670  0.3212 -2.5595
 4634TIP3   OH238096   1.986   2.072  14.305  0.4121 -0.0776 -0.1626
 4634TIP3    H138097   1.966   2.121  14.385  0.4680 -1.0198  0.4320
 4634TIP3    H238098   1.925   2.108  14.240 -2.5143 -1.9838  1.2779
 4635TIP3   OH238099   6.560   7.785  15.129 -0.0352 -0.5144  0.2940
 4635TIP3    H138100   6.479   7.819  15.168  1.1566  0.5165  2.0551
 4635TIP3    H238101   6.592   7.721  15.193  1.5419  0.5741  0.6513
 4636TIP3   OH238102   1.109   0.654  14.492 -0.3292 -0.8393  0.2408
 4636TIP3    H138103   1.081   0.634  14.582  1.5211  0.0286  1.0663
 4636TIP3    H238104   1.198   0.689  14.502  0.3011 -1.6098 -2.0228
 4637TIP3   OH238105   1.028   3.175  15.931 -0.6347 -0.1224  0.5848
 4637TIP3    H138106   1.018   3.082  15.909  0.1105 -0.3262  1.0721
 4637TIP3    H238107   1.057   3.216  15.849 -1.5037 -0.2212  0.2254
 4638TIP3   OH238108   7.225   4.277  15.876 -0.1855 -0.0416 -0.6807
 4638TIP3    H138109   7.171   4.312  15.804 -0.6584 -1.3418 -0.9860
 4638TIP3    H238110   7.259   4.194  15.842  0.0936 -0.3751  0.3816
 4639TIP3   OH238111   1.143   3.695  15.281 -0.1393  0.4010  0.8924
 4639TIP3    H138112   1.134   3.629  15.350 -0.8413 -1.6056 -0.9590
 4639TIP3    H238113   1.057   3.695  15.238  1.0086 -0.3816 -1.5652
 4640TIP3   OH238114   1.242   2.209  15.967  0.0402  0.5190  0.0546
 4640TIP3    H138115   1.259   2.172  16.054  1.2748  0.9998  0.0408
 4640TIP3    H238116   1.239   2.304  15.982 -2.2171  0.5096 -0.0469
 4641TIP3   OH238117   1.037   4.919  14.982 -0.0948 -0.3716  0.2944
 4641TIP3    H138118   0.975   4.873  15.038  1.0051 -1.2805  0.7903
 4641TIP3    H238119   1.022   4.883  14.895  1.0554 -2.0491  0.7463
 4642TIP3   OH238120   6.338   3.046  15.474  0.3032 -0.0790 -0.1335
 4642TIP3    H138121   6.255   3.001  15.490  0.1639 -0.0141 -0.6704
 4642TIP3    H238122   6.380   3.049  15.560 -0.8474  1.0858  0.4280
 4643TIP3   OH238123   7.248   3.701  15.836 -0.0338  0.7175 -0.4340
 4643TIP3    H138124   7.267   3.744  15.920  0.9500  0.0219 -0.2900
 4643TIP3    H238125   7.165   3.655  15.851  1.8060 -2.3343  1.3636
 4644TIP3   OH238126   3.961   2.513  14.681 -0.5990 -0.0509 -0.1959
 4644TIP3    H138127   3.941   2.434  14.730  0.2350 -0.1896 -0.0580
 4644TIP3    H238128   4.052   2.534  14.705 -0.7504  0.8500 -0.3579
 4645TIP3   OH238129   2.573   3.624  13.802  0.3802  0.8726  0.1041
 4645TIP3    H138130   2.666   3.632  13.781  0.3696  0.5684 -0.0648
 4645TIP3    H238131   2.570   3.603  13.895  0.4803  0.9066  0.1147
 4646TIP3   OH238132   0.200   0.608  15.416 -0.3556  0.0644 -0.2485
 4646TIP3    H138133   0.215   0.662  15.493 -0.1066  0.5650 -0.6362
 4646TIP3    H238134   0.200   0.670  15.343 -0.5595 -0.4017 -0.6526
 4647TIP3   OH238135   1.669   0.640  16.081 -0.7488  0.1411  0.4302
 4647TIP3    H138136   1.760   0.613  16.086 -0.9044 -0.2981  1.1109
 4647TIP3    H238137   1.671   0.729  16.048 -0.1041 -0.0498 -0.0453
 4648TIP3   OH238138   8.395   8.009  14.730  0.1131 -0.2008 -0.3246
 4648TIP3    H138139   8.410   8.100  14.755 -0.6204 -0.2432  0.2631
 4648TIP3    H238140   8.300   7.998  14.733  0.1920 -0.9663 -0.4767
 4649TIP3   OH238141   3.911   7.240  14.359 -0.1783  0.0931  0.4396
 4649TIP3    H138142   3.977   7.252  14.427 -0.6914  0.6842  0.8496
 4649TIP3    H238143   3.956   7.263  14.278  0.5370 -0.9488  0.5238
 4650TIP3   OH238144   0.109   0.130  14.497  0.2192 -0.3638 -0.3475
 4650TIP3    H138145   0.019   0.162  14.495  0.6406  0.8398 -0.7174
 4650TIP3    H238146   0.162   0.205  14.470  1.3002 -1.1915 -0.5950
 4651TIP3   OH238147   3.149   5.090  14.380  0.2666  0.0215 -0.0422
 4651TIP3    H138148   3.190   5.099  14.466  1.2125  0.4278 -0.5237
 4651TIP3    H238149   3.214   5.046  14.326 -0.0937  0.2924 -0.7120
 4652TIP3   OH238150   2.495   1.806  14.724 -0.6848  0.1002  0.3671
 4652TIP3    H138151   2.542   1.767  14.798 -0.7151 -2.4079 -0.8203
 4652TIP3    H238152   2.436   1.736  14.693  0.3330  0.5029 -2.8743
 4653TIP3   OH238153   1.004   2.202  14.511 -0.3215 -0.0201 -0.1922
 4653TIP3    H138154   0.909   2.208  14.501 -0.1525  2.1702 -1.0765
 4653TIP3    H238155   1.022   2.241  14.596 -0.2231 -0.6002  0.0537
 4654TIP3   OH238156   7.702   3.034  14.973  0.5264 -0.2412 -0.8797
 4654TIP3    H138157   7.709   3.128  14.955  1.9500  0.1256  1.2623
 4654TIP3    H238158   7.764   2.993  14.913  2.3575  0.5616  0.3744
 4655TIP3   OH238159   0.421   4.732  16.083  0.1535  0.7093 -0.0819
 4655TIP3    H138160   0.481   4.695  16.148 -1.0645 -0.5980  0.3579
 4655TIP3    H238161   0.341   4.751  16.133 -0.6648  0.0473 -1.1031
 4656TIP3   OH238162   4.769   6.039  14.305 -0.2833  0.3971  0.1070
 4656TIP3    H138163   4.786   5.965  14.246  0.7562 -0.7294  1.7347
 4656TIP3    H238164   4.840   6.100  14.286  0.8616 -0.5697  1.0587
 4657TIP3   OH238165   7.490   1.016  14.226 -0.0109 -1.1151 -0.1668
 4657TIP3    H138166   7.537   1.026  14.143 -0.8422 -1.2799 -0.6716
 4657TIP3    H238167   7.559   1.013  14.292  0.5875  1.2139 -0.6185
 4658TIP3   OH238168   2.263   3.015  14.634  0.3831 -0.1624  0.3787
 4658TIP3    H138169   2.228   2.999  14.546  0.0069 -2.2783  0.8598
 4658TIP3    H238170   2.336   3.076  14.620  0.5500 -0.7176 -1.4533
 4659TIP3   OH238171   8.345   8.426  15.524 -0.1470  0.0164  0.1761
 4659TIP3    H138172   8.262   8.472  15.515 -0.1638 -0.1657 -0.6023
 4659TIP3    H238173   8.325   8.350  15.578 -0.2034  0.6867  1.1328
 4660TIP3   OH238174   7.912   4.918  14.860  0.3313  0.3272 -0.2121
 4660TIP3    H138175   7.950   4.979  14.922  1.1987 -0.8394  0.4491
 4660TIP3    H238176   7.984   4.860  14.835 -0.4907 -0.5548 -0.6424
 4661TIP3   OH238177   0.010   2.465  16.070 -0.3370  0.3783 -0.6161
 4661TIP3    H138178  -0.010   2.449  15.978 -1.7681  1.2231 -0.4834
 4661TIP3    H238179   0.053   2.550  16.071  1.5464 -0.5270 -0.6805
 4662TIP3   OH238180   0.932   4.219  15.451 -0.1569 -0.1079  0.4653
 4662TIP3    H138181   1.019   4.178  15.451 -0.0801  0.0107 -0.6033
 4662TIP3    H238182   0.946   4.306  15.414 -0.9911 -0.7735 -1.5871
 4663TIP3   OH238183   4.592   4.775  14.743  0.1507  1.1849  0.8167
 4663TIP3    H138184   4.528   4.710  14.773  1.3901 -0.2237  0.5323
 4663TIP3    H238185   4.666   4.766  14.803  1.2268  0.7768 -0.5216
 4664TIP3   OH238186   0.319   4.616  15.716 -0.5432  0.6479  0.0325
 4664TIP3    H138187   0.328   4.706  15.685 -2.2248  1.0362  0.5551
 4664TIP3    H238188   0.405   4.594  15.752  0.0354  1.8543 -0.5532
 4665TIP3   OH238189   0.801   8.088  13.910 -0.6364 -0.4232  0.6210
 4665TIP3    H138190   0.709   8.066  13.927 -1.1600  0.8817 -0.4010
 4665TIP3    H238191   0.812   8.176  13.946  0.2290 -0.5648  0.7329
 4666TIP3   OH238192   8.278   1.134  14.874 -0.0181  0.0992  0.6620
 4666TIP3    H138193   8.223   1.063  14.906 -0.8091  0.9386  1.2404
 4666TIP3    H238194   8.235   1.163  14.793  1.2368 -1.1479 -0.4963
 4667TIP3   OH238195   6.549   1.191  15.344  0.3991  0.0708  0.2358
 4667TIP3    H138196   6.635   1.170  15.381  1.3650  1.6751 -0.9279
 4667TIP3    H238197   6.567   1.210  15.252 -0.8755  2.1416  0.3485
 4668TIP3   OH238198   5.542   2.437  15.735 -0.0351 -0.0855  0.1677
 4668TIP3    H138199   5.510   2.460  15.648  0.6442  0.0317 -0.0627
 4668TIP3    H238200   5.611   2.501  15.752  0.6160 -0.8082  0.3078
 4669TIP3   OH238201   1.269   7.320  15.740 -0.1247  0.1479 -0.2673
 4669TIP3    H138202   1.345   7.263  15.750  0.5746  1.2517  1.0374
 4669TIP3    H238203   1.275   7.352  15.650  0.4268 -0.4877 -0.4659
 4670TIP3   OH238204   0.533   1.466  15.602  0.3042  0.4259  0.0945
 4670TIP3    H138205   0.621   1.439  15.577  0.2678 -2.0831  2.2591
 4670TIP3    H238206   0.545   1.550  15.647  1.6477  0.0185  0.5429
 4671TIP3   OH238207   6.112   3.669  15.669  0.0028  0.0881  0.3416
 4671TIP3    H138208   6.120   3.763  15.680 -0.7681  0.2179 -0.1668
 4671TIP3    H238209   6.151   3.651  15.584  0.1989 -0.0618  0.4611
 4672TIP3   OH238210   6.333   8.375  15.149  0.1493 -0.1979 -0.5579
 4672TIP3    H138211   6.301   8.308  15.089 -1.1170  0.8919 -1.1393
 4672TIP3    H238212   6.428   8.362  15.152 -0.2280 -3.5479  1.2351
 4673TIP3   OH238213   7.534   0.336  15.629 -0.0452  0.0036  0.0323
 4673TIP3    H138214   7.575   0.398  15.568  1.3666  0.6345  1.5476
 4673TIP3    H238215   7.590   0.337  15.706 -1.0865 -1.7152  0.8833
 4674TIP3   OH238216   0.397   7.405  15.242 -0.0896 -0.4132 -0.0679
 4674TIP3    H138217   0.372   7.377  15.154 -1.7637 -1.8558  0.7961
 4674TIP3    H238218   0.328   7.370  15.298  0.4942  1.1869  1.7357
 4675TIP3   OH238219   4.119   7.427  15.649  0.1937 -0.5235  0.3487
 4675TIP3    H138220   4.161   7.417  15.564  1.0581  1.0763  0.5515
 4675TIP3    H238221   4.033   7.464  15.629  0.6705  0.5391  0.1793
 4676TIP3   OH238222   6.577   3.626  16.266 -0.1396 -0.0459 -0.2690
 4676TIP3    H138223   6.582   3.601  16.174  0.5115 -0.3776 -0.1507
 4676TIP3    H238224   6.524   3.706  16.267  2.5626  1.9266 -1.3541
 4677TIP3   OH238225   7.147   0.832  15.447  0.1660  0.6081  0.7352
 4677TIP3    H138226   7.208   0.784  15.504  0.3931  0.5064  0.4115
 4677TIP3    H238227   7.066   0.782  15.451  1.2116 -1.5665 -1.9088
 4678TIP3   OH238228   5.414   3.230  14.664  0.4718  0.0496  0.3870
 4678TIP3    H138229   5.330   3.229  14.618 -0.4561 -3.0438  1.8920
 4678TIP3    H238230   5.411   3.309  14.718 -0.8556  0.6984 -0.5830
 4679TIP3   OH238231   4.742   5.855  14.983  0.6708  0.0971  0.6494
 4679TIP3    H138232   4.810   5.847  15.050  1.7037  0.1872 -0.3759
 4679TIP3    H238233   4.771   5.799  14.912 -1.3936 -1.5739  1.0093
 4680TIP3   OH238234   4.399   7.848  15.019 -0.2345  0.0378  0.1109
 4680TIP3    H138235   4.446   7.766  15.034  0.7515  0.9144  2.2061
 4680TIP3    H238236   4.389   7.852  14.924  1.5563 -1.4852 -0.2180
 4681TIP3   OH238237   0.946   8.399  13.733  0.4190  0.1601 -0.7652
 4681TIP3    H138238   0.907   8.484  13.713 -1.1735 -0.7733 -1.9525
 4681TIP3    H238239   0.905   8.373  13.815 -1.3210 -0.6429 -1.8143
 4682TIP3   OH238240   6.028   3.493  14.534 -0.0599  0.1075  0.8165
 4682TIP3    H138241   5.996   3.420  14.586  2.3105 -2.8406 -1.5257
 4682TIP3    H238242   5.948   3.532  14.497 -1.3898 -1.6362  1.6740
 4683TIP3   OH238243   2.663   4.358  15.319  0.0754 -0.2449  0.5585
 4683TIP3    H138244   2.592   4.296  15.300 -0.7198  0.8872 -0.3485
 4683TIP3    H238245   2.639   4.396  15.403 -0.2488 -0.0705  0.3892
 4684TIP3   OH238246   3.714   0.981  14.611  0.5219  0.3633 -0.4322
 4684TIP3    H138247   3.659   1.050  14.648 -0.2223  0.5829 -1.8756
 4684TIP3    H238248   3.800   0.993  14.652 -0.2557  0.5403  1.2385
 4685TIP3   OH238249   8.286   6.199  15.007  0.4672 -0.3084  0.4273
 4685TIP3    H138250   8.324   6.275  15.052 -1.7999 -0.0795  2.1587
 4685TIP3    H238251   8.279   6.226  14.916 -1.4398  2.1756  1.1940
 4686TIP3   OH238252   6.721   0.947  15.726 -0.0808  0.7631 -0.0448
 4686TIP3    H138253   6.681   1.021  15.773 -2.3762  0.5367 -1.4556
 4686TIP3    H238254   6.719   0.974  15.634  0.4789 -0.4525 -0.4282
 4687TIP3   OH238255   8.316   3.362  14.136 -0.3715 -0.0835  0.3049
 4687TIP3    H138256   8.315   3.267  14.124 -1.8484 -0.1833  0.9776
 4687TIP3    H238257   8.402   3.390  14.105  1.0641 -1.9431  2.3381
 4688TIP3   OH238258   5.379   0.544  15.200 -0.4443 -0.3577  0.1425
 4688TIP3    H138259   5.395   0.495  15.119 -0.8994 -4.1556  2.1275
 4688TIP3    H238260   5.467   0.571  15.228 -0.1274 -0.2886 -0.8639
 4689TIP3   OH238261   2.801   3.139  14.780 -0.4249  0.0205  0.0945
 4689TIP3    H138262   2.871   3.201  14.800 -0.8928  0.0828  1.7069
 4689TIP3    H238263   2.798   3.080  14.856 -0.7662 -1.2578 -0.8750
 4690TIP3   OH238264   7.235   6.753  15.641 -0.1670 -0.1463 -0.0754
 4690TIP3    H138265   7.163   6.809  15.668  0.2654 -0.0410  0.8776
 4690TIP3    H238266   7.235   6.680  15.703  0.5755 -0.1178 -0.0242
 4691TIP3   OH238267   3.811   0.165  15.893  0.2377 -0.3637  0.4103
 4691TIP3    H138268   3.907   0.168  15.899  0.1875 -0.4416  1.3160
 4691TIP3    H238269   3.792   0.190  15.802  1.1568 -1.2010 -0.0301
 4692TIP3   OH238270   0.299   6.182  15.056  0.1243  0.2580  0.9778
 4692TIP3    H138271   0.220   6.136  15.085  0.7838 -0.8862  1.0040
 4692TIP3    H238272   0.317   6.146  14.969  0.2622  0.9791  0.7029
 4693TIP3   OH238273   7.303   1.840  15.017 -0.4622 -0.3074 -0.3391
 4693TIP3    H138274   7.377   1.837  15.077 -0.7242  1.4967  0.1305
 4693TIP3    H238275   7.260   1.755  15.028  0.1475 -0.4510  1.1876
 4694TIP3   OH238276   4.925   3.305  14.885  0.9444 -0.2914  0.6007
 4694TIP3    H138277   4.920   3.283  14.792 -1.9004  0.0305  0.5925
 4694TIP3    H238278   4.864   3.378  14.896  1.8101  0.2069  2.6043
 4695TIP3   OH238279   6.931   7.381  14.775 -0.2016 -0.6164 -0.6161
 4695TIP3    H138280   6.862   7.415  14.831  0.8047  0.3201  0.0706
 4695TIP3    H238281   6.957   7.299  14.816 -0.0883 -0.3807 -0.2173
 4696TIP3   OH238282   7.324   0.599  15.328  0.0313 -0.0509  0.0862
 4696TIP3    H138283   7.296   0.686  15.298  0.9530  0.5615  0.9374
 4696TIP3    H238284   7.254   0.541  15.300 -1.0484  1.1049  0.2604
 4697TIP3   OH238285   4.059   4.833  14.626  0.2813 -0.2201 -0.1548
 4697TIP3    H138286   4.151   4.824  14.604  0.2322  0.9483 -0.9301
 4697TIP3    H238287   4.058   4.860  14.718  0.6716 -0.8360  0.0371
 4698TIP3   OH238288   2.843   6.379  14.520  0.2931 -1.0953 -0.2094
 4698TIP3    H138289   2.785   6.435  14.572 -0.0827 -1.4209 -0.2746
 4698TIP3    H238290   2.907   6.440  14.482 -0.1185 -0.7054 -0.2885
 4699TIP3   OH238291   3.974   2.176  14.762  0.4290 -0.6778  0.0920
 4699TIP3    H138292   3.918   2.171  14.840 -1.4164 -1.0158 -1.1910
 4699TIP3    H238293   4.062   2.157  14.795 -0.3339 -1.1311  2.0352
 4700TIP3   OH238294   7.952   6.874  15.601  0.4436 -0.3240 -0.5165
 4700TIP3    H138295   7.906   6.957  15.592 -0.2742 -0.8125 -1.5346
 4700TIP3    H238296   7.907   6.828  15.671  1.5275  0.5593  0.8201
 4701TIP3   OH238297   3.774   6.142  14.653 -0.5625 -0.5689 -0.4327
 4701TIP3    H138298   3.844   6.135  14.588 -0.1537  1.7034 -0.3192
 4701TIP3    H238299   3.801   6.083  14.723 -0.8961 -2.9080 -2.1319
 4702TIP3   OH238300   2.373   5.715  15.161 -0.6240  0.0784 -0.4304
 4702TIP3    H138301   2.388   5.740  15.070 -1.0168 -1.2761 -0.8987
 4702TIP3    H238302   2.450   5.746  15.208 -0.1928  0.3722 -1.3119
 4703TIP3   OH238303   2.344   6.425  15.537  0.0109 -0.2571  0.1267
 4703TIP3    H138304   2.318   6.483  15.608  2.0927  0.4624  0.3719
 4703TIP3    H238305   2.291   6.454  15.462  0.9037  1.9618  0.2678
 4704TIP3   OH238306   3.961   6.807  15.297 -0.4785  0.1561 -0.2176
 4704TIP3    H138307   3.958   6.789  15.391 -0.1875  0.1441 -0.2087
 4704TIP3    H238308   3.911   6.736  15.257 -1.2898  0.6072 -0.0134
 4705TIP3   OH238309   1.602   4.262  15.372  0.7485  0.2281 -0.2826
 4705TIP3    H138310   1.664   4.331  15.395  1.0992 -0.2801  0.3245
 4705TIP3    H238311   1.635   4.184  15.417 -0.2519 -0.0841 -0.0636
 4706TIP3   OH238312   4.592   2.151  14.521  0.4448 -0.4386 -0.2866
 4706TIP3    H138313   4.598   2.057  14.541  1.3608 -0.1840  0.7056
 4706TIP3    H238314   4.611   2.157  14.428 -1.5315 -1.4212 -0.8007
 4707TIP3   OH238315   3.035   0.672  14.568 -0.0155  0.6512  0.1670
 4707TIP3    H138316   3.001   0.582  14.566 -1.5130  1.1783  0.2738
 4707TIP3    H238317   2.956   0.726  14.579  0.7328  2.0482 -1.1209
 4708TIP3   OH238318   6.954   5.570  14.423 -0.0003  0.1703 -0.6649
 4708TIP3    H138319   6.933   5.630  14.351 -1.4217 -0.6441 -0.9593
 4708TIP3    H238320   6.995   5.495  14.379 -0.5907 -0.1950 -0.5946
 4709TIP3   OH238321   5.281   6.542  13.734  0.2813  0.2964 -0.1050
 4709TIP3    H138322   5.356   6.595  13.709  0.4099 -0.5716 -1.7308
 4709TIP3    H238323   5.216   6.559  13.665  0.4309 -1.8072 -0.8346
 4710TIP3   OH238324   8.039   3.958  16.044 -0.2141  0.1832 -0.3485
 4710TIP3    H138325   8.076   3.946  15.957  0.4581 -1.9739  0.1713
 4710TIP3    H238326   8.038   3.870  16.082  1.7478  1.3219  2.7114
 4711TIP3   OH238327   7.136   0.157  14.938 -0.3757 -0.1353  0.1956
 4711TIP3    H138328   7.078   0.085  14.913 -1.2084  0.2162  1.0526
 4711TIP3    H238329   7.111   0.229  14.879  0.1860 -0.4114 -0.3944
 4712TIP3   OH238330   5.393   2.935  15.445 -0.3154 -0.0066  0.1869
 4712TIP3    H138331   5.392   3.011  15.503  0.1057  0.5610 -0.5332
 4712TIP3    H238332   5.463   2.879  15.479 -1.5941 -0.8146  1.6173
 4713TIP3   OH238333   2.392   6.624  14.990 -0.3499  0.6375  0.2754
 4713TIP3    H138334   2.363   6.616  15.080 -1.9633  0.7599 -0.2020
 4713TIP3    H238335   2.336   6.563  14.941  0.8376  0.1940 -0.5868
 4714TIP3   OH238336   3.191   3.965  15.647 -0.2041 -0.5155 -0.2484
 4714TIP3    H138337   3.109   3.997  15.687 -0.8119 -1.4752 -0.6856
 4714TIP3    H238338   3.225   4.040  15.599 -2.2511 -0.7968 -2.2989
 4715TIP3   OH238339   1.533   6.426  14.573 -0.0602 -0.0453 -0.6212
 4715TIP3    H138340   1.569   6.359  14.514  0.4562 -0.6691  0.3791
 4715TIP3    H238341   1.548   6.391  14.661 -0.3914  1.0847 -0.1012
 4716TIP3   OH238342   1.885   0.504  14.310 -0.4658 -0.0960  0.3664
 4716TIP3    H138343   1.814   0.488  14.248 -0.0403  1.0549 -0.4304
 4716TIP3    H238344   1.874   0.435  14.376 -2.1505 -0.1123  0.1179
 4717TIP3   OH238345   1.967   0.965  13.608 -0.2338  0.4329 -0.2054
 4717TIP3    H138346   1.964   0.910  13.685 -2.4348 -0.6372 -0.9580
 4717TIP3    H238347   2.011   0.913  13.542 -1.3011 -0.0286 -0.5845
 4718TIP3   OH238348   7.883   5.516  14.514 -0.3793  0.0786  0.0865
 4718TIP3    H138349   7.799   5.485  14.482 -0.4716  1.5173 -1.1905
 4718TIP3    H238350   7.946   5.484  14.450 -0.4179  1.9741 -0.9717
 4719TIP3   OH238351   8.119   3.732  14.855 -0.2572 -0.1227 -0.3351
 4719TIP3    H138352   8.117   3.826  14.838 -1.3762 -0.1008 -0.1895
 4719TIP3    H238353   8.101   3.725  14.949 -4.7648 -0.5748 -1.0135
 4720TIP3   OH238354   4.890   4.827  14.290  0.1431 -0.3847 -0.1709
 4720TIP3    H138355   4.899   4.758  14.355  1.3269  0.2440  0.3740
 4720TIP3    H238356   4.857   4.902  14.340  0.8901  0.0488 -0.3145
 4721TIP3   OH238357   0.937   1.467  15.907  0.3619 -0.0291 -0.3767
 4721TIP3    H138358   0.977   1.380  15.911  1.3749  0.4057 -0.5850
 4721TIP3    H238359   0.942   1.491  15.815 -0.7170 -0.1044 -0.4579
 4722TIP3   OH238360   4.423   3.922  15.611  0.0887 -0.0248 -0.1191
 4722TIP3    H138361   4.378   3.838  15.617  0.7654 -0.3648  0.3322
 4722TIP3    H238362   4.353   3.987  15.611 -0.4200 -0.5639  0.1110
 4723TIP3   OH238363   5.083   3.757  15.627  0.0316  0.1598  0.0975
 4723TIP3    H138364   5.070   3.784  15.536  0.9890 -1.0420 -0.4179
 4723TIP3    H238365   5.157   3.810  15.658  1.2261 -1.0571 -0.5821
 4724TIP3   OH238366   2.239   4.093  14.922 -0.0966 -0.0966  0.4612
 4724TIP3    H138367   2.293   4.020  14.952 -1.0178 -0.7999  0.4256
 4724TIP3    H238368   2.290   4.171  14.945  0.9802 -0.7436  0.3341
 4725TIP3   OH238369   3.992   0.220  15.575 -0.5045  0.0099 -0.4561
 4725TIP3    H138370   3.924   0.196  15.511  0.9669 -0.9001 -1.7660
 4725TIP3    H238371   4.063   0.255  15.521  0.5880 -0.3053  0.7451
 4726TIP3   OH238372   7.855   2.712  16.058  0.0956 -0.4694  0.3473
 4726TIP3    H138373   7.815   2.632  16.092  0.2808 -0.9084 -0.4368
 4726TIP3    H238374   7.787   2.779  16.066 -1.2793 -1.4476 -2.0214
 4727TIP3   OH238375   2.052   5.540  15.348 -0.2865 -0.4801  0.0575
 4727TIP3    H138376   2.025   5.485  15.421 -0.5564 -0.7113 -0.2141
 4727TIP3    H238377   1.981   5.531  15.284  0.8131 -1.7840 -1.0455
 4728TIP3   OH238378   5.584   3.812  16.055  0.4058 -0.2313  0.7549
 4728TIP3    H138379   5.608   3.726  16.090  0.2422 -0.7130 -0.2737
 4728TIP3    H238380   5.591   3.871  16.130 -1.1724 -1.4200  1.9237
 4729TIP3   OH238381   1.371   6.385  14.325 -0.1370  0.2184 -0.5420
 4729TIP3    H138382   1.348   6.334  14.248 -0.3126 -1.7789  0.7361
 4729TIP3    H238383   1.451   6.343  14.358 -1.2116 -0.3916  1.5034
 4730TIP3   OH238384   4.803   4.020  14.247  0.8450 -0.1289  0.0530
 4730TIP3    H138385   4.853   4.093  14.213 -2.4110  1.3543 -2.0753
 4730TIP3    H238386   4.774   3.972  14.169  2.8376 -3.8622  1.3368
 4731TIP3   OH238387   7.185   7.375  14.177  0.1857  0.5904 -0.0209
 4731TIP3    H138388   7.252   7.307  14.167  0.6713  1.1345 -0.5496
 4731TIP3    H238389   7.115   7.332  14.227  1.1238  0.1593  0.9603
 4732TIP3   OH238390   2.149   1.302  15.121 -0.5774  0.0775 -0.5308
 4732TIP3    H138391   2.112   1.390  15.113  0.7767  0.6659 -0.5683
 4732TIP3    H238392   2.232   1.306  15.074 -0.1186 -0.9933  0.1516
 4733TIP3   OH238393   5.343   0.522  14.821  0.5482 -0.2125 -0.3494
 4733TIP3    H138394   5.369   0.612  14.806  1.3180 -0.5346 -1.0294
 4733TIP3    H238395   5.418   0.481  14.864  0.1333 -0.4875  0.1349
 4734TIP3   OH238396   2.596   2.812  15.619 -1.0150 -0.6895 -0.1194
 4734TIP3    H138397   2.635   2.892  15.585  2.4748 -1.3595  1.8447
 4734TIP3    H238398   2.562   2.836  15.705  1.3756 -1.4558  1.1392
 4735TIP3   OH238399   1.956   4.723  14.529 -0.1080 -0.0162  0.1270
 4735TIP3    H138400   1.882   4.733  14.588 -0.3079 -2.4643  0.3918
 4735TIP3    H238401   1.917   4.700  14.445  0.3117 -0.6368  0.0950
 4736TIP3   OH238402   5.643   4.394  15.139 -0.1111  0.5559  0.7038
 4736TIP3    H138403   5.716   4.453  15.159  0.1937  0.7822 -0.9214
 4736TIP3    H238404   5.596   4.439  15.068 -1.1307 -0.1583  0.9149
 4737TIP3   OH238405   3.991   4.188  14.315 -0.2079  0.4768  0.5480
 4737TIP3    H138406   3.958   4.201  14.227 -0.3868 -0.8489  0.4000
 4737TIP3    H238407   3.931   4.238  14.371  0.7349  2.5304 -0.1481
 4738TIP3   OH238408   6.421   2.451  15.933  0.2587  1.0186 -0.1271
 4738TIP3    H138409   6.405   2.359  15.957  1.8797  1.0196  1.1307
 4738TIP3    H238410   6.371   2.501  15.998  1.5448  1.0084  0.8995
 4739TIP3   OH238411   7.350   0.241  14.616 -0.2073 -0.1733 -0.1673
 4739TIP3    H138412   7.358   0.337  14.612  2.5405 -0.0542  3.7052
 4739TIP3    H238413   7.375   0.212  14.528 -1.1922  2.5717 -1.4928
 4740TIP3   OH238414   2.985   5.372  14.848 -0.5389  0.1715  0.1433
 4740TIP3    H138415   2.966   5.305  14.914  1.8455  1.1184  1.9337
 4740TIP3    H238416   2.979   5.455  14.895 -0.5832  1.0259 -1.3058
 4741TIP3   OH238417   6.859   4.819  14.146 -0.4223  0.7333  0.0271
 4741TIP3    H138418   6.954   4.824  14.134 -0.3795  0.2048  0.1690
 4741TIP3    H238419   6.824   4.837  14.058 -0.2859  3.6904  0.4786
 4742TIP3   OH238420   2.144   0.750  15.939  0.3679 -0.7352  0.4662
 4742TIP3    H138421   2.217   0.689  15.953 -0.1154 -1.6819 -0.8995
 4742TIP3    H238422   2.180   0.816  15.880  0.6892 -0.0427  1.4069
 4743TIP3   OH238423   2.651   6.891  14.416 -0.2010  0.1884 -0.4916
 4743TIP3    H138424   2.662   6.985  14.403  1.7912 -0.0195 -0.6816
 4743TIP3    H238425   2.669   6.877  14.509  2.4930 -0.2921 -1.0042
 4744TIP3   OH238426   4.654   5.976  14.587  0.6564 -0.6225  0.1464
 4744TIP3    H138427   4.590   5.905  14.580  0.7375 -0.7310  0.4631
 4744TIP3    H238428   4.698   5.978  14.502 -0.2894 -0.0391 -0.3524
 4745TIP3   OH238429   0.642   4.521  14.952  0.2776 -0.3367 -0.5447
 4745TIP3    H138430   0.618   4.613  14.954  0.9261 -0.1224  2.7728
 4745TIP3    H238431   0.737   4.521  14.967 -0.1273 -1.5204  2.7357
 4746TIP3   OH238432   2.757   2.819  15.295  0.7829 -0.0733  0.2756
 4746TIP3    H138433   2.848   2.789  15.300  1.3283  1.1341 -1.6100
 4746TIP3    H238434   2.717   2.763  15.228  0.4418  0.1245  0.3123
 4747TIP3   OH238435   3.663   8.310  15.164 -0.4551 -0.0244  0.9665
 4747TIP3    H138436   3.691   8.359  15.087 -1.8202 -2.1046 -0.9828
 4747TIP3    H238437   3.742   8.267  15.196 -0.2960 -1.2600 -0.9523
 4748TIP3   OH238438   2.645   0.580  15.865 -0.1104  1.0843  0.2540
 4748TIP3    H138439   2.684   0.505  15.909  0.2006  1.8448  1.3038
 4748TIP3    H238440   2.719   0.627  15.826  0.0194  2.2539  1.8251
 4749TIP3   OH238441   0.530   1.828  15.696 -0.3812 -0.2816  0.0793
 4749TIP3    H138442   0.610   1.797  15.738  0.0201 -0.0796 -0.5149
 4749TIP3    H238443   0.462   1.815  15.761  0.3706  0.9098  1.1569
 4750TIP3   OH238444   0.662   8.265  16.300  0.4761 -0.3207  0.0437
 4750TIP3    H138445   0.605   8.228  16.233 -0.2216  0.4934  0.1657
 4750TIP3    H238446   0.602   8.307  16.362  1.2107  0.9524 -0.0737
 4751TIP3   OH238447   8.332   5.793  15.027 -0.0739  0.2548 -0.5277
 4751TIP3    H138448   8.300   5.703  15.030 -2.5907  1.0714 -0.6478
 4751TIP3    H238449   8.330   5.816  14.934 -1.7471  1.1392 -0.3103
 4752TIP3   OH238450   2.719   3.882  15.434 -0.1059 -0.3105  0.3633
 4752TIP3    H138451   2.759   3.953  15.384 -1.5248 -0.0482 -0.4424
 4752TIP3    H238452   2.769   3.879  15.515  1.1422  0.3964 -0.3508
 4753TIP3   OH238453   1.624   2.902  14.474 -0.1246 -0.0865 -0.5930
 4753TIP3    H138454   1.667   2.891  14.559 -1.4435 -0.1463  0.0970
 4753TIP3    H238455   1.695   2.920  14.413  0.8921 -0.4764  0.4467
 4754TIP3   OH238456   0.616   1.259  14.674 -0.3527 -0.3278  0.9621
 4754TIP3    H138457   0.552   1.191  14.693 -2.1104  0.9866  0.0487
 4754TIP3    H238458   0.592   1.332  14.732 -2.3145  1.6671 -2.0843
 4755TIP3   OH238459   4.650   1.576  14.969  0.4229  0.1708  0.1921
 4755TIP3    H138460   4.612   1.490  14.988 -3.3059  1.6204  0.1485
 4755TIP3    H238461   4.690   1.604  15.051  2.2244 -1.7421  0.0505
 4756TIP3   OH238462   3.160   0.914  16.001  0.1775 -0.0630  0.0524
 4756TIP3    H138463   3.159   0.841  15.939 -2.0436 -1.4827  1.6141
 4756TIP3    H238464   3.090   0.972  15.971  1.5719  1.2189 -0.8641
 4757TIP3   OH238465   4.277   3.226  15.441 -0.2582  0.2521 -0.5900
 4757TIP3    H138466   4.237   3.297  15.391  0.6377  0.2584 -1.3347
 4757TIP3    H238467   4.371   3.237  15.427 -0.0279 -0.2729  0.4045
 4758TIP3   OH238468   0.200   6.933  16.058 -0.0426  0.0054 -0.4959
 4758TIP3    H138469   0.242   6.906  16.139  0.0223  0.8708 -0.2300
 4758TIP3    H238470   0.255   6.897  15.989 -0.2221 -0.9294 -0.1608
 4759TIP3   OH238471   7.646   0.204  14.648 -0.0063 -0.1782  0.0356
 4759TIP3    H138472   7.578   0.269  14.665 -1.4598 -1.3853 -0.8902
 4759TIP3    H238473   7.667   0.167  14.734  0.7298  1.3599  0.5513
 4760TIP3   OH238474   6.881   0.035  15.823  0.1470 -0.0571 -0.1772
 4760TIP3    H138475   6.858   0.004  15.910 -0.0210  2.5750  0.8048
 4760TIP3    H238476   6.974   0.014  15.813  0.2950  0.0925  0.8566
 4761TIP3   OH238477   2.245   1.121  15.310 -0.2503 -0.1329  0.7439
 4761TIP3    H138478   2.229   1.185  15.240  0.0242  0.6644  1.3929
 4761TIP3    H238479   2.181   1.143  15.378 -1.0870 -1.4465  0.4123
 4762TIP3   OH238480   7.215   8.184  15.178 -0.2075 -0.3675  0.0773
 4762TIP3    H138481   7.174   8.104  15.209 -1.8460  0.0397 -0.9220
 4762TIP3    H238482   7.188   8.192  15.087  3.2713 -0.7672 -1.1332
 4763TIP3   OH238483   1.273   2.941  15.628  0.0599 -0.3818  0.2352
 4763TIP3    H138484   1.242   3.017  15.578  1.2358  0.0415  0.1190
 4763TIP3    H238485   1.344   2.905  15.575 -1.0743 -2.1437 -0.1670
 4764TIP3   OH238486   1.788   0.444  15.476  0.1085 -0.0154 -0.6846
 4764TIP3    H138487   1.789   0.476  15.386 -0.2607 -1.0607 -1.0712
 4764TIP3    H238488   1.712   0.386  15.481  0.1223  0.0264  0.2975
 4765TIP3   OH238489   1.155   1.593  14.810  0.0687  0.4306  0.4735
 4765TIP3    H138490   1.141   1.526  14.743  2.6340  0.8672 -0.6182
 4765TIP3    H238491   1.090   1.574  14.877 -1.1229 -1.4046 -1.1127
 4766TIP3   OH238492   1.422   5.662  14.903 -0.3983 -0.8737  0.4521
 4766TIP3    H138493   1.502   5.614  14.882 -2.1507 -3.4485 -0.9865
 4766TIP3    H238494   1.451   5.738  14.953  2.8388 -2.0732  0.6013
 4767TIP3   OH238495   4.069   5.358  13.923 -1.0142 -0.0636 -0.1111
 4767TIP3    H138496   4.139   5.423  13.917 -0.3927 -0.7567 -0.4967
 4767TIP3    H238497   4.111   5.275  13.900 -1.5795 -0.7630  1.2903
 4768TIP3   OH238498   4.087   4.910  15.413  0.3737  0.1053  0.0526
 4768TIP3    H138499   4.146   4.911  15.488 -0.1761  0.7532  0.4842
 4768TIP3    H238500   4.063   4.818  15.404 -0.2855  0.1239  1.2750
 4769TIP3   OH238501   4.494   2.835  14.603  0.2651  0.2565 -0.4962
 4769TIP3    H138502   4.452   2.894  14.541 -2.4104  0.5070  1.3868
 4769TIP3    H238503   4.514   2.890  14.679  0.4170 -0.6760  0.1578
 4770TIP3   OH238504   5.696   2.758  14.143 -0.2038  0.0417 -0.3396
 4770TIP3    H138505   5.620   2.706  14.168 -0.3272 -0.0963 -0.9750
 4770TIP3    H238506   5.659   2.843  14.119 -0.0166  0.3913  0.5732
 4771TIP3   OH238507   5.582   2.295  15.986 -0.1423 -0.0487 -0.0154
 4771TIP3    H138508   5.569   2.371  15.929 -1.5100 -0.6474 -0.5553
 4771TIP3    H238509   5.543   2.222  15.938 -1.1509 -0.6152  1.5752
 4772TIP3   OH238510   2.184   7.082  15.389  0.5641  0.1117  0.6121
 4772TIP3    H138511   2.223   7.167  15.410  0.5508  0.3843 -0.4375
 4772TIP3    H238512   2.091   7.099  15.381  0.6777  0.2208 -0.6330
 4773TIP3   OH238513   1.088   4.415  15.622  0.1932  0.1917  0.5956
 4773TIP3    H138514   1.111   4.323  15.611 -1.2314 -0.3108  1.5848
 4773TIP3    H238515   1.069   4.446  15.533 -1.5283 -1.1125  0.4557
 4774TIP3   OH238516   6.730   1.074  13.940 -0.1649  0.3075  0.3524
 4774TIP3    H138517   6.760   1.142  13.880 -0.5560  1.4670  1.4187
 4774TIP3    H238518   6.637   1.093  13.954 -0.6909 -1.3783 -0.5010
 4775TIP3   OH238519   7.168   0.076  16.211  0.5164  0.2857 -0.3767
 4775TIP3    H138520   7.210   0.130  16.143 -1.2586  0.5749 -1.2838
 4775TIP3    H238521   7.097   0.131  16.245  1.2921  0.1059  1.6881
 4776TIP3   OH238522   5.698   6.730  14.052  0.2009  0.0993 -0.1365
 4776TIP3    H138523   5.619   6.775  14.024  1.2488  1.1161 -1.6045
 4776TIP3    H238524   5.675   6.692  14.137 -2.0769 -0.3026 -0.8669
 4777TIP3   OH238525   5.756   2.539  14.571 -0.0357  0.3587  0.6237
 4777TIP3    H138526   5.807   2.545  14.491 -0.7475  0.5381  0.1682
 4777TIP3    H238527   5.780   2.455  14.610 -0.9514 -0.5508 -0.6821
 4778TIP3   OH238528   5.720   6.542  15.288  0.4382 -0.0366 -0.3604
 4778TIP3    H138529   5.800   6.519  15.336 -0.2368 -0.1580  0.7480
 4778TIP3    H238530   5.732   6.634  15.265  1.6818 -0.5379 -1.8330
 4779TIP3   OH238531   3.808   7.556  14.405 -0.2848  0.1066 -0.1108
 4779TIP3    H138532   3.880   7.565  14.468  0.8153 -1.3759 -1.1013
 4779TIP3    H238533   3.785   7.463  14.409 -1.3209  0.3345 -0.7047
 4780TIP3   OH238534   5.221   0.493  15.992  0.5848 -0.4873 -0.5889
 4780TIP3    H138535   5.255   0.404  15.984 -0.5715 -0.9077 -1.1010
 4780TIP3    H238536   5.207   0.505  16.086  3.2623  0.1748 -0.1975
 4781TIP3   OH238537   1.722   5.337  15.983  0.0397 -0.4362 -0.3889
 4781TIP3    H138538   1.672   5.359  15.904  0.7157 -0.1613 -0.7457
 4781TIP3    H238539   1.669   5.373  16.055  0.2555  0.8564 -0.8384
 4782TIP3   OH238540   3.355   7.637  15.673  0.2475 -0.0382  0.2746
 4782TIP3    H138541   3.425   7.699  15.692  0.5660  0.7128 -2.7450
 4782TIP3    H238542   3.399   7.564  15.629 -0.6068 -0.5041  0.1668
 4783TIP3   OH238543   6.493   7.027  14.268 -0.2486 -0.2004 -0.1224
 4783TIP3    H138544   6.520   7.063  14.183 -1.2565 -0.6768 -0.6605
 4783TIP3    H238545   6.495   6.932  14.255 -2.1429 -0.2580 -0.1968
 4784TIP3   OH238546   4.867   2.689  14.606 -0.3171  0.9276  0.0284
 4784TIP3    H138547   4.926   2.615  14.595 -1.3929 -0.0577  0.6190
 4784TIP3    H238548   4.873   2.710  14.700  1.2424  2.7236 -0.4072
 4785TIP3   OH238549   7.032   3.508  15.853  0.0590  0.0137  0.3614
 4785TIP3    H138550   6.963   3.475  15.796 -1.0425 -0.3903  1.8530
 4785TIP3    H238551   7.027   3.453  15.931  2.7004 -0.6246  0.1880
 4786TIP3   OH238552   5.319   7.083  14.714  0.1303  0.1010 -0.4966
 4786TIP3    H138553   5.299   7.004  14.666 -0.1768  0.3455 -0.7702
 4786TIP3    H238554   5.397   7.061  14.766 -0.7985 -0.8220  0.5324
 4787TIP3   OH238555   1.273   4.894  14.770  0.1004  0.0981 -0.4287
 4787TIP3    H138556   1.233   4.957  14.830 -0.6608  1.0951 -1.9284
 4787TIP3    H238557   1.268   4.810  14.817  0.4606  1.0062  1.3007
 4788TIP3   OH238558   7.585   2.311  15.219  0.8682  0.1969 -0.1788
 4788TIP3    H138559   7.507   2.300  15.274  0.4603 -0.0153 -0.7845
 4788TIP3    H238560   7.658   2.291  15.277  0.4850  0.5380  0.4435
 4789TIP3   OH238561   1.134   4.452  13.822  0.8272  0.7501  0.5876
 4789TIP3    H138562   1.159   4.365  13.789 -0.7889  0.6480 -0.4747
 4789TIP3    H238563   1.046   4.440  13.858  0.1066  2.1651 -0.6110
 4790TIP3   OH238564   6.534   3.537  15.984  0.0228  0.0215 -0.5496
 4790TIP3    H138565   6.516   3.448  15.954 -0.0462  0.5283 -2.0808
 4790TIP3    H238566   6.505   3.593  15.912  2.0559  1.1905 -0.5266
 4791TIP3   OH238567   0.409   2.789  15.721 -0.2875 -0.3308  0.5133
 4791TIP3    H138568   0.395   2.874  15.763 -0.7461 -0.7793  1.2950
 4791TIP3    H238569   0.408   2.808  15.627  1.7256  0.8533  0.6755
 4792TIP3   OH238570   4.818   3.664  14.950 -0.3241  0.0165  0.4045
 4792TIP3    H138571   4.832   3.680  14.856 -0.7129  2.6667  0.7035
 4792TIP3    H238572   4.724   3.647  14.957 -0.4014  0.4000  0.3534
 4793TIP3   OH238573   4.787   7.750  15.927 -0.1696 -0.4046  0.4459
 4793TIP3    H138574   4.773   7.671  15.874 -0.9216 -0.1595  0.2663
 4793TIP3    H238575   4.882   7.760  15.930 -0.0796 -1.0668  0.0982
 4794TIP3   OH238576   7.578   2.176  15.773 -0.0525  0.3736 -0.0565
 4794TIP3    H138577   7.658   2.132  15.744  0.4326  0.9703  0.3434
 4794TIP3    H238578   7.608   2.263  15.799 -0.5635  0.0390  1.7212
 4795TIP3   OH238579   1.429   2.500  15.882 -0.0902  0.0888 -0.1424
 4795TIP3    H138580   1.441   2.553  15.803 -2.4224 -1.1814 -1.4799
 4795TIP3    H238581   1.347   2.532  15.920 -1.8034 -2.5860 -1.2118
 4796TIP3   OH238582   6.471   2.112  15.854 -0.2629 -0.2636  0.2359
 4796TIP3    H138583   6.382   2.092  15.884  0.2070 -1.0809  1.1432
 4796TIP3    H238584   6.506   2.029  15.823 -0.1212  0.2371 -0.9936
 4797TIP3   OH238585   7.576   6.042  14.324  0.5369 -0.2730  0.2075
 4797TIP3    H138586   7.590   6.004  14.237  0.0847  1.0253 -0.4618
 4797TIP3    H238587   7.619   6.128  14.320  1.8958 -0.8126  1.8090
 4798TIP3   OH238588   6.060   7.111  16.003 -0.2586  0.2215 -0.3964
 4798TIP3    H138589   6.132   7.172  15.985  0.4343 -0.0824  1.2252
 4798TIP3    H238590   6.103   7.032  16.035 -1.3196  0.4781  1.8672
 4799TIP3   OH238591   8.146   4.732  14.500 -0.4866  0.0284  0.4939
 4799TIP3    H138592   8.241   4.718  14.505 -0.7698 -1.5619  2.1962
 4799TIP3    H238593   8.124   4.711  14.409  0.4542 -2.1122  0.7079
 4800TIP3   OH238594   4.352   1.229  13.889 -0.8600 -0.0161  0.3098
 4800TIP3    H138595   4.260   1.250  13.903 -1.0429 -1.5465  1.6853
 4800TIP3    H238596   4.395   1.314  13.878 -2.0136  0.9008  2.4023
 4801TIP3   OH238597   7.419   3.712  15.632 -0.2150  0.8559 -0.0156
 4801TIP3    H138598   7.478   3.638  15.648 -1.4644 -0.4413 -1.1706
 4801TIP3    H238599   7.371   3.723  15.714  0.7774  1.1613  0.5419
 4802TIP3   OH238600   2.579   7.356  15.694 -0.7688 -0.1868 -0.0281
 4802TIP3    H138601   2.487   7.352  15.721 -0.9393 -0.6128 -0.6536
 4802TIP3    H238602   2.617   7.274  15.725 -1.2657 -1.2569 -2.1045
 4803TIP3   OH238603   0.391   5.140  13.883 -0.1626 -0.0748  0.2032
 4803TIP3    H138604   0.335   5.196  13.937  0.0307 -0.9108  1.2973
 4803TIP3    H238605   0.479   5.159  13.913  0.2960  1.8438 -2.0706
 4804TIP3   OH238606   7.054   3.796  14.780  0.1144 -0.2793 -0.3141
 4804TIP3    H138607   6.993   3.865  14.753 -0.7301 -1.4298 -1.4923
 4804TIP3    H238608   7.074   3.817  14.871  1.5860  2.6991 -1.2081
 4805TIP3   OH238609   1.492   2.286  14.742 -0.7217  0.3018 -0.0196
 4805TIP3    H138610   1.448   2.266  14.659 -3.3819 -1.3928  1.6410
 4805TIP3    H238611   1.428   2.336  14.792  0.7863  1.2004  1.1130
 4806TIP3   OH238612   7.711   3.183  14.443  0.2942  0.0452  0.2516
 4806TIP3    H138613   7.732   3.144  14.359 -1.6536  1.3431 -0.9283
 4806TIP3    H238614   7.661   3.262  14.421  0.4250  0.8615  2.6107
 4807TIP3   OH238615   4.498   7.474  15.664  0.0921  0.4542 -0.3744
 4807TIP3    H138616   4.487   7.454  15.756  0.3641 -0.8028 -0.5978
 4807TIP3    H238617   4.416   7.517  15.638  0.5009  1.9804  0.7186
 4808TIP3   OH238618   3.362   2.323  13.765  0.3781 -0.1566 -0.4360
 4808TIP3    H138619   3.386   2.384  13.695 -0.2245  0.1571 -0.3778
 4808TIP3    H238620   3.366   2.237  13.725  0.8332 -0.0459 -0.6333
 4809TIP3   OH238621   0.823   5.991  14.866 -0.0466  0.2801 -0.7722
 4809TIP3    H138622   0.853   6.039  14.943  0.6631  1.7917 -1.9335
 4809TIP3    H238623   0.802   5.904  14.898 -0.8992  1.2128  1.3377
 4810TIP3   OH238624   0.180   5.004  15.791  0.0101  0.6659  0.4818
 4810TIP3    H138625   0.211   4.943  15.857  0.5153  1.0557  0.6107
 4810TIP3    H238626   0.165   5.086  15.838 -1.2692  0.4884  0.4341
 4811TIP3   OH238627   8.412   3.745  14.853  0.3457  0.1320  0.1834
 4811TIP3    H138628   8.454   3.821  14.895  1.3131  0.4052 -1.2153
 4811TIP3    H238629   8.319   3.765  14.855  0.4473  0.5771  1.3223
 4812TIP3   OH238630   5.938   7.854  14.787  0.1387  0.4593 -0.4163
 4812TIP3    H138631   5.887   7.917  14.736  1.6993  0.9341 -1.4572
 4812TIP3    H238632   5.877   7.824  14.854 -2.2790 -0.7583 -2.9402
 4813TIP3   OH238633   2.140   3.494  14.234 -0.2036  0.4943  0.5658
 4813TIP3    H138634   2.147   3.440  14.312  1.7945  1.1638  0.9001
 4813TIP3    H238635   2.160   3.435  14.162 -0.5348  0.2252  0.6903
 4814TIP3   OH238636   6.904   2.995  15.096  0.0019 -0.2630 -0.5723
 4814TIP3    H138637   6.815   3.010  15.128  0.2362  1.5360 -0.6648
 4814TIP3    H238638   6.929   2.911  15.134 -1.1291 -0.0135  0.8181
 4815TIP3   OH238639   5.639   4.019  15.690 -0.1456 -0.5697 -0.1401
 4815TIP3    H138640   5.587   4.097  15.708  0.3952 -0.6970  2.4960
 4815TIP3    H238641   5.587   3.947  15.724  0.1813 -1.1363 -0.8188
 4816TIP3   OH238642   3.746   1.854  15.103 -0.4792 -0.1100  0.0665
 4816TIP3    H138643   3.698   1.793  15.047 -0.8555  1.7479 -1.7770
 4816TIP3    H238644   3.691   1.933  15.105  1.3054  1.2185 -0.1094
 4817TIP3   OH238645   6.703   0.354  15.605 -0.3347  0.0463 -0.3553
 4817TIP3    H138646   6.680   0.434  15.558  0.8482 -0.1775 -1.3616
 4817TIP3    H238647   6.705   0.380  15.697 -0.1361  1.1368 -0.6510
 4818TIP3   OH238648   4.143   3.787  14.293  0.6799  0.4321 -0.3345
 4818TIP3    H138649   4.101   3.856  14.242  0.6017  0.7466  0.1569
 4818TIP3    H238650   4.174   3.725  14.227 -2.3236 -0.8858 -0.7170
 4819TIP3   OH238651   8.446   0.239  15.155 -0.0042 -0.0415 -0.2190
 4819TIP3    H138652   8.478   0.236  15.245 -0.3327 -0.0410 -0.1007
 4819TIP3    H238653   8.521   0.268  15.104 -0.0851  0.8833  0.1772
 4820TIP3   OH238654   6.801   4.703  15.142 -0.1218  0.1230 -0.2772
 4820TIP3    H138655   6.722   4.707  15.196 -0.6668  0.2339 -1.0557
 4820TIP3    H238656   6.811   4.609  15.122  0.9895 -0.1233  1.2932
 4821TIP3   OH238657   4.472   1.778  14.826  0.1843 -0.2108 -0.2107
 4821TIP3    H138658   4.392   1.798  14.874  0.1168  1.8846 -1.1251
 4821TIP3    H238659   4.522   1.722  14.886 -1.4194 -0.5803  0.8522
 4822TIP3   OH238660   0.682   1.303  15.343  0.1271  0.3805  0.3122
 4822TIP3    H138661   0.768   1.274  15.314 -0.0328 -1.6994  1.6929
 4822TIP3    H238662   0.659   1.243  15.414 -2.2750  1.1395  0.2690
 4823TIP3   OH238663   4.744   0.591  14.017 -0.6705  0.7884  0.0886
 4823TIP3    H138664   4.792   0.659  14.063  0.4825  0.5068 -0.6557
 4823TIP3    H238665   4.670   0.637  13.976 -0.5256  1.3879  0.4949
 4824TIP3   OH238666   0.315   7.794  14.805  0.3259  0.1375  0.0074
 4824TIP3    H138667   0.402   7.795  14.765 -0.2817 -1.0289 -1.4576
 4824TIP3    H238668   0.319   7.860  14.874  1.4083  2.4996 -2.1504
 4825TIP3   OH238669   5.219   6.363  15.474 -0.1255 -0.0593 -0.2875
 4825TIP3    H138670   5.287   6.303  15.442 -0.8364 -0.5318 -0.9601
 4825TIP3    H238671   5.252   6.393  15.558  0.5728 -0.8719 -0.2477
 4826TIP3   OH238672   5.418   4.052  15.066 -0.3144  0.1491 -0.2041
 4826TIP3    H138673   5.452   4.121  15.009  0.7859 -1.2482 -1.3255
 4826TIP3    H238674   5.431   3.971  15.016 -0.2453 -1.0394  1.6411
 4827TIP3   OH238675   2.232   3.114  15.390 -0.1983 -0.1634 -0.4538
 4827TIP3    H138676   2.278   3.033  15.410  0.3536  0.2918  0.1544
 4827TIP3    H238677   2.287   3.183  15.427 -1.2776  0.4026  0.1469
 4828TIP3   OH238678   1.573   5.763  14.257 -0.0389 -0.6733 -0.0704
 4828TIP3    H138679   1.605   5.685  14.303 -0.0417  1.1170  3.2285
 4828TIP3    H238680   1.645   5.825  14.262 -0.1964 -0.2254 -2.2796
 4829TIP3   OH238681   1.076   6.513  15.395  0.1838  0.2628  0.2272
 4829TIP3    H138682   1.070   6.515  15.491  0.1740  2.7383  0.2532
 4829TIP3    H238683   1.148   6.574  15.375 -1.1974  1.4662 -1.3692
 4830TIP3   OH238684   0.872   6.724  15.233  0.4753  0.7730  1.0555
 4830TIP3    H138685   0.947   6.714  15.292  0.2857  1.6208  1.4417
 4830TIP3    H238686   0.853   6.817  15.233  0.3942  0.7704 -0.2685
 4831TIP3   OH238687   0.264   7.963  15.256  0.0143  0.5553 -0.8255
 4831TIP3    H138688   0.295   7.874  15.277  0.5634  0.9347  0.0575
 4831TIP3    H238689   0.333   7.999  15.201  2.6244  2.2697  3.1045
 4832TIP3   OH238690   1.476   3.254  15.179  0.1537 -0.7140 -0.5210
 4832TIP3    H138691   1.555   3.299  15.148  0.0063  1.0802  1.4324
 4832TIP3    H238692   1.408   3.281  15.119  0.0868  1.7967  0.5485
 4833TIP3   OH238693   7.219   0.736  16.138 -0.1363 -0.0845  0.0008
 4833TIP3    H138694   7.268   0.669  16.089  0.0776  0.6694 -0.8458
 4833TIP3    H238695   7.165   0.687  16.199 -0.5537 -1.0780 -1.1299
 4834TIP3   OH238696   2.172   3.280  14.474  0.0565  0.3226 -0.1297
 4834TIP3    H138697   2.259   3.317  14.461  0.6633 -0.7398  0.7062
 4834TIP3    H238698   2.156   3.289  14.568 -1.1443  1.3261 -0.4000
 4835TIP3   OH238699   7.021   1.320  14.796  0.3853  0.3516  1.0237
 4835TIP3    H138700   7.043   1.410  14.772 -0.1640  0.8422  2.2852
 4835TIP3    H238701   7.001   1.324  14.889 -1.8387 -0.6589  0.6443
 4836TIP3   OH238702   0.072   8.296  14.440 -0.0107 -0.5267  0.3079
 4836TIP3    H138703   0.106   8.258  14.521 -1.3769 -1.3741  0.5207
 4836TIP3    H238704   0.083   8.390  14.450  0.6472 -0.6798  1.0893
 4837TIP3   OH238705   0.783   5.722  14.696 -0.2933 -0.1811 -0.4019
 4837TIP3    H138706   0.754   5.667  14.769  0.6063  0.4666  0.4772
 4837TIP3    H238707   0.856   5.674  14.657  0.3295  0.2449  0.2093
 4838TIP3   OH238708   5.676   1.824  15.798 -0.1391 -0.0450  0.4403
 4838TIP3    H138709   5.681   1.751  15.737 -0.9702  0.2212  0.0469
 4838TIP3    H238710   5.601   1.804  15.854 -2.6457  2.1111 -1.8638
 4839TIP3   OH238711   0.704   7.077  15.599 -0.3246 -0.1900 -0.2117
 4839TIP3    H138712   0.656   7.016  15.543 -1.7989  1.1495 -0.4566
 4839TIP3    H238713   0.686   7.163  15.563 -1.3569  0.7430  2.3062
 4840TIP3   OH238714   3.912   6.361  15.277 -0.0030 -0.1318  0.4711
 4840TIP3    H138715   3.920   6.357  15.182 -0.6735  0.6081  0.3684
 4840TIP3    H238716   4.001   6.345  15.309 -0.2862 -3.6651 -0.1155
 4841TIP3   OH238717   6.214   5.219  14.300 -0.4549 -0.1562  0.6234
 4841TIP3    H138718   6.186   5.172  14.222 -1.4054  1.3617  0.0070
 4841TIP3    H238719   6.212   5.153  14.370  1.6346 -1.8530 -0.8125
 4842TIP3   OH238720   6.789   1.620  14.600 -0.0732 -0.1322 -0.0563
 4842TIP3    H138721   6.742   1.700  14.575 -0.5774 -0.6264 -0.7425
 4842TIP3    H238722   6.861   1.614  14.537  0.2522  0.0371  0.2994
 4843TIP3   OH238723   5.470   0.107  15.189  0.3899  0.0556  0.0949
 4843TIP3    H138724   5.462   0.057  15.107 -1.7385  1.9806 -0.9712
 4843TIP3    H238725   5.479   0.040  15.256  3.6264 -1.6047 -1.7176
 4844TIP3   OH238726   2.411   2.229  15.380 -0.4385 -0.1387  0.1753
 4844TIP3    H138727   2.338   2.235  15.442  0.4579 -0.0497  1.2658
 4844TIP3    H238728   2.475   2.174  15.424  0.5835  0.6253 -0.3096
 4845TIP3   OH238729   2.021   8.392  14.692  0.1115 -0.0313 -0.0778
 4845TIP3    H138730   2.004   8.388  14.786  1.2705 -0.9526  0.1261
 4845TIP3    H238731   2.090   8.458  14.683 -0.7133  0.8145 -0.4285
 4846TIP3   OH238732   4.557   1.648  14.462 -0.1104 -0.2045  0.4009
 4846TIP3    H138733   4.548   1.721  14.524  2.1164  0.3736  0.1417
 4846TIP3    H238734   4.534   1.686  14.378  0.3150  0.0102  0.3769
 4847TIP3   OH238735   5.119   2.953  15.355 -0.2286  0.2613  0.1711
 4847TIP3    H138736   5.210   2.933  15.333 -0.2959 -1.7010  1.4150
 4847TIP3    H238737   5.120   3.045  15.382  1.9734 -0.4145  2.7760
 4848TIP3   OH238738   6.149   3.521  15.035 -1.0573  0.6604 -0.5919
 4848TIP3    H138739   6.150   3.555  14.946 -0.1249 -1.5850 -1.5080
 4848TIP3    H238740   6.110   3.434  15.028 -0.2145  0.0933  1.0416
 4849TIP3   OH238741   0.012   1.263  14.633  0.7154  0.2568  0.2507
 4849TIP3    H138742   0.103   1.248  14.661  1.3221 -0.8333 -2.0955
 4849TIP3    H238743   0.010   1.354  14.604  1.3753 -0.0488 -0.7736
 4850TIP3   OH238744   6.012   1.448  16.162 -0.1304 -0.0265  0.0332
 4850TIP3    H138745   6.005   1.409  16.075  0.0352  0.7828 -0.3518
 4850TIP3    H238746   5.925   1.482  16.181 -0.1153 -0.0251  0.1025
 4851TIP3   OH238747   4.494   0.937  14.949 -0.1391  0.5641 -0.2040
 4851TIP3    H138748   4.579   0.899  14.969 -0.9219 -0.7931  0.7601
 4851TIP3    H238749   4.456   0.879  14.883 -0.6233  0.7060 -0.0565
 4852TIP3   OH238750   3.435   0.158  13.783  0.5357 -0.2308  0.2046
 4852TIP3    H138751   3.407   0.084  13.837  1.3108  0.3739  1.4883
 4852TIP3    H238752   3.370   0.226  13.798  1.0016  0.0991  0.7472
 4853TIP3   OH238753   5.114   1.399  14.906  0.2949  0.5918 -0.0551
 4853TIP3    H138754   5.122   1.486  14.867 -2.5441  1.2593  0.6638
 4853TIP3    H238755   5.023   1.393  14.934  0.9477 -1.7857  1.9275
 4854TIP3   OH238756   4.605   3.281  16.094 -0.1761  0.3960  0.7711
 4854TIP3    H138757   4.672   3.349  16.104 -0.3523  0.6211  0.4446
 4854TIP3    H238758   4.597   3.243  16.182  0.1038  0.6305  0.9021
 4855TIP3   OH238759   3.747   0.429  14.645 -0.4493  0.5068  0.4385
 4855TIP3    H138760   3.823   0.386  14.685 -0.7423  0.2838  0.7699
 4855TIP3    H238761   3.779   0.515  14.618  0.0289  0.2565  0.1916
 4856TIP3   OH238762   3.164   5.291  15.265 -0.2226 -0.5755  0.0565
 4856TIP3    H138763   3.098   5.358  15.283  1.2501  0.7472  0.8008
 4856TIP3    H238764   3.205   5.274  15.350 -1.0945 -3.1067  0.0726
 4857TIP3   OH238765   5.368   3.157  15.640 -0.2162  0.2866  0.3818
 4857TIP3    H138766   5.353   3.103  15.717  1.0467  0.1998  0.5940
 4857TIP3    H238767   5.375   3.246  15.674  1.4834  0.1239  0.5598
 4858TIP3   OH238768   0.611   0.751  16.090 -0.3378 -0.0742 -0.2421
 4858TIP3    H138769   0.704   0.765  16.106 -0.4031 -1.1750  1.3165
 4858TIP3    H238770   0.574   0.839  16.082  1.0076  0.3796 -2.2612
 4859TIP3   OH238771   8.164   7.662  15.254  0.4013  0.2603 -0.3076
 4859TIP3    H138772   8.163   7.723  15.328  0.7909 -2.7236  2.3764
 4859TIP3    H238773   8.097   7.597  15.276  2.6422 -2.4544 -0.9256
 4860TIP3   OH238774   2.092   1.235  15.865  0.3251  0.3982  0.1445
 4860TIP3    H138775   2.040   1.288  15.926 -1.0886  0.1683 -0.8016
 4860TIP3    H238776   2.149   1.298  15.821 -1.0455  1.1257 -0.6721
 4861TIP3   OH238777   6.112   4.132  14.769 -0.2969 -0.7998 -0.4554
 4861TIP3    H138778   6.086   4.065  14.832 -0.0449 -0.1536  0.3577
 4861TIP3    H238779   6.033   4.150  14.719 -1.6715  1.4240  2.2342
 4862TIP3   OH238780   7.896   5.026  15.904 -0.3565 -0.0164 -0.3570
 4862TIP3    H138781   7.882   5.022  15.999 -0.9494 -0.7098 -0.4619
 4862TIP3    H238782   7.809   5.047  15.868 -0.3164 -0.5629 -0.7921
 4863TIP3   OH238783   0.461   0.370  13.724 -0.1528 -0.5155 -0.1169
 4863TIP3    H138784   0.525   0.317  13.771 -0.4897  0.0010  0.9414
 4863TIP3    H238785   0.382   0.368  13.778 -1.2408 -1.5678 -1.6458
 4864TIP3   OH238786   3.906   0.962  15.854 -0.1599 -0.2085  0.3074
 4864TIP3    H138787   3.848   1.037  15.870 -0.3178 -0.4440  0.8848
 4864TIP3    H238788   3.969   0.994  15.789  0.0078  0.5525  0.8267
 4865TIP3   OH238789   3.806   3.500  14.233  0.3961  0.1769 -0.0709
 4865TIP3    H138790   3.773   3.550  14.158  1.0936  2.3041  0.9625
 4865TIP3    H238791   3.879   3.449  14.197 -0.6097 -0.4874 -1.2471
 4866TIP3   OH238792   1.719   0.021  15.183 -0.1433  0.3424 -0.3150
 4866TIP3    H138793   1.674   0.079  15.244  0.1823  1.7078 -1.3181
 4866TIP3    H238794   1.662   0.016  15.107 -0.0686 -0.5037 -0.3251
 4867TIP3   OH238795   8.397   2.498  14.153 -0.5417 -0.2388 -0.5255
 4867TIP3    H138796   8.405   2.428  14.218 -1.3795  0.0511 -0.0906
 4867TIP3    H238797   8.414   2.454  14.069  1.6564 -0.3825 -0.0468
 4868TIP3   OH238798   6.566   5.728  15.799 -0.0614 -0.0806  0.7899
 4868TIP3    H138799   6.472   5.713  15.788 -0.1561  0.3900  0.9413
 4868TIP3    H238800   6.592   5.667  15.869 -0.1994 -0.3954  0.5695
 4869TIP3   OH238801   2.549   5.709  14.667  0.1516  0.5449 -0.3874
 4869TIP3    H138802   2.630   5.659  14.655  0.9264  2.1796 -2.4293
 4869TIP3    H238803   2.546   5.770  14.593 -3.3924  0.0094 -0.8701
 4870TIP3   OH238804   7.519   2.006  15.967  0.3256  0.0894  0.1454
 4870TIP3    H138805   7.426   2.023  15.981  0.8408  2.8240  0.7777
 4870TIP3    H238806   7.548   2.076  15.910  2.1784 -0.2169  0.6390
 4871TIP3   OH238807   5.653   4.164  14.336 -0.3614 -0.3763 -0.2152
 4871TIP3    H138808   5.573   4.217  14.338 -1.1140 -1.4692 -0.2062
 4871TIP3    H238809   5.686   4.174  14.247  0.4368  1.3998  0.2379
 4872TIP3   OH238810   1.973   1.774  15.770  0.6118  0.9950  0.6565
 4872TIP3    H138811   2.009   1.757  15.857 -1.8279  0.1850  1.5845
 4872TIP3    H238812   1.907   1.842  15.783 -0.2045  0.4524 -0.4239
 4873TIP3   OH238813   8.067   5.257  16.149  0.4275 -0.6142 -0.4674
 4873TIP3    H138814   8.091   5.349  16.132  0.5051 -0.9535 -2.3902
 4873TIP3    H238815   8.145   5.219  16.187 -0.1072  0.4602  1.8815
 4874TIP3   OH238816   2.440   7.547  15.146  0.5628  0.2093 -0.0772
 4874TIP3    H138817   2.421   7.576  15.235  2.3695  2.0743 -0.2365
 4874TIP3    H238818   2.390   7.466  15.136  0.6225 -0.2657  2.7538
 4875TIP3   OH238819   1.198   8.029  15.779  0.0730 -0.9395 -0.6907
 4875TIP3    H138820   1.248   7.947  15.776  0.3815 -0.8878  1.2363
 4875TIP3    H238821   1.112   8.002  15.813  0.9886 -0.2508  2.5913
 4876TIP3   OH238822   1.009   4.017  14.381 -0.7057  0.3888  0.5250
 4876TIP3    H138823   0.998   4.083  14.313 -0.1816  2.2811  2.1930
 4876TIP3    H238824   1.104   4.007  14.391 -0.6588 -2.7998 -1.6184
 4877TIP3   OH238825   8.175   1.656  14.070 -0.1189  0.2937 -0.4606
 4877TIP3    H138826   8.204   1.594  14.003  1.4982  0.9236 -0.3978
 4877TIP3    H238827   8.256   1.694  14.104 -0.9033  0.0954  1.7890
 4878TIP3   OH238828   7.847   1.156  14.284 -0.2054 -0.1317  0.3791
 4878TIP3    H138829   7.787   1.179  14.356 -1.8686 -2.2484 -0.2238
 4878TIP3    H238830   7.805   1.082  14.241  0.6857  1.1118 -2.8956
 4879TIP3   OH238831   3.346   2.354  15.928  0.5989  0.3055 -0.6972
 4879TIP3    H138832   3.320   2.437  15.887  1.2154 -0.0129 -1.7767
 4879TIP3    H238833   3.402   2.380  16.001  0.1856  0.8626 -0.5721
 4880TIP3   OH238834   0.503   6.713  15.222  0.8597 -0.4529  0.6116
 4880TIP3    H138835   0.567   6.701  15.152  0.9104  0.2536  0.5223
 4880TIP3    H238836   0.453   6.790  15.195  1.4493  0.3649  1.7563
 4881TIP3   OH238837   6.299   0.728  15.598  0.0097 -0.2453  0.3327
 4881TIP3    H138838   6.350   0.809  15.607  0.6048 -0.5682 -0.0945
 4881TIP3    H238839   6.208   0.758  15.593  0.1899  0.3669  0.6332
 4882TIP3   OH238840   4.294   5.140  13.864 -0.1602  0.3251  0.6200
 4882TIP3    H138841   4.249   5.121  13.946  1.1540 -0.8102  1.1192
 4882TIP3    H238842   4.377   5.179  13.891 -0.7028  2.1938 -0.2709
 4883TIP3   OH238843   4.788   4.083  15.159 -0.6894 -0.1001 -0.0383
 4883TIP3    H138844   4.704   4.049  15.128 -0.5702 -0.0801 -0.3928
 4883TIP3    H238845   4.796   4.050  15.248 -0.7721 -0.6586 -0.2328
 4884TIP3   OH238846   8.253   5.966  15.256  0.4594 -0.1162  0.6439
 4884TIP3    H138847   8.162   5.939  15.268  0.0858  0.8509  0.0882
 4884TIP3    H238848   8.288   5.904  15.192 -0.6827  1.2638 -1.4240
 4885TIP3   OH238849   5.515   4.039  15.307  0.2296  0.2834  0.4788
 4885TIP3    H138850   5.492   4.032  15.214 -0.3061 -0.9596  0.6921
 4885TIP3    H238851   5.489   4.128  15.331 -0.6519  0.2523 -0.2941
 4886TIP3   OH238852   5.718   2.680  15.809 -0.0328 -0.1965  0.5147
 4886TIP3    H138853   5.742   2.635  15.889  2.7929  0.0585 -0.0742
 4886TIP3    H238854   5.799   2.720  15.778 -1.5865  2.0923 -1.0114
 4887TIP3   OH238855   1.078   0.195   9.378  0.1050 -0.3108 -0.2581
 4887TIP3    H138856   1.161   0.186   9.425 -0.7581 -0.6885  1.2979
 4887TIP3    H238857   1.078   0.284   9.344  0.6720  0.0835  0.7311
 4888TIP3   OH238858   7.419   1.734  14.330 -0.1440  0.8115 -0.4353
 4888TIP3    H138859   7.498   1.788  14.321  0.1951  0.3028 -0.5533
 4888TIP3    H238860   7.419   1.679  14.251 -1.2829  1.6704 -1.0586
 4889TIP3   OH238861   3.853   3.915  14.194  0.2309 -0.0455  0.2519
 4889TIP3    H138862   3.826   4.006  14.182 -0.0865 -0.0292  1.0510
 4889TIP3    H238863   3.935   3.909  14.145 -1.3078 -0.1931 -2.5285
 4890TIP3   OH238864   2.028   3.527  15.350 -0.2458  0.1191 -0.7688
 4890TIP3    H138865   2.077   3.540  15.268  2.2911  1.2005  0.7786
 4890TIP3    H238866   2.084   3.468  15.402 -0.2313  1.8447  1.3085
 4891TIP3   OH238867   7.927   7.871  15.372 -0.1657  0.1584  0.0084
 4891TIP3    H138868   7.831   7.876  15.376 -0.3797 -2.4140 -0.0187
 4891TIP3    H238869   7.953   7.850  15.462  0.3798  0.8376  0.0146
 4892TIP3   OH238870   7.024   0.307  15.548  0.3951 -0.0750  0.2125
 4892TIP3    H138871   6.932   0.304  15.574 -0.3542  0.7642 -2.1222
 4892TIP3    H238872   7.044   0.216  15.525 -0.2501 -0.0565 -0.4739
 4893TIP3   OH238873   0.999   5.879  15.166 -0.5230 -0.3992  0.8065
 4893TIP3    H138874   1.006   5.970  15.194  0.9603 -0.4719  0.7528
 4893TIP3    H238875   0.905   5.862  15.160 -0.8291  1.4761 -0.3142
 4894TIP3   OH238876   1.337   4.643  15.467 -0.1333  0.3896 -0.1701
 4894TIP3    H138877   1.318   4.551  15.449 -0.1486  0.0956  1.2194
 4894TIP3    H238878   1.417   4.661  15.419  0.7368 -0.8102  0.7689
 4895TIP3   OH238879   7.574   0.068  15.579 -0.0239  0.2747  0.3907
 4895TIP3    H138880   7.651   0.091  15.527  0.9779 -0.1361  1.6612
 4895TIP3    H238881   7.537   0.153  15.605  0.8863  0.4787  1.0525
 4896TIP3   OH238882   2.835   6.480  14.086 -0.5498  0.3818  0.1576
 4896TIP3    H138883   2.929   6.463  14.075 -0.3634  1.1329  0.5000
 4896TIP3    H238884   2.818   6.554  14.027 -0.3497  1.9731  1.9838
 4897TIP3   OH238885   3.295   4.979  15.428  0.1957 -0.0503 -0.9852
 4897TIP3    H138886   3.201   4.978  15.407  0.3337 -0.0826 -1.6186
 4897TIP3    H238887   3.299   5.015  15.516 -0.2692  2.1328 -1.7828
 4898TIP3   OH238888   4.582   6.027  15.333 -0.5192  0.7194  0.0713
 4898TIP3    H138889   4.673   6.001  15.326 -1.0314 -1.1013 -0.3653
 4898TIP3    H238890   4.585   6.121  15.350  1.3910  1.2463 -2.5335
 4899TIP3   OH238891   3.587   3.413  14.652  0.2542 -0.0985 -0.1653
 4899TIP3    H138892   3.509   3.467  14.664  0.4442  0.2078 -0.3218
 4899TIP3    H238893   3.557   3.324  14.673 -0.5426 -0.2294 -1.7198
 4900TIP3   OH238894   7.641   8.141  14.450  0.1743 -0.1881 -0.0256
 4900TIP3    H138895   7.687   8.145  14.534 -0.3579 -0.6904  0.2895
 4900TIP3    H238896   7.574   8.209  14.456  1.9078  1.7697 -1.1419
 4901TIP3   OH238897   0.752   4.135  14.769 -0.2115 -0.2076 -0.6613
 4901TIP3    H138898   0.788   4.112  14.683 -0.6736  1.8233 -1.4550
 4901TIP3    H238899   0.721   4.225  14.758  0.0875  0.2441  1.7584
 4902TIP3   OH238900   7.542   7.538  15.773 -0.0183  0.1308 -0.0233
 4902TIP3    H138901   7.573   7.628  15.767 -0.9984  0.4005 -2.4514
 4902TIP3    H238902   7.446   7.546  15.774 -0.1128 -0.8835  0.0067
 4903TIP3   OH238903   0.325   5.736  15.658 -0.2261  0.2091 -0.1192
 4903TIP3    H138904   0.362   5.739  15.746  2.9855  0.7914 -1.3358
 4903TIP3    H238905   0.317   5.828  15.633  0.2471  0.0409 -0.9148
 4904TIP3   OH238906   5.090   1.912  15.963 -0.1872  0.4784  0.0081
 4904TIP3    H138907   5.104   1.904  16.058  0.6727  1.4667 -0.0209
 4904TIP3    H238908   5.176   1.898  15.925 -0.0783  2.2220 -0.4815
 4905TIP3   OH238909   5.090   5.775  15.103 -0.4237 -0.3695 -0.0432
 4905TIP3    H138910   5.101   5.870  15.109  0.5236 -0.4335 -0.4519
 4905TIP3    H238911   5.031   5.753  15.174  0.0118  0.4271  0.5913
 4906TIP3   OH238912   5.627   6.255  16.029  0.3359 -0.0143 -0.4369
 4906TIP3    H138913   5.670   6.302  16.101  0.4804  1.2116 -1.2885
 4906TIP3    H238914   5.697   6.240  15.965  0.0042 -0.1996 -0.7602
 4907TIP3   OH238915   0.148   5.379  15.134 -0.3707  0.0115 -0.0642
 4907TIP3    H138916   0.187   5.343  15.213 -0.2201 -1.8816 -0.9438
 4907TIP3    H238917   0.064   5.415  15.163 -1.2565 -2.4735  0.6759
 4908TIP3   OH238918   3.017   0.866  14.299  0.0447 -0.1688 -0.0709
 4908TIP3    H138919   3.066   0.801  14.249  0.3889 -0.4884  0.6643
 4908TIP3    H238920   2.961   0.815  14.357  0.2554  0.1831  0.4567
 4909TIP3   OH238921   0.245   2.596  13.580  0.3123 -0.5479 -1.0270
 4909TIP3    H138922   0.203   2.676  13.610  0.3261 -0.9386  0.0771
 4909TIP3    H238923   0.273   2.615  13.491  1.4030  1.0735 -0.3633
 4910TIP3   OH238924   5.489   4.375  15.373 -0.6081  0.0512 -0.5598
 4910TIP3    H138925   5.552   4.390  15.443 -0.8820  0.2936 -0.3617
 4910TIP3    H238926   5.543   4.368  15.294 -0.1999 -1.5608 -0.1570
 4911TIP3   OH238927   3.474   3.138  14.694  0.1806 -0.1253 -0.0242
 4911TIP3    H138928   3.432   3.187  14.764  0.2125 -0.1505  0.0129
 4911TIP3    H238929   3.426   3.055  14.690  0.7252 -0.4722  0.5401
 4912TIP3   OH238930   4.197   0.830  15.877 -0.3248 -0.6865  0.1584
 4912TIP3    H138931   4.164   0.840  15.787 -0.5395 -1.2615  0.1730
 4912TIP3    H238932   4.132   0.775  15.921 -0.9694  0.7585  1.0817
 4913TIP3   OH238933   6.956   7.164  15.749 -0.7009  0.3113  0.1135
 4913TIP3    H138934   6.954   7.246  15.700  1.8179 -0.6812 -1.9007
 4913TIP3    H238935   7.014   7.182  15.824 -0.1393  0.3880 -0.3340
 4914TIP3   OH238936   4.410   3.736  15.184  0.2512 -0.1087 -0.3023
 4914TIP3    H138937   4.399   3.661  15.243  0.6468 -0.7478 -1.0141
 4914TIP3    H238938   4.322   3.753  15.151 -0.4718  1.8441  2.2723
 4915TIP3   OH238939   8.221   0.060  15.170 -0.2303  0.0282 -0.2659
 4915TIP3    H138940   8.246  -0.032  15.164 -1.7134 -0.4165 -0.1281
 4915TIP3    H238941   8.303   0.107  15.187  0.3549 -1.4120  1.1156
 4916TIP3   OH238942   1.026   3.055  14.415 -0.0948 -0.2834 -0.3686
 4916TIP3    H138943   1.049   2.962  14.419 -0.6536 -0.5077 -1.7238
 4916TIP3    H238944   0.953   3.059  14.353  0.0369  1.0761 -0.4686
 4917TIP3   OH238945   4.917   1.790  15.771 -0.1496 -0.0378 -0.4185
 4917TIP3    H138946   4.880   1.858  15.715  1.4346 -0.2148 -1.7754
 4917TIP3    H238947   4.947   1.837  15.849 -1.1304  0.4327 -0.3119
 4918TIP3   OH238948   6.791   5.126  15.887  0.1614  0.5187 -0.6228
 4918TIP3    H138949   6.723   5.061  15.902 -0.6442  1.4019 -0.3157
 4918TIP3    H238950   6.861   5.104  15.949 -2.0122  2.5867  2.8640
 4919TIP3   OH238951   4.048   3.941  15.380 -0.1391 -0.4003  0.1549
 4919TIP3    H138952   3.981   4.009  15.372 -0.4340 -0.7097 -0.1046
 4919TIP3    H238953   4.104   3.953  15.303  1.2326  1.0300  1.3316
 4920TIP3   OH238954   4.773   4.454  15.685 -0.0857 -0.2502 -0.4505
 4920TIP3    H138955   4.857   4.498  15.673 -0.0707  0.0276  0.5699
 4920TIP3    H238956   4.769   4.389  15.615  0.9255 -0.1882 -0.5747
 4921TIP3   OH238957   5.744   1.411  14.504  0.2846 -0.3829  0.3026
 4921TIP3    H138958   5.838   1.423  14.498  0.3859 -0.8271  0.9018
 4921TIP3    H238959   5.726   1.406  14.598 -0.6336  1.9708  0.3187
 4922TIP3   OH238960   0.810   1.997  15.173 -0.5546  0.3222  0.4613
 4922TIP3    H138961   0.755   2.074  15.190 -1.1933 -0.1140  0.4341
 4922TIP3    H238962   0.809   1.949  15.256 -2.0156 -0.7903 -0.1628
 4923TIP3   OH238963   4.426   6.277  15.786  0.2579 -0.9663 -0.1996
 4923TIP3    H138964   4.487   6.328  15.840  0.4794 -1.0884 -0.3330
 4923TIP3    H238965   4.483   6.228  15.727 -0.0091 -0.0401 -1.2547
 4924TIP3   OH238966   7.521   1.516  14.961  0.3095 -0.4980 -0.1511
 4924TIP3    H138967   7.615   1.496  14.962  0.7852  1.4807  0.7479
 4924TIP3    H238968   7.495   1.511  15.053 -0.7680 -2.1587 -0.5146
 4925TIP3   OH238969   6.266   7.066  14.681  0.2576  0.2557  0.5925
 4925TIP3    H138970   6.241   7.097  14.769 -0.2716  1.4787  0.0338
 4925TIP3    H238971   6.266   6.971  14.689 -3.2554  0.1603  1.0269
 4926TIP3   OH238972   1.899   3.483  14.561  0.1801 -0.0498  0.0046
 4926TIP3    H138973   1.916   3.394  14.591 -2.1450 -0.9324 -1.1061
 4926TIP3    H238974   1.971   3.534  14.598  1.3588 -2.2864  1.0172
 4927TIP3   OH238975   2.515   6.837  14.092 -0.1950 -0.4032 -0.5272
 4927TIP3    H138976   2.591   6.784  14.115 -0.8222 -1.6453 -1.2611
 4927TIP3    H238977   2.453   6.824  14.165  0.1575  0.3910 -0.0651
 4928TIP3   OH238978   0.641   2.374  15.693  0.1542 -0.2556 -0.9534
 4928TIP3    H138979   0.605   2.287  15.709  1.2780 -0.7919 -1.1895
 4928TIP3    H238980   0.708   2.385  15.761 -1.0515  1.0998  0.0645
 4929TIP3   OH238981   1.025   0.159  15.040 -0.3978 -0.1583  0.4289
 4929TIP3    H138982   1.005   0.067  15.060  1.5186 -0.4753  1.1032
 4929TIP3    H238983   1.120   0.164  15.047  0.0123  0.9468 -3.6570
 4930TIP3   OH238984   5.686   7.544  15.435 -0.5114 -0.0465 -0.2848
 4930TIP3    H138985   5.735   7.466  15.408  0.3595 -0.5025  2.2988
 4930TIP3    H238986   5.594   7.518  15.429 -0.2291 -1.9440  2.0662
 4931TIP3   OH238987   7.584   4.147  15.551  1.0118 -0.0961 -0.1345
 4931TIP3    H138988   7.496   4.176  15.575  0.3744 -1.4759 -0.6422
 4931TIP3    H238989   7.610   4.089  15.622  1.2145 -0.2179 -0.3076
 4932TIP3   OH238990   3.347   2.866  14.287 -0.6557 -0.2322  0.8201
 4932TIP3    H138991   3.408   2.937  14.307  0.4891 -1.1620  0.7869
 4932TIP3    H238992   3.362   2.802  14.357 -0.3824 -1.2174 -0.1131
 4933TIP3   OH238993   1.279   0.465  15.151  0.4493  0.7357  0.0293
 4933TIP3    H138994   1.266   0.411  15.229  0.2018 -1.5708 -1.5078
 4933TIP3    H238995   1.193   0.468  15.109  0.6863  1.5234 -0.4126
 4934TIP3   OH238996   3.542   1.723  15.767  0.1671  0.6166  0.0273
 4934TIP3    H138997   3.621   1.735  15.714  1.1839 -0.7917  1.1577
 4934TIP3    H238998   3.537   1.802  15.821  1.0206  0.5583  0.2035
 4935TIP3   OH238999   7.815   0.544  14.978  0.1981  0.1123  0.1331
 4935TIP3    H139000   7.870   0.562  15.054  0.9908 -1.9466  0.0909
 4935TIP3    H239001   7.844   0.459  14.946 -1.0539  0.2996 -1.6653
 4936TIP3   OH239002   4.199   8.298  15.500  0.4990 -0.3227 -0.6723
 4936TIP3    H139003   4.194   8.296  15.595  4.4366 -0.0885 -0.2866
 4936TIP3    H239004   4.183   8.207  15.473 -0.2117 -0.4746  0.2310
 4937TIP3   OH239005   5.652   5.526  14.349  0.1580  0.5683  0.2364
 4937TIP3    H139006   5.604   5.515  14.267  0.5143  0.5790  0.0257
 4937TIP3    H239007   5.742   5.546  14.322  0.1740  1.0420  0.6224
 4938TIP3   OH239008   1.701   5.272  14.964 -0.5143  0.4218  0.1270
 4938TIP3    H139009   1.713   5.178  14.976  2.2690  0.5089 -1.2770
 4938TIP3    H239010   1.700   5.307  15.053  0.6338 -0.7327  0.6286
 4939TIP3   OH239011   2.679   3.047  13.651 -0.1426 -0.0502 -0.3068
 4939TIP3    H139012   2.642   3.023  13.736  0.2721 -0.9028 -0.3547
 4939TIP3    H239013   2.691   3.142  13.656 -0.7378 -0.0017  0.3352
 4940TIP3   OH239014   1.967   5.131  15.947  0.0898 -0.1492  0.4028
 4940TIP3    H139015   2.046   5.164  15.990  0.5200  0.1442 -0.6026
 4940TIP3    H239016   1.900   5.196  15.967  0.5628  0.5642 -0.2945
 4941TIP3   OH239017   1.486   2.646  14.507  0.1387 -0.4305  0.1823
 4941TIP3    H139018   1.501   2.596  14.427 -0.9155 -0.5931  0.0727
 4941TIP3    H239019   1.531   2.730  14.492  0.0094 -0.4848 -0.5512
 4942TIP3   OH239020   0.281   6.596  15.397 -0.0333 -0.8449 -0.3078
 4942TIP3    H139021   0.343   6.638  15.339 -0.2485 -1.2692 -0.8588
 4942TIP3    H239022   0.268   6.658  15.469  0.8183 -0.6461 -0.3230
 4943TIP3   OH239023   7.117   3.392  13.886 -0.2122 -0.2958 -0.9388
 4943TIP3    H139024   7.027   3.370  13.864 -0.6400  0.1268  0.3357
 4943TIP3    H239025   7.128   3.364  13.977  1.6886 -2.5538 -1.7427
 4944TIP3   OH239026   7.169   2.802  15.476 -0.0585  0.0877 -0.6412
 4944TIP3    H139027   7.164   2.894  15.503  2.3342  0.8960 -2.5739
 4944TIP3    H239028   7.096   2.790  15.416 -0.2000  0.8143 -0.6232
 4945TIP3   OH239029   5.549   5.399  14.818 -0.1628  0.3967 -0.2301
 4945TIP3    H139030   5.607   5.372  14.746 -0.8576  1.2154 -1.1257
 4945TIP3    H239031   5.474   5.340  14.810 -0.3414  0.6352 -0.3280
 4946TIP3   OH239032   8.268   3.288  15.404  0.4107  0.3669  0.0873
 4946TIP3    H139033   8.275   3.358  15.339  0.8720  0.9441  0.7471
 4946TIP3    H239034   8.358   3.264  15.423  0.2428 -1.1362 -0.8842
 4947TIP3   OH239035   3.147   2.069  16.002 -0.1238  0.1153 -0.0296
 4947TIP3    H139036   3.230   2.059  16.050 -0.2282 -1.3917 -0.1126
 4947TIP3    H239037   3.158   2.150  15.952  0.6321  0.8366  1.2521
 4948TIP3   OH239038   7.193   6.332  15.241 -0.5824  0.1271  0.4405
 4948TIP3    H139039   7.273   6.374  15.273 -1.3807  1.6490  0.5668
 4948TIP3    H239040   7.176   6.262  15.304  0.1168  0.4233  0.9781
 4949TIP3   OH239041   5.649   2.975  15.246 -0.3298  0.2447 -0.2275
 4949TIP3    H139042   5.657   2.922  15.325 -0.4900 -0.2894 -0.5604
 4949TIP3    H239043   5.617   3.059  15.276 -1.5895 -0.3453  0.1522
 4950TIP3   OH239044   7.164   3.795  15.048 -0.0407 -0.2379  0.1413
 4950TIP3    H139045   7.116   3.819  15.127 -0.2134  0.9462 -0.2980
 4950TIP3    H239046   7.256   3.806  15.072 -0.1194  1.3224 -0.1504
 4951TIP3   OH239047   6.062   2.275  14.935  0.1804 -0.1253 -0.1661
 4951TIP3    H139048   6.106   2.238  15.012  1.2115 -0.2170 -0.7840
 4951TIP3    H239049   6.023   2.199  14.891 -2.3206  0.1321  1.3727
 4952TIP3   OH239050   1.973   8.424  13.872  0.0146  0.6184 -0.3715
 4952TIP3    H139051   2.061   8.414  13.834 -0.0088 -4.3933  0.1298
 4952TIP3    H239052   1.914   8.400  13.802 -0.4896 -1.4132  0.6675
 4953TIP3   OH239053   1.720   2.177  14.809 -0.2947 -0.3400 -0.3204
 4953TIP3    H139054   1.762   2.244  14.864  0.8841 -0.9181 -0.4901
 4953TIP3    H239055   1.632   2.211  14.793  0.4398  1.4403 -0.8464
 4954TIP3   OH239056   3.743   6.924  14.525 -0.2600  0.1993 -0.1739
 4954TIP3    H139057   3.745   6.896  14.434  3.3040  1.7046 -0.7335
 4954TIP3    H239058   3.793   6.858  14.572 -0.3285  0.4895  0.3179
 4955TIP3   OH239059   6.589   6.963  14.872  0.0224  0.4989 -0.6483
 4955TIP3    H139060   6.580   6.880  14.917 -0.4799  0.3616 -0.9969
 4955TIP3    H239061   6.553   6.948  14.784  2.4237  0.2840 -1.6954
 4956TIP3   OH239062   4.498   2.577  14.685  0.1783 -0.1790 -0.2627
 4956TIP3    H139063   4.493   2.668  14.656 -1.6266 -0.2327 -0.2182
 4956TIP3    H239064   4.451   2.527  14.617 -1.7122 -0.6382  1.2983
 4957TIP3   OH239065   6.152   4.175  15.743  0.0993  0.0699  0.2238
 4957TIP3    H139066   6.139   4.237  15.671  0.6031  0.8995  0.8327
 4957TIP3    H239067   6.069   4.128  15.750  0.0072  0.0602 -0.8216
 4958TIP3   OH239068   0.333   4.281  14.191 -0.1749 -0.1427  0.8828
 4958TIP3    H139069   0.376   4.361  14.222  0.8690 -0.5174  0.4691
 4958TIP3    H239070   0.262   4.312  14.135  0.3112  0.5114  0.6123
 4959TIP3   OH239071   3.605   6.114  15.197  0.4148 -0.1381  0.1797
 4959TIP3    H139072   3.594   6.210  15.195 -1.2728 -0.2771  1.0150
 4959TIP3    H239073   3.650   6.094  15.115  2.0863  1.4946  0.6264
 4960TIP3   OH239074   3.454   8.147  15.685  0.7493 -0.5059 -0.1954
 4960TIP3    H139075   3.532   8.203  15.692  0.0727  0.5645 -0.9539
 4960TIP3    H239076   3.383   8.202  15.717  0.1584 -1.1589 -0.3785
 4961TIP3   OH239077   3.789   2.248  14.569 -0.0653  0.2589  0.4428
 4961TIP3    H139078   3.742   2.306  14.629 -0.7259  0.0561  0.1323
 4961TIP3    H239079   3.865   2.218  14.620 -1.4626 -1.1947  1.7979
 4962TIP3   OH239080   7.803   2.672  15.346  0.1365 -0.0207  0.2592
 4962TIP3    H139081   7.890   2.659  15.308  0.3410 -0.1577  0.7754
 4962TIP3    H239082   7.814   2.744  15.408 -0.0361 -0.2784  0.5934
 4963TIP3   OH239083   2.945   1.580  15.332 -0.2945 -0.3503  0.0709
 4963TIP3    H139084   2.971   1.652  15.389 -1.3856 -0.6491  0.9992
 4963TIP3    H239085   3.009   1.511  15.348 -0.2333 -0.1988  0.4702
 4964TIP3   OH239086   6.028   2.949  14.495  0.2432  0.0899 -0.3049
 4964TIP3    H139087   6.028   3.040  14.463 -0.8859  0.1979 -0.0644
 4964TIP3    H239088   5.981   2.900  14.427 -0.5742 -0.0087  0.3200
 4965TIP3   OH239089   5.906   6.488  15.968 -0.0164 -0.6584  0.1749
 4965TIP3    H139090   5.866   6.422  15.911  2.7220 -2.2472 -0.0791
 4965TIP3    H239091   6.000   6.473  15.960  0.6936  2.6074  1.0021
 4966TIP3   OH239092   0.379   6.790  15.921 -0.3496  0.1416 -0.3623
 4966TIP3    H139093   0.433   6.866  15.896  0.3779  1.0004  3.2710
 4966TIP3    H239094   0.441   6.718  15.930 -0.3444  0.2281  0.3522
 4967TIP3   OH239095   7.012   3.265  16.022 -0.4446 -0.1068 -0.1496
 4967TIP3    H139096   7.065   3.189  16.046  0.2794 -1.1219 -4.2248
 4967TIP3    H239097   6.923   3.240  16.047  0.1018 -1.1445  0.9070
 4968TIP3   OH239098   5.164   4.034  15.244  0.1078  0.3192 -0.4344
 4968TIP3    H139099   5.132   4.097  15.180 -1.5294  0.0213  0.0330
 4968TIP3    H239100   5.239   3.992  15.202  0.2233  1.4364 -1.3837
 4969TIP3   OH239101   5.548   4.456  14.364  0.0555 -0.5270  0.2846
 4969TIP3    H139102   5.558   4.480  14.271 -1.1967  0.9983  0.4919
 4969TIP3    H239103   5.520   4.538  14.406  0.8258 -1.1400  2.0630
 4970TIP3   OH239104   7.800   0.779  15.498  0.3200 -0.1271 -0.2085
 4970TIP3    H139105   7.713   0.747  15.522  0.1800  0.4610  0.0931
 4970TIP3    H239106   7.823   0.841  15.568  0.1238  1.2464 -1.3036
 4971TIP3   OH239107   4.516   4.903  15.926 -0.0458 -0.0891 -0.1127
 4971TIP3    H139108   4.492   4.817  15.893 -0.4653 -0.0283  0.0190
 4971TIP3    H239109   4.529   4.890  16.020 -1.0606  0.1754  0.0751
 4972TIP3   OH239110   2.201   5.701  15.495 -0.0606  0.2614  0.5565
 4972TIP3    H139111   2.138   5.645  15.448 -2.0689  1.9667  1.0644
 4972TIP3    H239112   2.244   5.751  15.426  1.5645 -1.6204  0.1171
 4973TIP3   OH239113   0.388   4.719  13.962 -0.2097  0.7815 -0.0491
 4973TIP3    H139114   0.428   4.743  14.046  2.7509 -0.1291 -1.0972
 4973TIP3    H239115   0.315   4.780  13.953 -1.3329  0.2437  3.6341
 4974TIP3   OH239116   5.455   5.264  13.990 -0.6971 -0.5105  0.0684
 4974TIP3    H139117   5.414   5.295  13.910  0.9352 -2.7994 -1.7924
 4974TIP3    H239118   5.530   5.323  14.003 -2.6320  1.7876  1.7929
 4975TIP3   OH239119   7.318   3.118  16.327  0.0194  0.6463 -0.3553
 4975TIP3    H139120   7.407   3.099  16.297  0.6820  1.0565  1.2245
 4975TIP3    H239121   7.318   3.212  16.342 -0.2101  0.4604  0.9849
 4976TIP3   OH239122   1.403   5.901  15.497 -0.5390  0.4379 -0.0012
 4976TIP3    H139123   1.465   5.889  15.425  0.3403 -1.3729  0.9954
 4976TIP3    H239124   1.321   5.864  15.463  0.2661 -1.8475  0.4068
 4977TIP3   OH239125   7.987   4.595  16.283  0.2449 -0.0520 -0.0010
 4977TIP3    H139126   7.904   4.553  16.307  0.8586 -0.7505  0.9139
 4977TIP3    H239127   7.986   4.595  16.187 -1.3346  0.9960 -0.0348
 4978TIP3   OH239128   7.018   7.441  15.676 -0.0234 -0.6095 -0.1776
 4978TIP3    H139129   6.961   7.407  15.607  1.0499 -1.0255 -0.8780
 4978TIP3    H239130   7.084   7.492  15.630  1.1944 -1.5733  0.4394
 4979TIP3   OH239131   8.102   2.758  16.178 -0.2757  0.8876  0.2034
 4979TIP3    H139132   8.011   2.754  16.149 -0.8431 -0.3212  1.9792
 4979TIP3    H239133   8.098   2.791  16.267  0.8040 -0.9719  1.0092
 4980TIP3   OH239134   2.206   4.894  14.791  0.4437  0.1901 -0.1251
 4980TIP3    H139135   2.288   4.857  14.825  1.7175  1.6773 -1.4111
 4980TIP3    H239136   2.226   4.916  14.700 -2.0798 -1.3897 -1.1806
 4981TIP3   OH239137   3.344   0.854  14.925  0.0913 -0.0180  0.2022
 4981TIP3    H139138   3.269   0.913  14.930  0.3299  0.2000  2.9783
 4981TIP3    H239139   3.316   0.776  14.973  1.5248 -0.0024  1.1375
 4982TIP3   OH239140   6.901   5.711  15.178  0.0748  0.0110  0.2861
 4982TIP3    H139141   6.904   5.745  15.088  1.4659 -0.1075  0.2729
 4982TIP3    H239142   6.934   5.783  15.231  1.0705 -0.5732  0.4822
 4983TIP3   OH239143   6.119   6.841  15.525 -0.1236  0.5250  0.3585
 4983TIP3    H139144   6.091   6.756  15.491 -0.8712  1.0269 -0.3277
 4983TIP3    H239145   6.109   6.833  15.620  1.7538 -0.8124  0.4939
 4984TIP3   OH239146   8.062   0.802  16.272 -0.4057  0.0391 -0.1177
 4984TIP3    H139147   8.151   0.831  16.289 -0.0093 -0.1819 -1.6384
 4984TIP3    H239148   8.024   0.873  16.220 -1.4003  0.4988  1.1807
 4985TIP3   OH239149   4.648   7.241  14.494  0.7909  0.3853  0.3317
 4985TIP3    H139150   4.729   7.290  14.507  1.0070 -0.7468  4.7194
 4985TIP3    H239151   4.579   7.300  14.525 -0.1111  0.9140 -2.3384
 4986TIP3   OH239152   1.905   5.805  14.035 -0.3834  0.0366  0.0853
 4986TIP3    H139153   1.888   5.730  13.978 -2.5244  1.3530 -1.1269
 4986TIP3    H239154   1.868   5.781  14.120 -1.4418 -0.1226 -0.4173
 4987TIP3   OH239155   5.976   8.169  15.091 -0.5379  0.1556 -0.0855
 4987TIP3    H139156   6.069   8.190  15.100 -0.4347 -0.8442  1.6519
 4987TIP3    H239157   5.931   8.238  15.137 -0.4986 -0.5670  1.0708
 4988TIP3   OH239158   7.995   5.862  15.230  0.3978  0.1291  0.6700
 4988TIP3    H139159   8.026   5.773  15.249 -1.5063 -0.2682  2.1378
 4988TIP3    H239160   7.917   5.873  15.283 -0.2254  2.2098 -0.5433
 4989TIP3   OH239161   5.381   4.266  14.497 -0.1074 -0.3295  0.4872
 4989TIP3    H139162   5.336   4.212  14.432 -1.5412  0.0915  1.0998
 4989TIP3    H239163   5.431   4.329  14.445  2.8353 -3.0604 -0.3050
 4990TIP3   OH239164   0.199   1.982  15.010  0.2133 -0.0085  0.1578
 4990TIP3    H139165   0.268   2.022  15.063  1.3013 -0.2676 -1.0304
 4990TIP3    H239166   0.199   2.032  14.929  0.1367 -1.0725 -0.5100
 4991TIP3   OH239167   3.808   7.612  14.119  0.1508  0.3780  0.5598
 4991TIP3    H139168   3.824   7.704  14.138  0.4790  0.6132 -0.7912
 4991TIP3    H239169   3.845   7.566  14.194 -2.8920  1.4356  2.9310
 4992TIP3   OH239170   0.753   2.562  14.784 -0.6837  0.3511 -0.3899
 4992TIP3    H139171   0.678   2.514  14.819 -0.1790 -0.5282 -0.4779
 4992TIP3    H239172   0.790   2.607  14.860 -0.9903  0.3621 -0.2459
 4993TIP3   OH239173   4.091   0.165  15.841  0.2951  0.4139  0.0389
 4993TIP3    H139174   4.082   0.172  15.746  1.1684  0.1464 -0.0704
 4993TIP3    H239175   4.128   0.249  15.868  0.5840  0.2777  0.0694
 4994TIP3   OH239176   0.258   8.226  14.648 -0.1125 -0.4136 -0.1123
 4994TIP3    H139177   0.342   8.269  14.668 -1.6194  3.0337 -0.5678
 4994TIP3    H239178   0.270   8.190  14.560  0.5328  1.2588 -0.7546
 4995TIP3   OH239179   0.937   1.207  15.231 -0.6881  0.0918 -0.1504
 4995TIP3    H139180   0.956   1.113  15.227 -1.2195 -0.0718  0.6177
 4995TIP3    H239181   0.893   1.227  15.148  0.2698 -0.1267 -0.7141
 4996TIP3   OH239182   0.221   6.765  14.433 -0.8404 -0.3441  0.2285
 4996TIP3    H139183   0.312   6.793  14.443 -0.3830 -1.9620  0.9035
 4996TIP3    H239184   0.170   6.837  14.469  0.1613  0.5629 -0.0973
 4997TIP3   OH239185   7.851   0.621  15.268 -0.3877  0.2817  0.1995
 4997TIP3    H139186   7.784   0.559  15.241 -1.2070  1.6633 -1.1011
 4997TIP3    H239187   7.808   0.677  15.333 -0.4352  1.0325 -0.4715
 4998TIP3   OH239188   3.271   0.321  15.604 -0.4826  0.8287  0.5347
 4998TIP3    H139189   3.226   0.380  15.543 -1.5427 -1.6647 -1.2773
 4998TIP3    H239190   3.217   0.241  15.603  1.7456 -0.7756  1.5748
 4999TIP3   OH239191   3.865   6.616  14.076  0.1118  0.0377  0.7168
 4999TIP3    H139192   3.900   6.687  14.022 -0.1782  0.1782  0.7114
 4999TIP3    H239193   3.819   6.560  14.013  1.0935 -0.6432  0.5799
 5000TIP3   OH239194   5.714   5.807  15.566  0.7410 -0.0906  0.2276
 5000TIP3    H139195   5.635   5.756  15.549  1.1592 -0.5831 -0.2846
 5000TIP3    H239196   5.768   5.792  15.489  0.8922  1.0924  0.0963
 5001TIP3   OH239197   1.595   8.442  13.882 -0.0214 -0.6985 -0.3406
 5001TIP3    H139198   1.532   8.426  13.952  0.6032 -0.1360  0.3738
 5001TIP3    H239199   1.586   8.535  13.862 -1.0269 -1.0973 -1.8588
 5002TIP3   OH239200   2.065   3.600  15.940 -0.1152  0.0533  0.3534
 5002TIP3    H139201   2.128   3.610  15.869  0.3665 -1.1966  0.5713
 5002TIP3    H239202   1.982   3.627  15.903 -0.1303 -1.7745 -1.1336
 5003TIP3   OH239203   3.420   1.624  13.364 -0.5256 -0.3584 -0.5963
 5003TIP3    H139204   3.438   1.698  13.423 -2.4048 -2.3606  2.8178
 5003TIP3    H239205   3.501   1.574  13.364 -0.9902 -1.3422  2.1580
 5004TIP3   OH239206   7.800   1.982  14.680 -0.1590  0.0605  0.3828
 5004TIP3    H139207   7.800   2.070  14.719  2.0030  0.4321 -0.3337
 5004TIP3    H239208   7.842   1.927  14.745 -0.0994 -0.1324  0.1829
 5005TIP3   OH239209   8.431   5.229  15.907 -0.1108  0.0497  0.6380
 5005TIP3    H139210   8.341   5.197  15.902  0.0877 -0.4828  0.4045
 5005TIP3    H239211   8.454   5.249  15.816  0.4079 -0.9623  0.5307
 5006TIP3   OH239212   2.093   5.775  15.211  0.0261 -0.3352  0.1268
 5006TIP3    H139213   2.181   5.772  15.174  0.1609  0.3787  0.3620
 5006TIP3    H239214   2.076   5.686  15.242  1.1457 -0.2044  1.1870
 5007TIP3   OH239215   2.605   1.664  14.333  0.1005 -0.3026  0.4867
 5007TIP3    H139216   2.651   1.728  14.388  1.5456 -3.2745  3.0271
 5007TIP3    H239217   2.672   1.633  14.272 -1.0284  1.6478 -1.8893
 5008TIP3   OH239218   7.094   3.592  14.590 -0.1357  0.1372  0.5723
 5008TIP3    H139219   7.059   3.628  14.509  0.8430  0.4609  0.2883
 5008TIP3    H239220   7.070   3.657  14.657 -0.9650 -0.1443  0.5720
 5009TIP3   OH239221   3.222   4.213  15.475  0.4022  0.3593  0.3339
 5009TIP3    H139222   3.237   4.308  15.471  0.2999  0.3350 -1.5670
 5009TIP3    H239223   3.133   4.201  15.442  0.1499 -0.3594  1.2388
 5010TIP3   OH239224   5.537   5.900  14.923 -0.1753 -0.5005 -0.9052
 5010TIP3    H139225   5.466   5.932  14.868  0.3249 -0.2379 -1.4154
 5010TIP3    H239226   5.589   5.844  14.865 -0.8377 -1.9933 -0.1262
 5011TIP3   OH239227   0.649   0.067  16.113  0.1364 -0.1559 -0.0350
 5011TIP3    H139228   0.674   0.080  16.022 -1.5879  0.2743 -0.4661
 5011TIP3    H239229   0.619  -0.024  16.118  1.1706 -0.4955  0.3580
 5012TIP3   OH239230   2.361   0.009  14.810 -0.9001 -0.1258  0.4875
 5012TIP3    H139231   2.356   0.100  14.840 -1.1944  0.0213  0.0035
 5012TIP3    H239232   2.402  -0.038  14.882  1.4378  0.8044 -0.1554
 5013TIP3   OH239233   1.746   7.751  15.526 -0.4059  0.0421  0.5945
 5013TIP3    H139234   1.773   7.829  15.478  0.4570 -0.1807  0.6912
 5013TIP3    H239235   1.788   7.678  15.480  0.4664 -0.1696  1.6682
 5014TIP3   OH239236   1.402   6.005  14.344  0.2582  0.3014  0.2055
 5014TIP3    H139237   1.470   5.940  14.358  1.5838  1.5935 -0.0249
 5014TIP3    H239238   1.442   6.070  14.286 -1.6897  0.3154 -1.2293
 5015TIP3   OH239239   6.512   3.294  15.879 -0.3417 -0.3230 -0.0876
 5015TIP3    H139240   6.492   3.291  15.972 -2.4224 -1.3324 -0.5257
 5015TIP3    H239241   6.584   3.232  15.868 -2.2511 -2.7932  0.4087
 5016TIP3   OH239242   2.331   0.937  14.604 -0.2803  0.4431 -0.0552
 5016TIP3    H139243   2.303   0.937  14.695  0.2267  2.8096  0.1450
 5016TIP3    H239244   2.277   0.869  14.563  0.5710 -1.8017  2.2612
 5017TIP3   OH239245   1.808   6.398  15.071 -0.2769 -0.1285  0.0358
 5017TIP3    H139246   1.832   6.469  15.130 -1.6015  0.6305 -0.3098
 5017TIP3    H239247   1.880   6.394  15.007  0.5441 -0.1239  0.9353
 5018TIP3   OH239248   4.237   0.116  13.923  0.8281 -0.5196  0.0565
 5018TIP3    H139249   4.323   0.102  13.961  0.9134  0.2840  0.1734
 5018TIP3    H239250   4.242   0.202  13.882  0.0142 -0.3607  0.2664
 5019TIP3   OH239251   5.593   6.099  15.100 -0.0968 -0.0654 -0.5655
 5019TIP3    H139252   5.676   6.083  15.145  0.3041  0.7370 -0.9981
 5019TIP3    H239253   5.589   6.032  15.032  1.2174  1.1437 -1.9046
 5020TIP3   OH239254   4.275   2.042  15.447  0.2802 -0.3262 -0.0453
 5020TIP3    H139255   4.204   2.047  15.382  1.4174 -1.0521 -1.4100
 5020TIP3    H239256   4.323   2.124  15.437  0.4857 -0.4599 -0.1681
 5021TIP3   OH239257   0.231   0.844  15.269 -0.4488  0.4954 -0.0682
 5021TIP3    H139258   0.181   0.891  15.202 -1.1320 -0.0148  0.0744
 5021TIP3    H239259   0.319   0.836  15.232 -0.3546  1.7362 -0.1629
 5022TIP3   OH239260   5.668   7.750  14.541 -0.7082 -0.0163 -0.0769
 5022TIP3    H139261   5.674   7.655  14.551  0.4398 -0.1532 -1.6368
 5022TIP3    H239262   5.612   7.762  14.464 -0.0079  0.5219 -0.5186
 5023TIP3   OH239263   6.856   7.323  15.510 -0.2885  0.1834 -0.3964
 5023TIP3    H139264   6.789   7.254  15.505  0.0298 -0.0984 -0.9196
 5023TIP3    H239265   6.922   7.295  15.447 -0.0933  0.9072 -0.5130
 5024TIP3   OH239266   1.450   2.967  14.706 -0.0530  0.2337  0.1192
 5024TIP3    H139267   1.509   2.918  14.763 -0.8381 -0.5503  0.2808
 5024TIP3    H239268   1.500   3.043  14.679  1.4880 -1.0133 -0.7075
 5025TIP3   OH239269   1.484   1.440  13.999  0.1634 -0.4641 -0.2758
 5025TIP3    H139270   1.479   1.364  13.940  0.0070 -0.4235 -0.3170
 5025TIP3    H239271   1.487   1.516  13.940 -1.0068 -0.3656 -0.2340
 5026TIP3   OH239272   4.323   7.590  14.745 -0.5094 -0.2148 -0.3245
 5026TIP3    H139273   4.312   7.684  14.732  2.0303  0.2298  0.1719
 5026TIP3    H239274   4.301   7.576  14.837 -2.5690 -0.4811 -0.7986
 5027TIP3   OH239275   2.484   2.552  15.065  0.3261 -0.9166  0.0864
 5027TIP3    H139276   2.419   2.520  15.128 -1.3019 -0.3020 -1.2053
 5027TIP3    H239277   2.436   2.557  14.982  1.4057  1.5624 -0.4923
 5028TIP3   OH239278   2.012   7.503  15.501 -0.2464 -0.4221 -0.2279
 5028TIP3    H139279   1.974   7.541  15.581 -0.0139 -0.4958 -0.0835
 5028TIP3    H239280   2.030   7.412  15.524 -2.2365 -1.0837 -1.0390
 5029TIP3   OH239281   7.292   6.875  15.032  0.1121 -0.0185 -0.3971
 5029TIP3    H139282   7.251   6.790  15.017 -1.0264  0.5908 -0.8110
 5029TIP3    H239283   7.384   6.862  15.006 -0.6792 -0.3268 -3.3730
 5030TIP3   OH239284   3.143   4.560  15.005 -0.3805 -0.5206 -0.6321
 5030TIP3    H139285   3.158   4.577  14.912  0.9270  0.3019 -0.2925
 5030TIP3    H239286   3.149   4.465  15.014  0.8973 -0.5124 -1.1769
 5031TIP3   OH239287   7.594   0.529  15.291  0.1921  0.4785  0.3033
 5031TIP3    H139288   7.513   0.561  15.331  0.3322  1.1064  0.0930
 5031TIP3    H239289   7.585   0.434  15.291  0.6391  0.3650  2.8257
 5032TIP3   OH239290   1.950   3.782  16.208 -0.3127  0.4681  0.2203
 5032TIP3    H139291   1.903   3.707  16.244  1.2118 -0.6350 -0.0481
 5032TIP3    H239292   2.037   3.749  16.187  0.2302  2.1865 -0.3854
 5033TIP3   OH239293   6.987   4.174  15.433  0.2305  0.4498  0.2894
 5033TIP3    H139294   7.002   4.091  15.478 -0.8040  0.3995  0.5687
 5033TIP3    H239295   6.904   4.162  15.388  0.7431  0.8696 -0.7874
 5034TIP3   OH239296   7.388   7.039  14.733 -0.5026  0.5269  0.1538
 5034TIP3    H139297   7.451   7.087  14.679 -0.8770  1.8371  0.8288
 5034TIP3    H239298   7.373   7.096  14.809 -0.9029 -0.7170  1.0498
 5035TIP3   OH239299   3.212   3.260  14.501 -0.3000  0.2960  0.2304
 5035TIP3    H139300   3.191   3.253  14.408  0.0122 -0.3821  0.2075
 5035TIP3    H239301   3.146   3.319  14.536 -0.2024  0.8407 -0.4898
 5036TIP3   OH239302   4.897   1.320  15.133  0.1043 -0.1644  0.9414
 5036TIP3    H139303   4.883   1.338  15.226  0.3475 -0.7753  1.0965
 5036TIP3    H239304   4.933   1.232  15.130 -0.6835 -0.4817  0.2081
 5037TIP3   OH239305   6.860   2.770  15.388  0.1037 -0.3261  0.3364
 5037TIP3    H139306   6.776   2.755  15.345 -1.1512 -0.1198  2.5901
 5037TIP3    H239307   6.921   2.788  15.316 -1.9666  0.5064 -1.3033
 5038TIP3   OH239308   4.357   5.958  15.826 -0.4141  0.0931  0.7794
 5038TIP3    H139309   4.421   6.028  15.824  1.0020 -1.1559  0.6991
 5038TIP3    H239310   4.292   5.983  15.761  1.4694  0.0902 -1.2138
 5039TIP3   OH239311   7.765   0.538  14.718  0.5266  0.4434 -0.3126
 5039TIP3    H139312   7.770   0.558  14.812  0.2769  1.2228 -0.4521
 5039TIP3    H239313   7.678   0.502  14.706 -0.0979  1.9251 -0.5022
 5040TIP3   OH239314   1.971   7.013  14.481 -0.6347 -0.4475  0.2864
 5040TIP3    H139315   2.010   7.037  14.397 -0.4841 -0.1774  0.4308
 5040TIP3    H239316   2.043   6.973  14.530 -0.5450  0.0196  0.5403
 5041TIP3   OH239317   4.947   2.125  14.417  0.0896 -0.5590  0.0325
 5041TIP3    H139318   4.900   2.160  14.493 -1.1614 -1.6290 -0.2125
 5041TIP3    H239319   5.016   2.189  14.400 -0.4113  0.3500  1.2822
 5042TIP3   OH239320   5.211   6.901  14.528 -0.4140  0.0993  0.0002
 5042TIP3    H139321   5.120   6.928  14.516 -0.4805 -0.1684 -0.1146
 5042TIP3    H239322   5.205   6.807  14.546 -0.1731  0.1147  0.1666
 5043TIP3   OH239323   6.033   3.420  15.790  0.6282 -0.3175  0.0214
 5043TIP3    H139324   6.092   3.361  15.838  0.4251  0.1291  0.8205
 5043TIP3    H239325   6.091   3.471  15.734  0.8820 -0.7069 -0.0780
 5044TIP3   OH239326   0.971   7.748  14.323 -0.3760  0.8639  0.2136
 5044TIP3    H139327   0.935   7.819  14.270 -1.3146 -0.2969 -0.7507
 5044TIP3    H239328   0.969   7.672  14.266  0.2723 -0.0274  1.3459
 5045TIP3   OH239329   3.963   1.465  15.550 -0.3116  0.5332 -0.3303
 5045TIP3    H139330   3.924   1.506  15.627 -0.1513  2.3772 -1.1752
 5045TIP3    H239331   4.057   1.468  15.567 -0.3173  0.2195 -0.2497
 5046TIP3   OH239332   4.353   5.163  15.832 -0.5767 -0.5107 -0.5595
 5046TIP3    H139333   4.296   5.212  15.772  2.3883  0.8247 -2.4953
 5046TIP3    H239334   4.371   5.081  15.786  1.8623  0.5959 -1.7296
 5047TIP3   OH239335   8.309   7.996  15.158  0.3267 -0.7779  0.0560
 5047TIP3    H139336   8.247   7.980  15.088 -0.2799 -0.3761  0.4994
 5047TIP3    H239337   8.356   8.075  15.132  0.0742 -0.6065  0.1236
 5048TIP3   OH239338   7.915   0.049  15.971  0.3293 -0.3690  0.2133
 5048TIP3    H139339   7.981  -0.003  16.017  1.3025 -0.4235 -1.1887
 5048TIP3    H239340   7.932   0.034  15.878 -0.7200  0.7927 -0.2005
 5049TIP3   OH239341   3.225   2.988  13.892 -0.0627 -0.3254 -0.2802
 5049TIP3    H139342   3.314   3.018  13.913 -0.6566  2.2918 -1.2061
 5049TIP3    H239343   3.231   2.956  13.802 -0.1320  0.2467 -0.4913
 5050TIP3   OH239344   3.340   0.179  14.493  0.2224  0.5483 -0.5189
 5050TIP3    H139345   3.306   0.216  14.575  1.7045 -0.8634  0.8119
 5050TIP3    H239346   3.310   0.088  14.494 -1.0146  0.8843 -2.3498
 5051TIP3   OH239347   3.139   2.387  14.870 -0.0027 -0.1277 -0.6170
 5051TIP3    H139348   3.134   2.418  14.779 -1.8516  0.1451 -0.4649
 5051TIP3    H239349   3.157   2.293  14.863 -2.0446 -0.5151 -1.3840
 5052TIP3   OH239350   7.426   1.622  15.623  0.0288 -0.4056  0.1246
 5052TIP3    H139351   7.495   1.555  15.621  0.3942 -0.0382 -1.4582
 5052TIP3    H239352   7.473   1.704  15.636 -0.1224 -0.1843 -0.6791
 5053TIP3   OH239353   0.955   5.271  14.253  0.4142  0.0497  0.0846
 5053TIP3    H139354   0.979   5.250  14.344 -0.1572  0.8270  0.4290
 5053TIP3    H239355   0.916   5.191  14.219  1.2181 -0.4497  0.3177
 5054TIP3   OH239356   7.224   1.483  14.005  0.0017  0.3418  0.3727
 5054TIP3    H139357   7.280   1.418  13.963 -1.4808 -0.6318 -0.1648
 5054TIP3    H239358   7.256   1.567  13.973  0.6692 -0.2364 -0.5102
 5055TIP3   OH239359   7.385   5.132  15.345  0.5278 -0.6147 -0.2586
 5055TIP3    H139360   7.405   5.044  15.314 -0.1805 -0.9036  0.0876
 5055TIP3    H239361   7.308   5.158  15.295 -0.1073 -0.7457  0.6360
 5056TIP3   OH239362   2.817   2.912  14.943  0.5446 -0.4305  0.3494
 5056TIP3    H139363   2.895   2.925  14.997  0.1277  0.1976  0.8239
 5056TIP3    H239364   2.783   2.827  14.970  0.4048 -0.1707  1.0013
 5057TIP3   OH239365   4.673   6.860  15.850  0.1049 -0.2105 -0.3612
 5057TIP3    H139366   4.722   6.802  15.907 -0.9861 -0.0186  0.8191
 5057TIP3    H239367   4.692   6.948  15.883 -1.4988 -0.1671  0.5458
 5058TIP3   OH239368   4.563   4.349  14.749  0.4705 -0.0967  0.1271
 5058TIP3    H139369   4.491   4.329  14.808  0.6691  1.1534  0.8182
 5058TIP3    H239370   4.524   4.347  14.661 -0.8673  2.3235  0.5872
 5059TIP3   OH239371   4.468   0.663  13.883  0.5206 -0.2264  0.6430
 5059TIP3    H139372   4.467   0.737  13.944 -0.1320 -0.5625  1.0490
 5059TIP3    H239373   4.380   0.661  13.845  1.4322  1.1381 -1.7802
 5060TIP3   OH239374   2.341   7.110  13.673 -0.1642 -0.3972  0.2981
 5060TIP3    H139375   2.332   7.016  13.660  0.2828 -0.6529  1.6551
 5060TIP3    H239376   2.375   7.119  13.762  1.2831  0.9819 -0.3450
 5061TIP3   OH239377   2.412   1.602  13.873  0.7120 -0.5559  0.4147
 5061TIP3    H139378   2.464   1.682  13.884  1.1535 -0.3605 -2.2954
 5061TIP3    H239379   2.465   1.533  13.914  0.7417  0.3626  2.0101
 5062TIP3   OH239380   7.054   2.423  15.602  0.0392 -0.3116 -0.0014
 5062TIP3    H139381   6.996   2.379  15.665 -1.3970  0.3645 -0.7913
 5062TIP3    H239382   7.014   2.509  15.590  1.4267  0.3070 -0.3305
 5063TIP3   OH239383   2.812   4.411  14.303  0.3673 -0.0629 -0.3320
 5063TIP3    H139384   2.746   4.341  14.303 -0.7356  0.8165  2.4096
 5063TIP3    H239385   2.781   4.472  14.236 -0.1782 -0.8745 -0.8500
 5064TIP3   OH239386   0.272   4.198  16.337  0.1085  0.2803  0.0438
 5064TIP3    H139387   0.254   4.120  16.285 -0.5257  0.0124  0.6527
 5064TIP3    H239388   0.194   4.252  16.327  0.4891  0.7788 -0.2643
 5065TIP3   OH239389   8.146   4.422  15.999  0.2093 -0.1389  0.1438
 5065TIP3    H139390   8.125   4.351  16.060 -0.0735 -1.0772 -0.9984
 5065TIP3    H239391   8.064   4.437  15.951  0.3049  0.8828  0.2913
 5066TIP3   OH239392   1.686   1.819  15.484 -0.4091 -0.0808 -0.5695
 5066TIP3    H139393   1.598   1.783  15.473  0.1101 -0.8691 -2.4987
 5066TIP3    H239394   1.671   1.911  15.505 -1.6971 -0.6303  1.2785
 5067TIP3   OH239395   8.230   8.175  14.447 -0.0079  0.5832  0.1492
 5067TIP3    H139396   8.293   8.154  14.378  0.9152  0.5860  0.9714
 5067TIP3    H239397   8.195   8.261  14.423  0.8509  0.9155  0.0782
 5068TIP3   OH239398   5.031   6.526  15.373  0.0071 -0.2584 -0.2130
 5068TIP3    H139399   5.063   6.615  15.355  1.9771 -0.3068  2.4400
 5068TIP3    H239400   5.102   6.484  15.421 -1.3571 -2.8964 -0.3279
 5069TIP3   OH239401   6.219   0.747  15.215 -0.2786 -0.6910  0.3844
 5069TIP3    H139402   6.268   0.666  15.206 -0.9259 -1.0786  0.2840
 5069TIP3    H239403   6.271   0.812  15.168 -0.2224 -1.2477 -0.3317
 5070TIP3   OH239404   3.212   5.149  14.746  0.3813  0.0256 -0.0250
 5070TIP3    H139405   3.286   5.210  14.739  0.4956 -0.1057  0.0489
 5070TIP3    H239406   3.137   5.199  14.712  0.1659  0.7217  1.4079
 5071TIP3   OH239407   1.710   1.824  14.188 -0.0023 -0.2657 -0.1843
 5071TIP3    H139408   1.665   1.769  14.252  0.9149 -0.8330 -0.0111
 5071TIP3    H239409   1.666   1.909  14.194 -0.7745 -0.6807  0.2601
 5072TIP3   OH239410   6.448   7.430  15.072 -0.5119  0.4318  0.0517
 5072TIP3    H139411   6.493   7.348  15.054 -1.6055 -0.2262  0.2822
 5072TIP3    H239412   6.511   7.481  15.124  0.2696 -0.1333 -0.3196
 5073TIP3   OH239413   8.207   4.816  15.456 -0.3838  0.4627 -0.3971
 5073TIP3    H139414   8.271   4.747  15.438 -1.1020 -0.3106 -0.0777
 5073TIP3    H239415   8.122   4.775  15.438 -0.8769  0.9732  0.6398
 5074TIP3   OH239416   1.938   6.502  14.727 -0.1021  0.4061  0.3153
 5074TIP3    H139417   1.918   6.451  14.648 -1.1130  0.3223  0.6068
 5074TIP3    H239418   1.986   6.441  14.783  1.0523  0.6143 -0.4210
 5075TIP3   OH239419   1.092   1.340  14.315  0.3648 -0.1179  0.3098
 5075TIP3    H139420   1.021   1.374  14.261  0.0386 -0.6141  0.4233
 5075TIP3    H239421   1.171   1.382  14.280 -0.1680  1.8953  1.3664
 5076TIP3   OH239422   4.155   3.747  14.592 -0.4467  0.1913  0.2072
 5076TIP3    H139423   4.176   3.760  14.499  0.3140  0.2735  0.3881
 5076TIP3    H239424   4.168   3.832  14.632  0.2254 -0.0842  0.5790
 5077TIP3   OH239425   1.761   4.688  14.755  0.2516  0.1061 -0.3795
 5077TIP3    H139426   1.798   4.611  14.797 -0.1510  1.4226  2.7184
 5077TIP3    H239427   1.812   4.761  14.791 -1.0295  1.4550 -1.1841
 5078TIP3   OH239428   2.301   5.372  14.616  0.2926 -0.8339 -0.2063
 5078TIP3    H139429   2.277   5.461  14.588 -1.6024 -1.2156  0.0818
 5078TIP3    H239430   2.384   5.354  14.571  0.7223  1.0684 -0.2660
 5079TIP3   OH239431   0.332   2.999  15.084  0.0582 -0.0052  0.0068
 5079TIP3    H139432   0.288   3.083  15.090 -0.4752 -0.3807  2.5120
 5079TIP3    H239433   0.271   2.937  15.125  1.6199 -1.0617  0.8312
 5080TIP3   OH239434   0.167   6.647  14.834 -0.0646 -0.3969  0.3770
 5080TIP3    H139435   0.168   6.715  14.902 -0.2640 -0.2282  0.2107
 5080TIP3    H239436   0.194   6.568  14.880  0.7086 -0.0987  0.4540
 5081TIP3   OH239437   3.315   5.631  15.636  0.0066 -0.7707  0.1888
 5081TIP3    H139438   3.395   5.669  15.601  0.8922 -1.6041  1.2241
 5081TIP3    H239439   3.249   5.646  15.569  1.3389 -1.2255 -1.2639
 5082TIP3   OH239440   6.956   5.624  14.715 -0.0337  0.1489  0.4609
 5082TIP3    H139441   7.024   5.558  14.732 -0.7084 -0.4541  0.8775
 5082TIP3    H239442   6.970   5.649  14.624  1.0719  0.4201  0.6810
 5083TIP3   OH239443   1.408   2.652  14.796 -0.8155 -0.0791  0.3084
 5083TIP3    H139444   1.470   2.668  14.868  0.1620 -3.1368  0.2597
 5083TIP3    H239445   1.448   2.695  14.720 -1.2015  2.0269  1.1990
 5084TIP3   OH239446   4.980   6.183  15.444 -0.1753  0.7148  0.1439
 5084TIP3    H139447   4.936   6.166  15.527  0.5442  1.4980  0.6949
 5084TIP3    H239448   5.060   6.230  15.468  0.8850 -0.4993 -0.8437
 5085TIP3   OH239449   1.777   7.094  15.411 -0.5353 -0.5645  0.4744
 5085TIP3    H139450   1.737   7.169  15.455 -0.2615 -1.3197  2.0686
 5085TIP3    H239451   1.861   7.128  15.379 -1.0193  0.1627 -0.0575
 5086TIP3   OH239452   6.850   1.738  16.123  0.3601  0.5753 -0.3544
 5086TIP3    H139453   6.765   1.696  16.105  0.6837  0.0639 -0.7058
 5086TIP3    H239454   6.914   1.683  16.078  1.0778 -0.0119  1.3156
 5087TIP3   OH239455   5.904   7.794  14.398 -0.1750  0.1178  0.5028
 5087TIP3    H139456   5.826   7.794  14.454 -0.4005  1.0009  0.2127
 5087TIP3    H239457   5.876   7.840  14.318  0.3024 -0.6307 -0.1086
 5088TIP3   OH239458   3.922   1.671  14.948 -0.3065 -0.3244 -0.1407
 5088TIP3    H139459   3.893   1.749  14.995 -0.6400 -0.9836  0.7924
 5088TIP3    H239460   3.935   1.700  14.858  1.1796  1.1956  0.5043
 5089TIP3   OH239461   7.085   1.190  14.084 -0.0426 -0.4275  0.4977
 5089TIP3    H139462   7.165   1.211  14.131  0.8090 -1.6948 -0.3207
 5089TIP3    H239463   7.096   1.099  14.057 -2.5638 -1.2617  1.9519
 5090TIP3   OH239464   6.558   2.224  13.889 -0.5493  0.1657 -0.1060
 5090TIP3    H139465   6.586   2.137  13.918  1.5717  0.1403 -1.8885
 5090TIP3    H239466   6.511   2.261  13.963 -1.1056 -2.3034  0.8702
 5091TIP3   OH239467   1.328   6.330  15.363  0.1102 -0.0554  0.0838
 5091TIP3    H139468   1.369   6.415  15.377 -0.2005  0.0845  0.1494
 5091TIP3    H239469   1.290   6.337  15.275 -0.5278  0.1308  0.3625
 5092TIP3   OH239470   0.858   3.852  16.336  0.0385 -0.7176  0.0359
 5092TIP3    H139471   0.877   3.936  16.295  0.4839 -1.6766 -1.7986
 5092TIP3    H239472   0.889   3.863  16.427 -0.9630  1.4338  0.1794
 5093TIP3   OH239473   7.554   0.770  15.606 -0.0188 -0.5432 -0.1301
 5093TIP3    H139474   7.592   0.769  15.694 -0.6883  0.5907  0.1989
 5093TIP3    H239475   7.461   0.787  15.621 -0.2389 -0.9265 -1.0285
 5094TIP3   OH239476   6.646   2.574  14.253  0.2786 -0.2340 -0.0290
 5094TIP3    H139477   6.554   2.599  14.262  0.6221  1.2178 -0.3165
 5094TIP3    H239478   6.648   2.513  14.180 -0.4136 -0.0653 -0.1925
 5095TIP3   OH239479   5.185   3.299  15.004 -0.1114  0.1871  0.7375
 5095TIP3    H139480   5.119   3.300  14.935  0.0312 -1.6398  0.5243
 5095TIP3    H239481   5.263   3.336  14.963 -0.4589  0.5390  0.3923
 5096TIP3   OH239482   5.320   5.227  14.829 -0.0137  0.2625  0.0332
 5096TIP3    H139483   5.261   5.262  14.895  0.4766  2.2234 -0.5138
 5096TIP3    H239484   5.273   5.152  14.792 -1.3061  0.5960  0.9370
 5097TIP3   OH239485   5.180   3.542  16.219 -0.3031  0.4720  0.6621
 5097TIP3    H139486   5.170   3.479  16.291  0.2998  2.5434  2.6489
 5097TIP3    H239487   5.245   3.501  16.161 -0.2873 -0.9555  1.6310
 5098TIP3   OH239488   7.917   0.211  14.471 -0.4423  0.1692 -0.3926
 5098TIP3    H139489   7.881   0.193  14.558  0.3521  2.1070  0.3988
 5098TIP3    H239490   7.972   0.288  14.484  0.7297 -0.2758 -2.3779
 5099TIP3   OH239491   6.762   4.928  15.479  0.5320 -0.0387  0.0766
 5099TIP3    H139492   6.827   4.897  15.416  0.7966 -0.5654  0.5886
 5099TIP3    H239493   6.796   5.012  15.509  0.5095  0.1153 -0.3304
 5100TIP3   OH239494   2.894   2.165  14.356  0.2903  0.0171 -0.5262
 5100TIP3    H139495   2.913   2.141  14.446  3.1440  0.6220 -0.8851
 5100TIP3    H239496   2.863   2.255  14.361  0.8148  0.1800 -0.1670
 5101TIP3   OH239497   2.804   4.118  15.141 -0.4026 -0.1466  0.1099
 5101TIP3    H139498   2.817   4.135  15.048 -0.4519  2.0619  0.4474
 5101TIP3    H239499   2.709   4.108  15.150 -0.3212 -1.3208 -0.1884
 5102TIP3   OH239500   6.742   2.859  14.619 -0.0485  0.1402  0.1476
 5102TIP3    H139501   6.733   2.840  14.526 -1.0333 -0.7612  0.4090
 5102TIP3    H239502   6.678   2.929  14.636  0.8358  1.0176 -0.0338
 5103TIP3   OH239503   7.196   2.313  14.052  0.6782  0.0899  1.3931
 5103TIP3    H139504   7.130   2.264  14.102 -0.2353  0.8101  0.9203
 5103TIP3    H239505   7.211   2.260  13.974 -0.8244  0.8597  0.5415
 5104TIP3   OH239506   0.513   3.424  14.889  0.3843 -0.1587  0.5998
 5104TIP3    H139507   0.549   3.479  14.820 -0.5486 -2.5903 -2.0323
 5104TIP3    H239508   0.583   3.361  14.909 -0.5836 -1.8920 -1.0815
 5105TIP3   OH239509   7.799   4.096  16.016  0.1824 -0.3263  0.1657
 5105TIP3    H139510   7.882   4.049  16.005 -0.2504 -0.7645 -1.3710
 5105TIP3    H239511   7.732   4.029  16.010 -0.4330  0.4198 -1.8327
 5106TIP3   OH239512   0.730   5.587  15.766 -0.3209 -0.2321  0.5792
 5106TIP3    H139513   0.689   5.574  15.680  0.1171  1.4259  0.0837
 5106TIP3    H239514   0.760   5.499  15.791 -1.1118 -0.8806 -0.6046
 5107TIP3   OH239515   2.513   6.355  15.244  0.0493  0.1861 -0.3126
 5107TIP3    H139516   2.445   6.293  15.220 -0.5431  1.3997 -1.9704
 5107TIP3    H239517   2.466   6.432  15.276  0.6715  0.7280 -0.6701
 5108TIP3   OH239518   2.995   7.000  14.461  0.1992 -0.1147 -0.1924
 5108TIP3    H139519   3.063   6.992  14.394  0.2573  0.3030 -0.1822
 5108TIP3    H239520   3.034   7.053  14.530 -0.1981  0.2822 -0.2672
 5109TIP3   OH239521   5.328   0.990  15.511  0.2921  0.7059 -0.1047
 5109TIP3    H139522   5.286   0.999  15.597  0.9272  4.2923 -0.0404
 5109TIP3    H239523   5.277   1.046  15.453  0.1021 -1.3612 -2.0795
 5110TIP3   OH239524   3.965   1.253  14.700 -0.4127  0.2281  0.7487
 5110TIP3    H139525   3.914   1.281  14.623  0.0003  1.9442  1.0387
 5110TIP3    H239526   3.908   1.270  14.774 -1.1429 -2.2441  0.8258
 5111TIP3   OH239527   6.878   6.641  15.848 -0.8722  0.3861  0.5613
 5111TIP3    H139528   6.813   6.687  15.794 -1.5719  1.4138  2.1569
 5111TIP3    H239529   6.902   6.706  15.915 -0.3112 -0.9091  1.6611
 5112TIP3   OH239530   1.686   0.735  15.380  0.0135 -0.7756  0.4303
 5112TIP3    H139531   1.674   0.733  15.475 -0.0618  1.2287  0.5053
 5112TIP3    H239532   1.778   0.757  15.367 -0.1996 -0.0712  0.0646
 5113TIP3   OH239533   3.372   4.682  14.697 -0.3910 -0.1010 -0.1500
 5113TIP3    H139534   3.323   4.622  14.641 -1.6581 -0.0521  0.8480
 5113TIP3    H239535   3.306   4.745  14.727  0.4058  0.2946  0.8234
 5114TIP3   OH239536   7.654   7.857  15.438  0.7091  0.3503 -0.0459
 5114TIP3    H139537   7.584   7.913  15.471  0.8130  1.0604 -1.0015
 5114TIP3    H239538   7.627   7.769  15.463  0.2108  0.7458  0.8852
 5115TIP3   OH239539   6.736   2.147  16.119  0.0420  0.2188 -0.8013
 5115TIP3    H139540   6.656   2.094  16.119  0.3865 -0.3291  0.5639
 5115TIP3    H239541   6.798   2.097  16.171  0.2777  2.1018  0.8333
 5116TIP3   OH239542   3.952   3.488  15.102  0.0168 -0.4151 -0.2245
 5116TIP3    H139543   3.884   3.457  15.043 -0.6178  0.9038 -0.2251
 5116TIP3    H239544   3.966   3.579  15.076 -0.6165  0.3587  1.9248
 5117TIP3   OH239545   7.201   7.274  15.094  0.0658  0.3484  0.1549
 5117TIP3    H139546   7.172   7.333  15.164  2.2714  1.2543  0.4006
 5117TIP3    H239547   7.279   7.231  15.130 -0.3838 -1.3043 -0.7505
 5118TIP3   OH239548   5.130   4.845  14.136 -0.0728 -0.4306 -0.1020
 5118TIP3    H139549   5.041   4.813  14.152 -0.2853  0.4188  0.4589
 5118TIP3    H239550   5.119   4.938  14.116  0.6972 -0.3067  0.0241
 5119TIP3   OH239551   7.661   6.039  14.824  0.5575  0.3149  0.3676
 5119TIP3    H139552   7.669   6.090  14.744  0.8559  0.1993  0.3225
 5119TIP3    H239553   7.733   6.069  14.879  2.4020 -1.8806 -0.6756
 5120TIP3   OH239554   7.680   4.351  15.853 -0.3084 -0.0402 -0.2335
 5120TIP3    H139555   7.600   4.366  15.903  0.1305  1.4153  0.0552
 5120TIP3    H239556   7.683   4.255  15.842 -0.9745 -0.3071  1.5802
 5121TIP3   OH239557   7.165   7.193  15.953  0.2315 -0.3297 -0.0897
 5121TIP3    H139558   7.160   7.107  15.993 -0.2519  0.1565  0.9551
 5121TIP3    H239559   7.232   7.239  16.003 -1.8007  0.9736  1.6285
 5122TIP3   OH239560   2.193   2.008  15.304  0.6305  0.7816  0.0255
 5122TIP3    H139561   2.132   1.984  15.373  0.4666 -1.5050 -0.8304
 5122TIP3    H239562   2.273   1.960  15.325  1.4324  2.0462 -0.0401
 5123TIP3   OH239563   3.500   3.699  15.965  0.2733  0.5207 -0.2373
 5123TIP3    H139564   3.436   3.667  15.902 -0.0607  0.1658  0.2715
 5123TIP3    H239565   3.478   3.791  15.978  0.6400  0.7212 -0.9890
 5124TIP3   OH239566   4.136   7.757  15.818  0.3679  0.2972 -0.4406
 5124TIP3    H139567   4.093   7.673  15.802  0.0290  0.0877  1.3945
 5124TIP3    H239568   4.077   7.821  15.778  1.2039 -0.3463 -2.9113
 5125TIP3   OH239569   4.341   6.343  14.554  0.3572 -0.4749 -0.3642
 5125TIP3    H139570   4.417   6.293  14.583  0.3088 -0.3438 -0.0091
 5125TIP3    H239571   4.309   6.295  14.477  1.2701 -0.0805 -1.0088
 5126TIP3   OH239572   0.957   2.077  14.144 -0.1194  0.3110 -0.0604
 5126TIP3    H139573   0.904   2.047  14.070 -0.4026 -0.9055  0.6084
 5126TIP3    H239574   0.919   2.033  14.220  1.6298 -0.3023  0.5036
 5127TIP3   OH239575   8.407   1.363  14.092  0.4438 -0.5957 -0.0607
 5127TIP3    H139576   8.385   1.369  14.185  1.4405 -2.4955  0.3555
 5127TIP3    H239577   8.490   1.410  14.083 -0.4388  0.9977 -0.3641
 5128TIP3   OH239578   8.440   0.985  14.528 -0.4548  0.0342 -0.5595
 5128TIP3    H139579   8.450   1.025  14.442 -1.5710  0.8339 -0.3463
 5128TIP3    H239580   8.437   1.060  14.588  1.3715 -0.5412  0.3195
 5129TIP3   OH239581   1.113   3.247  14.581  0.1622 -0.3892  0.3272
 5129TIP3    H139582   1.097   3.175  14.520 -1.2478  0.0728  0.1136
 5129TIP3    H239583   1.128   3.323  14.525 -1.1853  0.0463  0.5075
 5130TIP3   OH239584   8.292   4.864  16.036  0.5575  0.3435  0.0560
 5130TIP3    H139585   8.309   4.773  16.058  0.7963  0.6925  1.4204
 5130TIP3    H239586   8.261   4.862  15.946  0.8046 -1.0544 -0.0150
 5131TIP3   OH239587   2.063   2.352  14.715  0.2704  0.2625  0.4675
 5131TIP3    H139588   2.060   2.335  14.809  0.5669  0.2251  0.4695
 5131TIP3    H239589   2.054   2.266  14.674 -1.9886  0.4517  0.4223
 5132TIP3   OH239590   2.516   5.205  15.243 -0.2277 -0.2888 -0.2578
 5132TIP3    H139591   2.533   5.299  15.244  1.6102 -0.5490  2.1869
 5132TIP3    H239592   2.589   5.167  15.195  0.6697 -0.6447  1.3278
 5133TIP3   OH239593   1.912   5.840  14.610 -0.7962 -0.3877  0.1166
 5133TIP3    H139594   1.926   5.748  14.587 -1.8651  0.3434 -4.4174
 5133TIP3    H239595   1.817   5.848  14.619 -0.6745  0.1872  0.9180
 5134TIP3   OH239596   3.853   0.192  15.331  0.6192  0.2002  0.0377
 5134TIP3    H139597   3.772   0.160  15.293 -0.5071  0.4509  2.0595
 5134TIP3    H239598   3.917   0.124  15.312 -0.5631 -0.9844  0.1398
 5135TIP3   OH239599   2.838   2.298  15.635 -0.2005 -0.0279  0.2323
 5135TIP3    H139600   2.829   2.323  15.543  0.2685  0.3875  0.2940
 5135TIP3    H239601   2.918   2.245  15.637  0.0837  0.3996  0.4777
 5136TIP3   OH239602   0.384   4.894  14.834 -0.9076 -0.1772 -0.0681
 5136TIP3    H139603   0.362   4.986  14.845 -0.0755 -0.0772  0.8391
 5136TIP3    H239604   0.386   4.881  14.739 -0.6739  0.8194 -0.2066
 5137TIP3   OH239605   5.041   2.508  14.925 -0.3857 -0.7696 -0.6919
 5137TIP3    H139606   4.986   2.434  14.954 -1.2404  0.0985 -0.0214
 5137TIP3    H239607   4.980   2.580  14.915  0.8230  0.7124  1.7365
 5138TIP3   OH239608   1.625   6.418  15.746 -0.1026  0.6239 -0.8522
 5138TIP3    H139609   1.697   6.376  15.699 -0.0119  2.8696 -2.8989
 5138TIP3    H239610   1.665   6.492  15.791 -0.8266  0.7768 -0.4447
 5139TIP3   OH239611   1.018   3.295  15.015 -0.2691 -0.0479 -0.0038
 5139TIP3    H139612   0.974   3.375  15.041  0.0093  0.5015 -1.1539
 5139TIP3    H239613   0.947   3.231  15.003 -0.6155  0.3897 -0.3159
 5140TIP3   OH239614   0.049   6.979  14.502 -0.3736  0.1953  0.6950
 5140TIP3    H139615   0.004   6.968  14.586 -0.4683  0.3905  0.6702
 5140TIP3    H239616   0.050   7.073  14.488 -1.8845  0.0860 -0.3439
 5141TIP3   OH239617   7.140   2.023  14.811  0.4675  0.4147 -0.5389
 5141TIP3    H139618   7.186   2.104  14.789 -0.4810  1.2720  0.4836
 5141TIP3    H239619   7.145   2.018  14.907 -0.1710 -0.3197 -0.5319
 5142TIP3   OH239620   5.707   2.897  14.990 -0.3992 -0.3977 -0.3148
 5142TIP3    H139621   5.655   2.954  14.933  0.0458 -0.6893 -1.0228
 5142TIP3    H239622   5.677   2.918  15.079 -1.6517 -0.4851 -0.7012
 5143TIP3   OH239623   8.078   7.701  14.992 -0.4679  0.7348  0.1768
 5143TIP3    H139624   8.110   7.697  15.082  0.0249  1.1722  0.0234
 5143TIP3    H239625   8.127   7.772  14.952 -0.4520  0.3337 -0.5318
 5144TIP3   OH239626   2.423   4.773  14.892 -0.1625 -0.3302 -0.0259
 5144TIP3    H139627   2.409   4.741  14.981 -0.2836  0.7301  0.3509
 5144TIP3    H239628   2.515   4.798  14.889  0.5973 -2.9397 -1.0768
 5145TIP3   OH239629   3.499   6.556  15.831 -0.2601  0.2382 -0.1333
 5145TIP3    H139630   3.519   6.502  15.907 -0.8115  0.8296  0.4512
 5145TIP3    H239631   3.406   6.540  15.815 -0.3536  0.7698 -0.1403
 5146TIP3   OH239632   1.191   4.681  15.141  0.2666  1.0014  0.1053
 5146TIP3    H139633   1.164   4.732  15.216  1.3883  2.5469 -0.4914
 5146TIP3    H239634   1.263   4.731  15.102  0.0157  0.0295 -1.7358
 5147TIP3   OH239635   1.073   2.104  14.880  0.3362 -0.1057  0.0122
 5147TIP3    H139636   1.016   2.039  14.922  0.0380 -1.0222 -1.7233
 5147TIP3    H239637   1.117   2.147  14.953 -1.9582  0.0874  1.3944
 5148TIP3   OH239638   8.397   0.825  15.580 -0.1649  0.6093  0.3579
 5148TIP3    H139639   8.385   0.887  15.508  1.2205  0.6376  0.1206
 5148TIP3    H239640   8.491   0.829  15.600 -0.1604 -0.9055  0.7915
 5149TIP3   OH239641   4.063   5.937  15.391  0.2783 -0.2688 -0.3189
 5149TIP3    H139642   3.991   5.993  15.420 -0.9810 -0.4450 -2.8878
 5149TIP3    H239643   4.021   5.860  15.354  1.7764 -0.5796 -1.4780
 5150TIP3   OH239644   7.652   2.868  16.091  0.1869  0.7338  0.2123
 5150TIP3    H139645   7.617   2.903  16.174  0.4923  0.9789  0.2372
 5150TIP3    H239646   7.613   2.923  16.024  0.3672  0.8786  0.2266
 5151TIP3   OH239647   5.069   7.669  15.711 -0.1176 -0.4729  0.2093
 5151TIP3    H139648   5.089   7.701  15.799  1.0728 -0.4538 -0.0594
 5151TIP3    H239649   4.983   7.629  15.720 -0.8064  1.0662  0.9904
 5152TIP3   OH239650   2.841   0.048  15.593 -0.0662 -0.5456 -0.1707
 5152TIP3    H139651   2.820  -0.046  15.587 -0.1092 -0.5527  0.0965
 5152TIP3    H239652   2.782   0.089  15.529 -1.7687 -0.4345  1.3812
 5153TIP3   OH239653   6.512   5.938  15.581  0.4064  0.2812  0.3194
 5153TIP3    H139654   6.574   5.908  15.514  1.1377  1.0599  0.6199
 5153TIP3    H239655   6.537   5.890  15.660  0.9150  0.8894  0.5428
 5154TIP3   OH239656   4.196   6.442  15.747 -0.2411  0.0635 -0.2799
 5154TIP3    H139657   4.232   6.368  15.796 -0.1632 -0.6528 -1.3808
 5154TIP3    H239658   4.220   6.519  15.798 -0.7675 -0.6859  1.1646
 5155TIP3   OH239659   6.078   8.106  15.601 -0.0793  0.0802 -0.0110
 5155TIP3    H139660   6.061   8.191  15.641 -0.7551  2.1611 -4.1984
 5155TIP3    H239661   6.000   8.087  15.549  0.9736 -1.9421 -0.9879
 5156TIP3   OH239662   8.375   6.018  14.565  0.1853  0.5385  0.5000
 5156TIP3    H139663   8.319   6.010  14.488 -0.6968 -0.3750  1.2061
 5156TIP3    H239664   8.463   6.028  14.530 -0.3078  1.0859 -0.6258
 5157TIP3   OH239665   1.747   6.870  14.579  0.3802 -0.4185  0.3890
 5157TIP3    H139666   1.701   6.935  14.633  1.0083  0.1670  0.2283
 5157TIP3    H239667   1.824   6.916  14.546  0.3479 -0.9716 -0.4852
 5158TIP3   OH239668   7.088   1.600  14.721  0.3030 -0.0868 -0.5845
 5158TIP3    H139669   7.180   1.627  14.715  0.7929 -1.7063 -0.6616
 5158TIP3    H239670   7.068   1.562  14.636 -0.4964  0.3678 -0.6138
 5159TIP3   OH239671   5.008   2.361  15.701 -0.1430  0.0439  0.2552
 5159TIP3    H139672   5.100   2.385  15.701 -0.5346  1.6167  0.6014
 5159TIP3    H239673   4.981   2.366  15.609  0.1223 -0.5049  0.1422
 5160TIP3   OH239674   4.177   7.023  15.854 -0.0119 -0.3939  0.4119
 5160TIP3    H139675   4.233   6.945  15.859  2.5360  1.3299  0.4347
 5160TIP3    H239676   4.117   7.014  15.928  2.4713 -0.7456  2.5309
 5161TIP3   OH239677   1.524   5.181  14.688 -0.0989  0.1739 -0.5468
 5161TIP3    H139678   1.585   5.113  14.660 -1.8907 -1.7331 -0.0043
 5161TIP3    H239679   1.538   5.189  14.782 -0.6846 -0.3035 -0.4128
 5162TIP3   OH239680   5.500   0.912  14.304 -0.9355  0.1577  0.3372
 5162TIP3    H139681   5.486   0.924  14.210 -1.1777 -0.3529  0.3058
 5162TIP3    H239682   5.505   1.001  14.339  2.6801  0.4935 -0.6372
 5163TIP3   OH239683   5.551   3.516  15.017  0.4475  0.6592 -0.0094
 5163TIP3    H139684   5.620   3.450  15.029 -0.4008 -0.4557 -1.0137
 5163TIP3    H239685   5.515   3.529  15.105  1.0960  0.3113  0.3177
 5164TIP3   OH239686   3.853   7.540  15.622 -0.3841  0.4589  0.5015
 5164TIP3    H139687   3.806   7.477  15.568 -1.5269 -0.9940  3.0275
 5164TIP3    H239688   3.787   7.604  15.648  0.5553  2.2485 -1.1997
 5165TIP3   OH239689   2.093   4.856  15.445  0.1022 -0.2170  0.0229
 5165TIP3    H139690   2.164   4.794  15.428  1.2207  0.7324  0.9925
 5165TIP3    H239691   2.076   4.896  15.360 -2.2614 -3.3763 -1.1763
 5166TIP3   OH239692   0.455   7.027  15.204 -0.0328  0.1315  0.1683
 5166TIP3    H139693   0.492   7.101  15.156 -0.0001  1.9051  2.7234
 5166TIP3    H239694   0.363   7.051  15.219 -0.7581 -1.6032 -1.1951
 5167TIP3   OH239695   4.131   6.045  15.710 -0.3592 -0.0848  0.1666
 5167TIP3    H139696   4.084   6.071  15.630  2.0556 -0.6245 -1.5547
 5167TIP3    H239697   4.151   6.128  15.753 -0.8804  0.2915 -0.2969
 5168TIP3   OH239698   7.494   4.675  16.352  0.2343  0.4200  0.0093
 5168TIP3    H139699   7.569   4.626  16.317 -0.1674 -0.1128 -0.1182
 5168TIP3    H239700   7.427   4.669  16.284  0.3763  1.6515 -0.2665
 5169TIP3   OH239701   0.357   0.529  14.249  0.3045  0.5923 -0.0182
 5169TIP3    H139702   0.347   0.622  14.230  1.2853  1.2379  2.2538
 5169TIP3    H239703   0.437   0.503  14.204  0.3269  0.9809 -0.2046
 5170TIP3   OH239704   4.853   1.190  16.258  0.1923  0.4263  0.2884
 5170TIP3    H139705   4.873   1.279  16.230  1.7231  0.1890  0.5063
 5170TIP3    H239706   4.786   1.200  16.325 -1.2115  1.2393 -1.1817
 5171TIP3   OH239707   5.679   1.085  15.622  0.0249 -0.8296 -0.2500
 5171TIP3    H139708   5.606   1.128  15.665  1.7868  1.4000  0.7194
 5171TIP3    H239709   5.690   1.131  15.539  0.1604 -1.3287 -0.5150
 5172TIP3   OH239710   2.901   7.587  14.247 -0.1702 -0.3291 -0.0018
 5172TIP3    H139711   2.973   7.598  14.186  2.6759  0.3798  3.1424
 5172TIP3    H239712   2.822   7.598  14.194  2.0101  0.6922 -3.3659
 5173TIP3   OH239713   5.686   5.376  14.565 -0.2263  0.0746 -0.2483
 5173TIP3    H139714   5.664   5.438  14.495 -1.0502  0.7588  0.5910
 5173TIP3    H239715   5.778   5.353  14.549 -0.5354 -0.1703 -1.8299
 5174TIP3   OH239716   5.994   1.683  14.517 -0.3827 -0.1258  0.1368
 5174TIP3    H139717   5.969   1.728  14.436  0.6542 -0.8808 -0.6472
 5174TIP3    H239718   6.001   1.591  14.491  0.5294 -0.3033  0.9368
 5175TIP3   OH239719   2.023   2.398  14.381  0.0765 -0.2353  0.2169
 5175TIP3    H139720   2.008   2.458  14.454  0.5524  1.4023 -0.9842
 5175TIP3    H239721   1.939   2.393  14.336  0.3113  0.3512 -0.2840
 5176TIP3   OH239722   6.412   7.001  15.499 -0.0461  0.8717 -0.1446
 5176TIP3    H139723   6.353   7.073  15.522 -0.5112  0.4350  0.0592
 5176TIP3    H239724   6.380   6.970  15.414 -1.7903 -1.0381  1.0958
 5177TIP3   OH239725   7.187   4.357  14.979 -0.7680 -0.5430 -0.3185
 5177TIP3    H139726   7.140   4.438  14.956 -0.4916 -0.3091 -0.0538
 5177TIP3    H239727   7.278   4.374  14.956 -0.9193 -1.2880 -1.5969
 5178TIP3   OH239728   5.142   6.048  15.168  0.5980  0.1579  0.3387
 5178TIP3    H139729   5.055   6.089  15.163  0.6505  0.1460 -2.9721
 5178TIP3    H239730   5.201   6.120  15.191  0.3240  1.5694 -2.8021
 5179TIP3   OH239731   3.561   4.482  14.727 -0.4747  0.0437 -0.4301
 5179TIP3    H139732   3.504   4.552  14.695 -1.9752 -1.7513 -1.9708
 5179TIP3    H239733   3.502   4.407  14.741  1.1061 -1.0493  0.7712
 5180TIP3   OH239734   2.369   0.712  13.986  0.0758  0.1026 -0.6048
 5180TIP3    H139735   2.377   0.714  13.890 -0.3732  3.1666 -0.6723
 5180TIP3    H239736   2.457   0.731  14.017  0.1722 -0.6727 -0.3751
 5181TIP3   OH239737   4.137   4.102  15.153  0.2930  0.0009  0.3202
 5181TIP3    H139738   4.119   4.194  15.171 -0.6656 -0.3328  1.2030
 5181TIP3    H239739   4.171   4.101  15.064  2.1875  1.4074  0.9797
 5182TIP3   OH239740   2.828   7.303  15.872 -0.4044 -0.4823 -0.0552
 5182TIP3    H139741   2.816   7.392  15.905 -2.6899 -1.0870  0.9984
 5182TIP3    H239742   2.871   7.314  15.788  0.9064  1.4862  0.7986
 5183TIP3   OH239743   4.507   7.232  15.852  0.2392  0.4391 -0.0186
 5183TIP3    H139744   4.412   7.224  15.848  0.2907 -0.9779  0.9011
 5183TIP3    H239745   4.538   7.187  15.773  0.1245  2.9233 -1.5930
 5184TIP3   OH239746   3.972   4.862  14.350 -0.0946  0.1890  0.4661
 5184TIP3    H139747   3.990   4.876  14.443 -0.0681  0.7117  0.3843
 5184TIP3    H239748   4.056   4.834  14.313  0.1453  0.9434  0.4163
 5185TIP3   OH239749   1.443   6.565  15.520 -0.4832 -0.5349 -0.4323
 5185TIP3    H139750   1.420   6.651  15.553 -2.4054 -0.1877 -2.4332
 5185TIP3    H239751   1.413   6.504  15.587 -1.1657  0.2706  0.0133
 5186TIP3   OH239752   2.382   2.231  14.865  0.0390  0.4498  0.4991
 5186TIP3    H139753   2.350   2.254  14.953  0.4470  0.8192  0.5552
 5186TIP3    H239754   2.463   2.281  14.855 -0.2593  0.7948 -0.2824
 5187TIP3   OH239755   6.024   1.351  15.896 -0.3134  0.2519  0.0072
 5187TIP3    H139756   5.969   1.278  15.866 -1.6724  1.0617  0.4544
 5187TIP3    H239757   6.027   1.411  15.821  0.9901 -0.3232 -0.4397
 5188TIP3   OH239758   5.532   5.256  15.893  0.1098 -0.2559  0.6983
 5188TIP3    H139759   5.441   5.244  15.867 -0.3597  0.9202  1.7123
 5188TIP3    H239760   5.545   5.351  15.892  1.4598 -0.4243  0.1499
 5189TIP3   OH239761   3.927   7.156  13.517  0.1028  0.2780 -0.0054
 5189TIP3    H139762   3.988   7.087  13.543 -0.5518 -0.6459 -0.8333
 5189TIP3    H239763   3.977   7.237  13.523  1.0505 -0.3365  0.4682
 5190TIP3   OH239764   1.198   4.155  15.455 -0.3236  0.2174 -0.2258
 5190TIP3    H139765   1.225   4.227  15.397  0.4842 -0.9932 -1.4289
 5190TIP3    H239766   1.247   4.080  15.423 -1.0406 -0.8487  1.0956
 5191TIP3   OH239767   4.307   0.939  13.923 -0.3052  0.8840 -0.4378
 5191TIP3    H139768   4.302   1.033  13.904  1.6737  1.3159  0.8422
 5191TIP3    H239769   4.222   0.919  13.964  0.4930  3.0367  2.6945
 5192TIP3   OH239770   7.910   2.505  14.656 -0.0410  0.2336  0.1096
 5192TIP3    H139771   7.850   2.562  14.608 -0.8732 -1.9685 -1.6295
 5192TIP3    H239772   7.887   2.517  14.748 -1.5594  1.1785 -0.3573
 5193TIP3   OH239773   6.243   2.202  16.013  0.7912 -0.1898 -0.6075
 5193TIP3    H139774   6.304   2.175  16.082  1.9064  0.3284 -1.3680
 5193TIP3    H239775   6.201   2.121  15.986  0.9625 -0.5262  0.0916
 5194TIP3   OH239776   8.117   5.354  15.649  0.2932 -0.5971 -0.0405
 5194TIP3    H139777   8.179   5.390  15.585  0.1327 -0.1905  0.0344
 5194TIP3    H239778   8.105   5.263  15.621 -0.0386 -0.3268 -0.7918
 5195TIP3   OH239779   4.554   2.905  15.327 -0.2772 -0.2059  0.5777
 5195TIP3    H139780   4.595   2.821  15.350 -0.3226 -0.3911 -0.0074
 5195TIP3    H239781   4.602   2.970  15.379 -0.8803 -0.6860  1.7846
 5196TIP3   OH239782   1.555   5.803  15.818 -0.0970 -0.0873 -0.1751
 5196TIP3    H139783   1.492   5.873  15.798  1.7265  1.7439  0.2087
 5196TIP3    H239784   1.562   5.803  15.913 -1.2898 -1.9833 -0.0366
 5197TIP3   OH239785   6.991   1.961  16.202  0.2537  0.0673 -0.4973
 5197TIP3    H139786   7.085   1.950  16.189  0.8551  0.0117  2.9145
 5197TIP3    H239787   6.954   1.873  16.188  1.0938 -0.4432  0.3256
 5198TIP3   OH239788   6.816   3.912  16.082 -0.3056 -0.1050 -0.3684
 5198TIP3    H139789   6.822   4.007  16.092  1.8574 -0.2916  0.5577
 5198TIP3    H239790   6.731   3.889  16.119 -0.1122  1.2798  1.0112
 5199TIP3   OH239791   8.270   1.593  15.213 -0.3328 -0.3760 -0.2290
 5199TIP3    H139792   8.365   1.580  15.218 -0.4119 -0.5132  1.6987
 5199TIP3    H239793   8.235   1.505  15.200 -0.2752 -0.6684  1.3582
 5200TIP3   OH239794   2.928   3.398  14.232 -0.2346  0.7195  0.9704
 5200TIP3    H139795   2.944   3.327  14.295 -0.3255  1.3351  1.6942
 5200TIP3    H239796   2.894   3.470  14.285 -2.2152  0.5950 -0.0686
 5201TIP3   OH239797   7.336   0.039  14.802  0.3359  0.1027 -0.6480
 5201TIP3    H139798   7.368   0.106  14.742 -0.6069 -0.4453 -1.8138
 5201TIP3    H239799   7.267   0.084  14.851  0.8965  0.4663 -0.1801
 5202TIP3   OH239800   3.143   1.860  14.787  0.6650 -0.0477  0.1185
 5202TIP3    H139801   3.128   1.863  14.692 -0.1363 -2.4856  0.0945
 5202TIP3    H239802   3.204   1.788  14.799  1.1848  0.5902  1.4514
 5203TIP3   OH239803   2.254   6.955  15.692  0.2325  0.1527  0.9344
 5203TIP3    H139804   2.236   6.920  15.604 -0.4388 -0.0984  1.1670
 5203TIP3    H239805   2.179   7.011  15.711  0.2992  0.0783  1.4170
 5204TIP3   OH239806   4.401   5.596  14.789  0.0789  0.0217 -0.0824
 5204TIP3    H139807   4.447   5.549  14.719 -1.0479 -0.4159 -0.5495
 5204TIP3    H239808   4.416   5.688  14.770  0.5641 -0.1136 -0.3628
 5205TIP3   OH239809   6.703   0.264  14.729 -0.2447 -0.1768  0.0977
 5205TIP3    H139810   6.742   0.350  14.716 -1.1988  0.6718  2.2398
 5205TIP3    H239811   6.758   0.223  14.795  0.7714 -1.6595 -1.6069
 5206TIP3   OH239812   5.695   1.645  15.435  0.1578  0.6511  0.2335
 5206TIP3    H139813   5.654   1.686  15.359  0.4708 -0.1699 -0.3901
 5206TIP3    H239814   5.787   1.637  15.411  0.3478  0.7938  0.8888
 5207TIP3   OH239815   4.840   2.177  15.821  0.2055 -0.0234 -0.1810
 5207TIP3    H139816   4.875   2.261  15.790 -0.0042  0.0074 -0.3315
 5207TIP3    H239817   4.904   2.147  15.886  0.2204  0.3084 -0.0429
 5208TIP3   OH239818   7.958   6.452  14.854 -0.0714  0.4512  0.2513
 5208TIP3    H139819   8.036   6.444  14.800 -0.1655 -2.7449  0.4094
 5208TIP3    H239820   7.990   6.461  14.944  0.0801  0.7635  0.1672
 5209TIP3   OH239821   0.503   4.636  14.692 -0.2923  0.3506  0.0661
 5209TIP3    H139822   0.437   4.593  14.746  1.1399  0.9624  2.4501
 5209TIP3    H239823   0.455   4.703  14.645 -1.8176 -1.0218 -0.4473
 5210TIP3   OH239824   2.157   5.319  15.744  0.3722  0.8462  0.4986
 5210TIP3    H139825   2.104   5.397  15.765  1.9677  1.6661  1.6342
 5210TIP3    H239826   2.179   5.330  15.652  0.9787  2.0236  0.7615
 5211TIP3   OH239827   0.687   6.914  14.870 -0.0039  0.1534  0.1661
 5211TIP3    H139828   0.681   6.945  14.780 -0.3486  0.1619  0.1910
 5211TIP3    H239829   0.762   6.960  14.907 -0.4146  0.8359  0.1578
 5212TIP3   OH239830   8.246   3.575  15.587  0.6987 -0.2560 -0.7557
 5212TIP3    H139831   8.263   3.481  15.578  2.1943 -0.1284  0.4113
 5212TIP3    H239832   8.333   3.615  15.586  0.0554  1.2045 -1.8589
 5213TIP3   OH239833   1.675   6.156  15.072  0.3456 -0.5441 -0.7493
 5213TIP3    H139834   1.725   6.237  15.063 -1.0407  0.5150  0.4308
 5213TIP3    H239835   1.649   6.155  15.165  0.1395 -2.2322 -0.7996
 5214TIP3   OH239836   2.978   1.371  13.899  0.1655  0.1223 -0.3312
 5214TIP3    H139837   2.957   1.385  13.807 -2.1098  1.3728  0.2855
 5214TIP3    H239838   2.905   1.319  13.932  0.0105  1.1785  1.1070
 5215TIP3   OH239839   5.749   2.802  14.655  0.1408  1.0691  0.0333
 5215TIP3    H139840   5.743   2.713  14.619 -0.1021  0.7563  0.8273
 5215TIP3    H239841   5.716   2.858  14.585 -0.7055  0.4305 -0.1004
 5216TIP3   OH239842   1.473   7.140  15.687  0.5890  0.2089 -0.3706
 5216TIP3    H139843   1.560   7.171  15.660  1.6887 -1.3335  1.1211
 5216TIP3    H239844   1.438   7.095  15.610  2.7762 -2.3537 -0.0391
 5217TIP3   OH239845   0.287   2.399  15.414 -0.4301 -0.3067 -0.0521
 5217TIP3    H139846   0.273   2.476  15.359 -1.3017  0.0027  0.5841
 5217TIP3    H239847   0.299   2.434  15.502  0.4571 -0.8272  0.0429
 5218TIP3   OH239848   5.627   3.450  15.563  0.6017 -0.0921  0.2284
 5218TIP3    H139849   5.542   3.485  15.538  1.5352  1.1146 -1.5100
 5218TIP3    H239850   5.675   3.525  15.599  0.7779 -0.8702  1.6788
 5219TIP3   OH239851   0.948   7.895  15.840 -0.2591  0.9209  0.2752
 5219TIP3    H139852   0.949   7.799  15.849 -1.2096  0.4008 -3.4796
 5219TIP3    H239853   0.865   7.921  15.881  0.1361  0.2385  1.5847
 5220TIP3   OH239854   7.554   3.234  15.231 -0.4008  0.2314  0.3709
 5220TIP3    H139855   7.596   3.270  15.310  0.2542  0.0368  0.1218
 5220TIP3    H239856   7.601   3.276  15.159 -1.1096  0.5358  0.0815
 5221TIP3   OH239857   3.691   7.112  15.260 -0.1215  0.2757  0.0801
 5221TIP3    H139858   3.757   7.128  15.193  1.3257 -2.8970  0.5792
 5221TIP3    H239859   3.614   7.160  15.230  1.4262  1.4954 -2.1851
 5222TIP3   OH239860   0.810   5.432  15.295 -0.0148  0.7800 -0.4124
 5222TIP3    H139861   0.837   5.514  15.336 -0.4400  1.6965 -1.9188
 5222TIP3    H239862   0.859   5.365  15.342  1.1076  1.9696  0.1708
 5223TIP3   OH239863   0.723   1.499  15.129 -0.0630 -0.5796  0.3115
 5223TIP3    H139864   0.681   1.440  15.193 -1.2933  0.3938  0.4368
 5223TIP3    H239865   0.651   1.550  15.092  0.7939 -0.2141 -0.9252
 5224TIP3   OH239866   5.895   7.336  15.879 -0.0819 -0.2007  0.0994
 5224TIP3    H139867   5.932   7.329  15.966 -0.5710  0.3938  0.3655
 5224TIP3    H239868   5.813   7.287  15.883 -0.1014 -0.1796 -0.0272
 5225TIP3   OH239869   8.246   2.496  14.407  0.7631  0.4830 -0.0575
 5225TIP3    H139870   8.279   2.528  14.323  2.3508  1.0528  0.7471
 5225TIP3    H239871   8.216   2.575  14.452  0.0629  0.1984 -0.0148
 5226TIP3   OH239872   3.467   5.177  14.234 -0.1314 -0.1282  0.1000
 5226TIP3    H139873   3.385   5.130  14.218 -0.5783  0.3949  0.8039
 5226TIP3    H239874   3.482   5.167  14.327  0.4891 -0.0203  0.0127
 5227TIP3   OH239875   0.534   2.831  15.018  0.1498  0.3832  0.2479
 5227TIP3    H139876   0.578   2.808  15.099 -2.2531 -2.3908  0.9430
 5227TIP3    H239877   0.465   2.893  15.045  1.2722  1.9194 -0.2614
 5228TIP3   OH239878   8.354   4.350  15.812 -0.9141 -0.0888 -0.1052
 5228TIP3    H139879   8.283   4.372  15.872 -0.7510 -0.8096  0.3728
 5228TIP3    H239880   8.311   4.337  15.728 -1.3241 -0.2749  0.1280
 5229TIP3   OH239881   6.720   4.096  15.372 -0.0754 -0.8269  0.0098
 5229TIP3    H139882   6.713   4.010  15.414  0.7619 -2.2166 -2.4503
 5229TIP3    H239883   6.660   4.091  15.297 -0.3936  0.9496  0.0950
 5230TIP3   OH239884   1.881   8.440  14.403  0.1269 -0.2526 -0.0086
 5230TIP3    H139885   1.809   8.415  14.345  0.1537  0.4301 -0.3450
 5230TIP3    H239886   1.920   8.357  14.430 -0.4227 -0.6070 -0.2901
 5231TIP3   OH239887   2.528   5.854  15.356  0.3310 -0.0522 -0.2645
 5231TIP3    H139888   2.613   5.886  15.326  0.6542  0.0659  0.7624
 5231TIP3    H239889   2.475   5.934  15.366  0.1167 -0.1181 -0.8018
 5232TIP3   OH239890   2.707   1.587  14.001  0.8727 -0.1199 -0.0438
 5232TIP3    H139891   2.784   1.562  14.052  0.2775  0.6843  1.3113
 5232TIP3    H239892   2.655   1.507  13.996  0.3408  0.0495  1.7795
 5233TIP3   OH239893   5.767   5.712  14.726 -0.3087 -0.1966 -0.3115
 5233TIP3    H139894   5.791   5.631  14.682 -1.8093 -1.6997  1.4713
 5233TIP3    H239895   5.723   5.764  14.659  1.7427 -0.2576 -1.8072
 5234TIP3   OH239896   1.542   4.656  15.925 -0.0008  0.2117  0.5508
 5234TIP3    H139897   1.627   4.676  15.886 -0.6858  1.6050 -0.2904
 5234TIP3    H239898   1.491   4.621  15.852 -0.1575 -0.6228  1.0560
 5235TIP3   OH239899   0.114   3.900  15.045  0.1663  0.2606 -0.3234
 5235TIP3    H139900   0.037   3.920  15.098  0.7387 -1.0102  1.0517
 5235TIP3    H239901   0.162   3.983  15.041 -1.0127  0.9478 -0.8031
 5236TIP3   OH239902   1.559   7.288  14.886 -0.0131  1.2891 -0.3459
 5236TIP3    H139903   1.547   7.383  14.889  1.6098  1.4968  0.6647
 5236TIP3    H239904   1.567   7.262  14.978 -0.8406  0.0923 -0.5840
 5237TIP3   OH239905   4.593   1.206  15.553 -0.1398  0.3486 -0.0444
 5237TIP3    H139906   4.509   1.167  15.578  1.0397 -2.4524 -0.0858
 5237TIP3    H239907   4.619   1.256  15.631  0.6786 -3.3921  2.3768
 5238TIP3   OH239908   7.705   3.246  15.806 -0.6542 -0.2043 -0.3147
 5238TIP3    H139909   7.676   3.164  15.845  0.5108  0.2651  1.7051
 5238TIP3    H239910   7.801   3.239  15.804 -0.5128  1.2224  0.2582
 5239TIP3   OH239911   4.418   0.383  13.933 -0.2353  0.1433 -0.3939
 5239TIP3    H139912   4.439   0.475  13.914  0.7976 -0.2586 -1.2638
 5239TIP3    H239913   4.502   0.339  13.935 -0.4970 -0.4193  2.3131
 5240TIP3   OH239914   0.708   0.793  14.510 -0.2599  0.3143  0.0470
 5240TIP3    H139915   0.771   0.791  14.438 -0.6713  0.1799 -0.3230
 5240TIP3    H239916   0.653   0.716  14.495 -0.0510  0.0140  0.7895
 5241TIP3   OH239917   4.929   2.237  14.708 -0.6325  0.3846  0.1506
 5241TIP3    H139918   4.837   2.254  14.726 -0.7171  0.8251 -0.6484
 5241TIP3    H239919   4.951   2.162  14.763 -1.4732  0.2510  0.3146
 5242TIP3   OH239920   5.201   6.469  14.099 -1.1249  0.0316  0.1272
 5242TIP3    H139921   5.214   6.475  14.194  0.4111  0.1999 -0.0698
 5242TIP3    H239922   5.182   6.558  14.072 -1.4494  0.0040  0.2683
 5243TIP3   OH239923   4.074   2.783  15.082 -0.5293 -0.3333  0.0717
 5243TIP3    H139924   4.045   2.794  14.991 -2.1054 -2.8610  0.1750
 5243TIP3    H239925   4.154   2.730  15.074  0.7469  1.4797  0.1142
 5244TIP3   OH239926   4.334   5.007  14.728 -0.0837 -0.0647 -0.2422
 5244TIP3    H139927   4.401   5.010  14.659 -0.4939  0.6083 -0.6349
 5244TIP3    H239928   4.251   5.012  14.680 -0.4246 -0.9931  0.2293
 5245TIP3   OH239929   2.264   8.094  13.826  0.1705  0.0933  0.4158
 5245TIP3    H139930   2.346   8.103  13.875  1.0216  0.6335 -1.0152
 5245TIP3    H239931   2.262   8.002  13.800  1.2477  0.4284 -0.9923
 5246TIP3   OH239932   0.962   0.946  14.641 -0.3005  0.1420 -0.2518
 5246TIP3    H139933   0.901   0.894  14.589  1.7397 -2.9411  0.1835
 5246TIP3    H239934   1.028   0.976  14.579 -1.6097  2.5974 -0.5465
 5247TIP3   OH239935   3.163   7.778  14.558 -0.1911 -0.4112 -0.6906
 5247TIP3    H139936   3.193   7.688  14.553  0.6173 -0.2447  0.7567
 5247TIP3    H239937   3.077   7.777  14.515  0.1146 -1.7105 -1.3072
 5248TIP3   OH239938   6.229   3.344  15.965 -0.4263  0.1018  0.1128
 5248TIP3    H139939   6.306   3.311  16.012 -1.2092 -0.7686  0.8194
 5248TIP3    H239940   6.222   3.436  15.992 -1.2753 -0.5582  2.3179
 5249TIP3   OH239941   0.397   0.598  16.172 -0.7515 -0.1728 -0.5020
 5249TIP3    H139942   0.456   0.665  16.140 -0.9597  1.0638  1.5003
 5249TIP3    H239943   0.451   0.543  16.229 -1.0278 -0.4214 -0.4787
 5250TIP3   OH239944   6.281   2.596  16.120 -0.1259 -0.1914 -0.2389
 5250TIP3    H139945   6.230   2.532  16.169 -0.1519 -0.5083 -0.6730
 5250TIP3    H239946   6.218   2.664  16.096 -0.2724 -0.4076 -0.4722
 5251TIP3   OH239947   6.162   5.954  14.453  0.2424 -0.1013 -0.4406
 5251TIP3    H139948   6.097   5.913  14.397 -0.6649  0.0802  0.4439
 5251TIP3    H239949   6.183   6.036  14.410  0.7620 -0.6767 -1.3212
 5252TIP3   OH239950   1.669   3.057  15.941  0.3146 -0.0056  0.3047
 5252TIP3    H139951   1.583   3.090  15.968  0.4703  0.1585  0.6077
 5252TIP3    H239952   1.672   3.072  15.847  0.6477  1.4908  0.5229
 5253TIP3   OH239953   1.162   7.565  15.865  0.5344 -0.1565 -0.0977
 5253TIP3    H139954   1.219   7.494  15.835  0.2757  0.4383 -2.1719
 5253TIP3    H239955   1.200   7.644  15.828 -0.1440  0.5881  0.7510
 5254TIP3   OH239956   3.605   2.358  14.752  0.1005 -0.6088 -0.2501
 5254TIP3    H139957   3.536   2.324  14.809 -0.1788 -0.8405 -0.7165
 5254TIP3    H239958   3.585   2.451  14.743  2.1041  0.2739  2.8077
 5255TIP3   OH239959   0.887   3.020  14.191 -0.3181 -0.5428  0.1045
 5255TIP3    H139960   0.921   2.931  14.192 -0.4806 -0.6031  0.1649
 5255TIP3    H239961   0.855   3.033  14.101 -1.1821 -0.8770  0.3575
 5256TIP3   OH239962   0.192   6.851  15.049  0.7284  0.5267  0.4664
 5256TIP3    H139963   0.183   6.919  15.116  1.3399  0.5401  0.5479
 5256TIP3    H239964   0.267   6.880  14.996  0.8092  0.0639  0.3267
 5257TIP3   OH239965   3.258   6.305  14.647 -0.3882  0.4135  0.5027
 5257TIP3    H139966   3.175   6.324  14.604 -1.1638 -0.7794  1.4209
 5257TIP3    H239967   3.270   6.376  14.710 -0.8313  0.4756  0.5190
 5258TIP3   OH239968   8.170   5.092  14.543  0.3511 -0.0949  0.2107
 5258TIP3    H139969   8.115   5.028  14.500  0.6597 -1.5279  1.8319
 5258TIP3    H239970   8.232   5.121  14.476 -1.0717  0.0460 -1.0817
 5259TIP3   OH239971   7.181   5.186  14.702  0.6188 -0.1322 -0.1212
 5259TIP3    H139972   7.251   5.123  14.720  1.4934  0.9664  0.5231
 5259TIP3    H239973   7.100   5.139  14.720  1.3115 -0.3336  2.9633
 5260TIP3   OH239974   2.599   3.383  15.222  0.2544  0.1284  0.0477
 5260TIP3    H139975   2.520   3.358  15.269  1.4460  0.6477  2.5049
 5260TIP3    H239976   2.665   3.319  15.249  1.2866  1.1435  0.0294
 5261TIP3   OH239977   1.529   3.514  15.327 -0.1361 -0.2749 -0.7060
 5261TIP3    H139978   1.558   3.580  15.264 -2.3744  1.4964 -0.0332
 5261TIP3    H239979   1.463   3.463  15.281  0.2892 -0.8765 -0.6594
 5262TIP3   OH239980   5.734   0.778  15.021  0.0209 -0.1830 -0.1831
 5262TIP3    H139981   5.827   0.758  15.012 -0.2778 -0.7797 -2.5213
 5262TIP3    H239982   5.721   0.858  14.969 -0.7513 -0.0126  0.2509
 5263TIP3   OH239983   3.837   2.289  14.275  0.2719 -0.4347  0.2488
 5263TIP3    H139984   3.761   2.301  14.217  0.4551 -0.2557  0.0426
 5263TIP3    H239985   3.855   2.195  14.272  0.3876 -0.4029 -0.1269
 5264TIP3   OH239986   4.442   2.874  15.075 -0.0303 -0.5255 -0.2653
 5264TIP3    H139987   4.469   2.891  15.165  1.1316  1.3156 -0.9050
 5264TIP3    H239988   4.365   2.929  15.062  1.3836  1.3194 -1.1590
 5265TIP3   OH239989   3.416   7.606  14.775 -0.0243 -0.4947 -0.4485
 5265TIP3    H139990   3.401   7.616  14.681  0.4053 -0.1582 -0.4788
 5265TIP3    H239991   3.510   7.593  14.784 -0.0302 -0.2688 -0.0408
 5266TIP3   OH239992   6.673   0.365  15.235  0.0436  0.0501  0.0142
 5266TIP3    H139993   6.739   0.321  15.290  0.1081  0.3390  0.1648
 5266TIP3    H239994   6.601   0.302  15.230 -0.2091  0.2552  0.9041
 5267TIP3   OH239995   2.128   7.726  15.434  0.1327  0.7006  0.7793
 5267TIP3    H139996   2.097   7.808  15.473 -0.6622  0.2518  1.1113
 5267TIP3    H239997   2.057   7.664  15.449  0.2055  0.2698 -0.5668
 5268TIP3   OH239998   2.394   3.340  13.808  0.3270 -0.1201 -0.0933
 5268TIP3    H139999   2.361   3.427  13.788  1.3112  0.2670 -0.0994
 5268TIP3    H240000   2.328   3.302  13.867 -0.3611  0.4254 -0.4969
 5269TIP3   OH240001   2.019   1.675  13.634  0.0576  0.2717 -0.4873
 5269TIP3    H140002   2.078   1.600  13.638 -0.5335 -0.1352  1.3849
 5269TIP3    H240003   1.932   1.637  13.624 -0.2954  0.6674  0.9524
 5270TIP3   OH240004   3.242   0.618  15.034 -0.1900 -0.0259 -0.3809
 5270TIP3    H140005   3.165   0.642  15.087  0.0611  0.7771 -0.3626
 5270TIP3    H240006   3.267   0.532  15.066  0.8078  1.0005  1.8435
 5271TIP3   OH240007   1.113   5.132  13.596  0.7315  0.1904 -0.1828
 5271TIP3    H140008   1.182   5.137  13.531 -1.0512  1.8823 -2.1105
 5271TIP3    H240009   1.108   5.220  13.633 -0.2409  0.0455  0.0627
 5272TIP3   OH240010   4.841   0.623  15.448 -0.3202 -0.2209  0.2371
 5272TIP3    H140011   4.838   0.680  15.525 -1.2562  2.6225 -1.7163
 5272TIP3    H240012   4.779   0.553  15.467 -0.9479  0.7078  1.8372
 5273TIP3   OH240013   7.428   2.829  14.795 -0.3361  0.1840 -0.7234
 5273TIP3    H140014   7.503   2.882  14.768 -0.1787  0.7734  0.7216
 5273TIP3    H240015   7.427   2.754  14.736  1.6456 -0.0463 -0.5059
 5274TIP3   OH240016   0.039   0.956  15.968  0.4587  0.2900 -0.5019
 5274TIP3    H140017  -0.027   0.932  15.903  1.3444  0.8438 -1.6439
 5274TIP3    H240018   0.075   1.039  15.936  2.1373 -0.3070 -0.2667
 5275TIP3   OH240019   6.940   6.279  14.535 -0.8768 -0.9321  0.2527
 5275TIP3    H140020   6.900   6.274  14.622 -0.9040 -1.7919  0.2048
 5275TIP3    H240021   6.938   6.189  14.503 -0.3041 -0.7256 -0.3899
 5276TIP3   OH240022   5.833   6.972  14.917  0.4963 -0.4614  0.5309
 5276TIP3    H140023   5.885   7.046  14.886  0.8059  0.1750  2.4787
 5276TIP3    H240024   5.877   6.895  14.879  1.8603  0.1739  0.7831
 5277TIP3   OH240025   4.151   3.766  15.085 -0.3044  0.5378  0.0844
 5277TIP3    H140026   4.126   3.751  14.993 -1.0658 -1.8469  0.6202
 5277TIP3    H240027   4.079   3.819  15.120 -1.0000 -0.1557 -0.2390
 5278TIP3   OH240028   3.279   2.766  14.903  0.3561  0.2319  0.2037
 5278TIP3    H140029   3.321   2.848  14.876  0.4225 -0.4227 -1.8616
 5278TIP3    H240030   3.186   2.785  14.905  0.0105 -0.3277 -3.4834
 5279TIP3   OH240031   1.387   4.353  15.923  0.1148 -0.4291 -0.0590
 5279TIP3    H140032   1.362   4.420  15.860  2.6920 -0.6423 -1.4548
 5279TIP3    H240033   1.412   4.401  16.002 -4.3587 -0.2133  1.5197
 5280TIP3   OH240034   0.723   0.101  14.121  0.3150 -0.1582 -0.1478
 5280TIP3    H140035   0.692   0.128  14.034 -0.9694 -2.5018 -0.4789
 5280TIP3    H240036   0.777   0.175  14.150  0.1432  1.0406 -2.5793
 5281TIP3   OH240037   6.588   6.250  14.382 -0.0449 -0.2627 -0.2242
 5281TIP3    H140038   6.516   6.296  14.338 -0.0079 -1.2487 -1.3561
 5281TIP3    H240039   6.653   6.236  14.314  0.8834 -0.0968  0.6107
 5282TIP3   OH240040   2.094   6.396  15.333 -0.4571 -0.3525 -0.0350
 5282TIP3    H140041   2.008   6.436  15.320 -0.3606 -0.4785 -1.1727
 5282TIP3    H240042   2.075   6.304  15.353 -0.5820 -0.3577 -0.1845
 5283TIP3   OH240043   5.162   4.621  14.302  0.2931 -0.2764 -0.4067
 5283TIP3    H140044   5.176   4.679  14.228 -0.4715  3.0790  1.8722
 5283TIP3    H240045   5.247   4.615  14.345 -0.2218  1.6548  0.9714
 5284TIP3   OH240046   8.214   5.101  14.804 -0.3284  0.4438 -0.1944
 5284TIP3    H140047   8.169   5.086  14.721 -1.6053  0.6298  0.4362
 5284TIP3    H240048   8.144   5.103  14.869  0.6481  0.3011  0.8935
 5285TIP3   OH240049   1.554   7.870  15.680  0.2652 -0.3951  0.4848
 5285TIP3    H140050   1.526   7.945  15.629 -1.7160 -0.9927  0.5877
 5285TIP3    H240051   1.630   7.835  15.634  0.6416  1.1078 -0.0659
 5286TIP3   OH240052   1.760   3.867  14.612 -0.3950 -0.3187 -0.2605
 5286TIP3    H140053   1.690   3.801  14.613  0.7028 -1.5222  0.8153
 5286TIP3    H240054   1.788   3.874  14.704  2.9905 -2.2390 -0.9710
 5287TIP3   OH240055   8.129   1.373  15.458  0.6277 -0.1014  0.2279
 5287TIP3    H140056   8.141   1.398  15.549  0.9935  0.0050  0.1520
 5287TIP3    H240057   8.108   1.280  15.461  2.8960 -0.6673  0.2974
 5288TIP3   OH240058   3.931   0.874  14.322 -0.1656 -0.2284 -0.0028
 5288TIP3    H140059   3.984   0.825  14.385  1.0434 -0.7992 -1.4050
 5288TIP3    H240060   3.915   0.958  14.365  0.9272 -0.4665  0.9335
 5289TIP3   OH240061   7.176   0.484  14.241  0.2902 -0.0683  0.3797
 5289TIP3    H140062   7.090   0.483  14.198 -0.4410 -2.7103  1.6877
 5289TIP3    H240063   7.238   0.467  14.171 -0.4002  0.3060 -0.3369
 5290TIP3   OH240064   7.137   6.033  15.699 -0.1415  0.4788 -0.5765
 5290TIP3    H140065   7.168   6.088  15.771 -2.2212  0.9984 -0.0118
 5290TIP3    H240066   7.191   5.954  15.704  0.4015  0.9146  0.9324
 5291TIP3   OH240067   1.796   1.845  14.448  0.0758 -0.3355  0.1710
 5291TIP3    H140068   1.836   1.838  14.361  0.1017 -0.7350  0.2150
 5291TIP3    H240069   1.768   1.756  14.470 -0.0462 -0.2156  0.5185
 5292TIP3   OH240070   5.247   0.615  16.260 -0.0639  0.0794 -0.2116
 5292TIP3    H140071   5.333   0.656  16.268 -0.6088  1.0517  1.1011
 5292TIP3    H240072   5.257   0.529  16.299  0.2029  0.3834  0.4055
 5293TIP3   OH240073   0.860   7.233  15.148  0.1677 -0.2389 -0.0845
 5293TIP3    H140074   0.943   7.278  15.131  0.2925 -0.8629 -1.1947
 5293TIP3    H240075   0.794   7.302  15.137  0.4584 -0.0015 -0.4014
 5294TIP3   OH240076   7.346   2.207  15.635 -0.0906 -0.4053 -0.3840
 5294TIP3    H140077   7.290   2.278  15.667 -0.5174 -0.4220 -1.0777
 5294TIP3    H240078   7.419   2.204  15.698 -0.0489  0.6634 -0.3637
 5295TIP3   OH240079   8.271   3.090  14.726  0.6980  0.1110 -0.4780
 5295TIP3    H140080   8.267   3.148  14.802 -1.8552  0.1743 -0.5760
 5295TIP3    H240081   8.277   3.002  14.764  1.4746  0.2544 -0.2583
 5296TIP3   OH240082   3.424   6.287  15.681  0.1587  0.1009 -0.7280
 5296TIP3    H140083   3.518   6.304  15.670  0.6220 -1.5078  0.4140
 5296TIP3    H240084   3.400   6.338  15.758  0.5141 -0.7923 -0.0034
 5297TIP3   OH240085   0.128   2.139  14.789 -0.1243 -0.3841 -0.2906
 5297TIP3    H140086   0.070   2.206  14.753 -0.4496 -0.0800  0.7630
 5297TIP3    H240087   0.085   2.056  14.769 -0.3592 -0.2139 -0.4883
 5298TIP3   OH240088   2.120   4.955  15.793 -0.0942  0.2516  0.5375
 5298TIP3    H140089   2.143   5.029  15.737 -0.1968  0.7025  1.0840
 5298TIP3    H240090   2.071   4.994  15.866 -0.9703 -0.4647  0.3542
 5299TIP3   OH240091   0.941   5.210  14.589 -0.1711  0.4282  0.0925
 5299TIP3    H140092   0.999   5.229  14.663  0.3297 -2.7762  0.6864
 5299TIP3    H240093   0.875   5.150  14.625 -0.1623 -0.8845 -1.9149
 5300TIP3   OH240094   3.619   3.572  14.987  0.0970 -0.3147 -0.5476
 5300TIP3    H140095   3.659   3.644  15.034 -0.6773  0.5897 -1.2221
 5300TIP3    H240096   3.621   3.498  15.048 -0.7369  0.7632  0.8455
 5301TIP3   OH240097   8.041   6.971  15.294 -0.0274 -0.1853  0.2520
 5301TIP3    H140098   7.993   6.891  15.272 -1.2983  0.1166  1.8096
 5301TIP3    H240099   7.976   7.030  15.331  1.1696  1.0273  0.5138
 5302TIP3   OH240100   3.567   0.078  14.149 -0.5411 -0.3060 -0.3994
 5302TIP3    H140101   3.535   0.167  14.137 -1.4987 -0.5445  0.2989
 5302TIP3    H240102   3.570   0.041  14.060  0.9848  0.7640 -0.8410
 5303TIP3   OH240103   1.262   6.396  14.765  0.4390 -0.0352  0.3454
 5303TIP3    H140104   1.270   6.491  14.768  1.2520 -0.1092  0.8380
 5303TIP3    H240105   1.350   6.365  14.743  0.2157 -0.6787  0.3385
 5304TIP3   OH240106   4.639   8.253  15.362 -0.4592  0.2525  0.4242
 5304TIP3    H140107   4.653   8.348  15.362 -1.6682  0.5671  3.8953
 5304TIP3    H240108   4.674   8.224  15.446 -1.7644 -2.0895  0.2218
 5305TIP3   OH240109   1.108   3.458  15.969  0.1206 -0.0714  0.0952
 5305TIP3    H140110   1.054   3.531  15.941 -1.1646 -0.5401  1.2288
 5305TIP3    H240111   1.046   3.387  15.984  1.2272 -1.0888  0.0125
 5306TIP3   OH240112   2.688   7.688  14.758 -0.2233  0.4631 -0.2418
 5306TIP3    H140113   2.648   7.774  14.747  0.3939  0.6733 -0.8641
 5306TIP3    H240114   2.729   7.669  14.674  0.7988  0.1520  0.3101
 5307TIP3   OH240115   1.435   0.990  15.114 -0.3847 -0.2540  0.0437
 5307TIP3    H140116   1.432   0.945  15.198  0.0049 -1.2892 -0.4766
 5307TIP3    H240117   1.359   0.956  15.067  0.6425 -1.4098 -0.8483
 5308TIP3   OH240118   4.552   5.122  14.579  0.0774 -0.3097  0.7443
 5308TIP3    H140119   4.577   5.161  14.662  0.2042  0.3391  0.4051
 5308TIP3    H240120   4.529   5.196  14.523  0.4671 -0.7045  0.0465
 5309TIP3   OH240121   6.029   1.411  15.608  0.3666  0.4206 -0.5338
 5309TIP3    H140122   6.120   1.434  15.623  0.7267 -1.1694 -0.0897
 5309TIP3    H240123   6.033   1.324  15.568 -0.9700 -0.1311  0.4631
 5310TIP3   OH240124   7.350   2.247  15.352 -0.2305  0.0153  0.1226
 5310TIP3    H140125   7.318   2.336  15.335  0.8223  0.7422  1.7175
 5310TIP3    H240126   7.342   2.236  15.447 -0.1532 -1.5313 -0.0225
 5311TIP3   OH240127   0.526   4.914  15.840  0.0697 -0.1993 -0.7635
 5311TIP3    H140128   0.509   4.983  15.904  1.2426  0.0188 -0.6669
 5311TIP3    H240129   0.483   4.837  15.876  1.5580 -0.3417  0.8391
 5312TIP3   OH240130   0.768   7.640  14.493 -0.4198  0.0591 -0.3419
 5312TIP3    H140131   0.727   7.587  14.425 -0.1449  0.2693 -0.6764
 5312TIP3    H240132   0.856   7.659  14.458  0.2748 -1.0795  0.7030
 5313TIP3   OH240133   2.488   1.233  14.668 -0.1135 -0.7889 -0.0569
 5313TIP3    H140134   2.409   1.221  14.614  0.2741  0.2393 -0.9020
 5313TIP3    H240135   2.555   1.183  14.622 -0.0428 -0.8334  0.0981
 5314TIP3   OH240136   6.007   3.097  15.472 -0.5302  0.1222 -0.5548
 5314TIP3    H140137   5.944   3.114  15.542  1.7119 -0.4203  1.7446
 5314TIP3    H240138   6.062   3.175  15.471  0.7758 -0.7702 -0.1897
 5315TIP3   OH240139   6.625   3.375  14.981 -0.1969 -0.1318  0.0638
 5315TIP3    H140140   6.653   3.415  14.899 -0.5107 -0.4633 -0.2119
 5315TIP3    H240141   6.531   3.360  14.969 -0.3934  0.4673  0.7569
 5316TIP3   OH240142   6.922   8.260  15.389 -0.5442 -0.2751  0.7176
 5316TIP3    H140143   6.932   8.193  15.323 -0.2104  0.2252  0.2516
 5316TIP3    H240144   6.964   8.224  15.467  2.5798  0.6200 -0.3931
 5317TIP3   OH240145   6.534   2.875  15.085  0.4298 -0.0295 -0.1176
 5317TIP3    H140146   6.586   2.954  15.072 -0.2248  0.3681 -0.3095
 5317TIP3    H240147   6.462   2.902  15.141  0.2025 -0.4912 -0.1828
 5318TIP3   OH240148   3.624   4.340  15.029 -0.5960 -0.2057  0.2984
 5318TIP3    H140149   3.628   4.432  15.001 -1.1409  0.1448  1.3298
 5318TIP3    H240150   3.697   4.298  14.983 -0.5659  0.6592 -0.4747
 5319TIP3   OH240151   1.292   0.223  14.708  0.4672  0.0106 -0.1172
 5319TIP3    H140152   1.319   0.297  14.762 -0.2368 -0.5386  1.0174
 5319TIP3    H240153   1.349   0.228  14.631  1.3034  0.9724  0.5332
 5320TIP3   OH240154   1.424   1.753  15.831  0.2588  0.0213  0.9182
 5320TIP3    H140155   1.515   1.744  15.806 -0.3068  0.7899 -1.6810
 5320TIP3    H240156   1.378   1.688  15.779 -1.0072  1.7420 -0.2256
 5321TIP3   OH240157   1.191   0.733  13.545 -0.1705  0.1376  0.7965
 5321TIP3    H140158   1.170   0.720  13.637 -2.1558  0.3739  0.4072
 5321TIP3    H240159   1.270   0.681  13.531  1.4806  1.7938  3.1096
 5322TIP3   OH240160   0.048   6.037  15.084  0.0063 -0.5688  0.3288
 5322TIP3    H140161   0.028   5.943  15.085 -0.9327 -0.3820  0.6831
 5322TIP3    H240162  -0.038   6.079  15.086  0.3077  0.3120 -2.0817
 5323TIP3   OH240163   4.700   5.090  14.272  0.5813 -0.5621 -0.1429
 5323TIP3    H140164   4.711   5.137  14.189  0.1225 -0.4486 -0.1446
 5323TIP3    H240165   4.754   5.137  14.335  0.8780 -0.6088 -0.3633
 5324TIP3   OH240166   3.632   2.957  13.796 -0.0122  0.7549 -0.2784
 5324TIP3    H140167   3.674   3.013  13.731  0.4897  1.4145  0.5931
 5324TIP3    H240168   3.701   2.898  13.826 -0.4361 -0.0763 -0.8914
 5325TIP3   OH240169   4.051   3.150  14.872 -0.3256 -0.1137 -0.5297
 5325TIP3    H140170   4.074   3.199  14.792 -0.2203  1.5685  0.4779
 5325TIP3    H240171   3.971   3.192  14.903 -1.1754 -1.7002 -0.4933
 5326TIP3   OH240172   3.682   7.338  15.532  0.2079 -0.3590  0.2211
 5326TIP3    H140173   3.743   7.269  15.506 -1.9338 -2.1301 -0.5043
 5326TIP3    H240174   3.632   7.299  15.604 -1.6000  0.0740 -0.7296
 5327TIP3   OH240175   8.012   4.637  15.413 -0.0771 -0.1192  0.4317
 5327TIP3    H140176   8.044   4.593  15.334 -2.3816 -1.9652  0.4289
 5327TIP3    H240177   7.935   4.685  15.383 -1.9337 -2.1157  1.7647
 5328TIP3   OH240178   3.484   3.099  15.601  0.4378 -0.7611 -0.4696
 5328TIP3    H140179   3.560   3.101  15.659  1.2094 -0.6615 -1.4714
 5328TIP3    H240180   3.484   3.011  15.564 -0.0927 -0.8438 -0.2833
 5329TIP3   OH240181   2.608   0.432  13.670 -0.6000 -0.4427  0.0021
 5329TIP3    H140182   2.697   0.414  13.700 -0.8511 -0.8421  0.5245
 5329TIP3    H240183   2.597   0.526  13.683 -0.2223 -0.3764 -0.1506
 5330TIP3   OH240184   0.111   0.082  14.781  0.0683 -0.1489 -0.2462
 5330TIP3    H140185   0.065  -0.000  14.801  1.2698 -0.9002 -0.4843
 5330TIP3    H240186   0.112   0.086  14.685  0.5589 -0.1831 -0.2447
 5331TIP3   OH240187   0.714   8.236  14.904  0.3357  0.1737 -0.5854
 5331TIP3    H140188   0.742   8.296  14.835 -2.4027  0.3452 -1.6703
 5331TIP3    H240189   0.716   8.289  14.984 -0.1893  1.1545 -1.2027
 5332TIP3   OH240190   3.653   1.752  14.353 -0.1916  0.0685 -0.2561
 5332TIP3    H140191   3.725   1.816  14.343 -0.7084  0.7766  0.4365
 5332TIP3    H240192   3.654   1.703  14.271  0.2596  0.9328 -0.7925
 5333TIP3   OH240193   4.547   5.380  14.146 -0.3597  0.1073  0.3579
 5333TIP3    H140194   4.546   5.468  14.109  0.1313  0.2941  0.7818
 5333TIP3    H240195   4.547   5.322  14.069 -2.8148  0.4125  0.0496
 5334TIP3   OH240196   3.202   8.336  15.042  0.9029  0.1422 -0.1784
 5334TIP3    H140197   3.280   8.376  15.003  1.4066 -1.0011 -0.3672
 5334TIP3    H240198   3.230   8.306  15.128  0.4103  0.5550  0.1345
 5335TIP3   OH240199   1.750   5.010  15.769  0.0988  0.0485  0.8076
 5335TIP3    H140200   1.772   5.045  15.855  0.1668  0.4370  0.6351
 5335TIP3    H240201   1.833   5.011  15.721 -0.3156  1.9250  0.0071
 5336TIP3   OH240202   3.613   2.152  15.387 -0.1698 -0.7081 -0.1687
 5336TIP3    H140203   3.559   2.230  15.379 -0.5974 -0.9781  0.0967
 5336TIP3    H240204   3.573   2.101  15.457  1.8580  0.2591  1.8516
 5337TIP3   OH240205   6.475   7.753  14.317 -0.5673  0.5022 -0.5682
 5337TIP3    H140206   6.466   7.824  14.253 -0.2301 -0.3628 -1.5961
 5337TIP3    H240207   6.401   7.695  14.300 -2.2452  1.7673  1.8484
 5338TIP3   OH240208   1.568   1.391  15.937  0.0828  0.2934 -0.4821
 5338TIP3    H140209   1.573   1.308  15.888 -0.7158 -0.5464  0.8124
 5338TIP3    H240210   1.475   1.413  15.939  0.1818  0.6846  0.0501
 5339TIP3   OH240211   8.228   1.496  15.744 -0.0601  0.6130  0.4810
 5339TIP3    H140212   8.284   1.452  15.808 -0.1615 -1.6665 -0.8855
 5339TIP3    H240213   8.287   1.553  15.694  1.2564 -2.0078 -1.1706
 5340TIP3   OH240214   0.860   4.723  15.645  0.3040 -0.4596 -0.0081
 5340TIP3    H140215   0.941   4.763  15.611  0.0749  1.3361  1.4336
 5340TIP3    H240216   0.860   4.745  15.738 -1.1335 -1.7166  0.3169
 5341TIP3   OH240217   8.342   6.976  15.104 -0.2296 -0.1928 -0.7554
 5341TIP3    H140218   8.325   6.898  15.157 -0.8010  0.5565  0.2129
 5341TIP3    H240219   8.369   7.043  15.168  0.4151  0.3634 -1.5790
 5342TIP3   OH240220   0.477   2.072  15.322  0.3570  0.4861 -0.4049
 5342TIP3    H140221   0.547   2.121  15.280  1.8964 -0.8626  0.4461
 5342TIP3    H240222   0.522   2.001  15.369 -1.7179 -2.0141 -1.9266
 5343TIP3   OH240223   4.864   0.286  14.595 -0.3364 -0.0215 -0.5594
 5343TIP3    H140224   4.889   0.295  14.687  1.0968 -0.1661 -0.9140
 5343TIP3    H240225   4.784   0.233  14.597  0.8287 -1.8421  0.4867
 5344TIP3   OH240226   3.637   7.000  14.772 -0.5578 -0.0497  0.4863
 5344TIP3    H140227   3.660   6.951  14.693 -0.1905  0.0718  0.5170
 5344TIP3    H240228   3.669   6.946  14.844 -0.9664 -0.1993  0.5583
 5345TIP3   OH240229   2.671   0.955  15.639 -0.0748 -0.0877  0.2645
 5345TIP3    H140230   2.745   1.011  15.618 -1.0717  0.3388 -2.4760
 5345TIP3    H240231   2.709   0.878  15.681  1.9887 -0.0951 -1.4766
 5346TIP3   OH240232   7.037   3.543  14.986  0.5466  0.1074  0.6683
 5346TIP3    H140233   7.110   3.498  14.943  0.5500  0.7817 -0.0441
 5346TIP3    H240234   7.075   3.624  15.020  0.4423 -0.2026  1.5760
 5347TIP3   OH240235   7.391   5.895  14.490 -0.2937 -0.2102  0.6030
 5347TIP3    H140236   7.453   5.933  14.427 -1.1738 -1.7756 -1.2889
 5347TIP3    H240237   7.438   5.820  14.527 -0.0256  0.3102  1.3327
 5348TIP3   OH240238   6.913   3.184  14.306 -0.3719 -0.3829 -0.3716
 5348TIP3    H140239   6.976   3.114  14.292 -0.8586 -1.6787  3.0216
 5348TIP3    H240240   6.966   3.262  14.324  0.3817 -1.3995  2.2192
 5349TIP3   OH240241   1.459   0.486  16.117 -0.3334 -0.0687 -0.6658
 5349TIP3    H140242   1.542   0.532  16.124 -0.0444 -0.2993 -2.1645
 5349TIP3    H240243   1.484   0.395  16.098 -0.9239 -0.3211 -0.2718
 5350TIP3   OH240244   2.995   2.753  15.908  0.2414  0.8126  0.0859
 5350TIP3    H140245   2.961   2.709  15.830  0.5438  0.8848 -0.0876
 5350TIP3    H240246   2.954   2.706  15.981  0.3095  0.4494 -0.1055
 5351TIP3   OH240247   0.478   7.518  14.787 -0.0914 -0.0158 -0.2933
 5351TIP3    H140248   0.402   7.489  14.736 -1.8740  1.9119  1.0800
 5351TIP3    H240249   0.499   7.604  14.751 -1.0699  1.1629  1.7492
 5352TIP3   OH240250   7.493   7.811  14.114 -0.4528 -0.1704 -0.1301
 5352TIP3    H140251   7.501   7.901  14.081  0.5046 -0.9536 -2.2263
 5352TIP3    H240252   7.419   7.814  14.174 -1.0297  1.8313 -0.8477
 5353TIP3   OH240253   1.888   3.745  15.410  0.4881 -0.3999 -0.2230
 5353TIP3    H140254   1.926   3.658  15.399 -1.2473 -1.1083 -0.9676
 5353TIP3    H240255   1.931   3.799  15.344  0.7028 -0.9954 -0.5800
 5354TIP3   OH240256   7.375   1.867  14.073  0.0695  0.2773 -0.2020
 5354TIP3    H140257   7.293   1.863  14.122  1.3128 -1.3047  1.9633
 5354TIP3    H240258   7.424   1.939  14.113  0.3748  0.1505 -0.3396
 5355TIP3   OH240259   5.193   8.422  15.819 -0.1682  0.0996  0.9125
 5355TIP3    H140260   5.194   8.486  15.891  1.4828 -0.2020  1.1769
 5355TIP3    H240261   5.180   8.475  15.740  0.5724  0.6985  1.1873
 5356TIP3   OH240262   6.042   1.059  14.587  0.2561  0.1295  0.0310
 5356TIP3    H140263   6.086   1.125  14.532 -0.6933  1.5195  0.8574
 5356TIP3    H240264   5.967   1.031  14.534  1.7248 -1.7976 -1.1306
 5357TIP3   OH240265   0.415   6.698  14.745  0.1117 -0.3848 -0.6509
 5357TIP3    H140266   0.333   6.647  14.743 -0.1464 -0.0499  0.4644
 5357TIP3    H240267   0.393   6.777  14.795  0.9657 -0.0132 -0.8463
 5358TIP3   OH240268   5.516   0.641  15.760 -0.3812  0.5192 -0.0735
 5358TIP3    H140269   5.608   0.663  15.779 -0.9917  3.0350  0.3269
 5358TIP3    H240270   5.499   0.682  15.675 -0.5688 -1.8993 -1.2905
 5359TIP3   OH240271   0.675   1.917  16.012  0.1945 -0.2240 -0.5725
 5359TIP3    H140272   0.670   1.942  16.104 -0.4700 -0.4627 -0.5396
 5359TIP3    H240273   0.737   1.843  16.011  1.2383  0.6274 -0.5145
 5360TIP3   OH240274   0.062   2.200  16.058  0.2493  0.0628  0.0847
 5360TIP3    H140275   0.037   2.291  16.073  1.1733  0.1972  0.9180
 5360TIP3    H240276   0.158   2.202  16.051  0.2973 -0.8641  0.2839
 5361TIP3   OH240277   4.550   1.838  14.257 -0.4261 -0.1821  0.3967
 5361TIP3    H140278   4.484   1.897  14.222 -0.9793  0.2465  2.0735
 5361TIP3    H240279   4.631   1.889  14.256 -0.5358 -0.0103  0.2208
 5362TIP3   OH240280   1.731   5.044  14.613 -0.7785  0.2882 -0.3468
 5362TIP3    H140281   1.816   5.056  14.655 -0.2013 -1.9823 -0.7078
 5362TIP3    H240282   1.752   5.034  14.520 -1.2980 -1.1491 -0.3379
 5363TIP3   OH240283   3.753   2.977  15.358 -0.0590  0.3294  0.1200
 5363TIP3    H140284   3.759   3.024  15.441 -0.7245  0.2685  0.2072
 5363TIP3    H240285   3.843   2.977  15.324  0.4011 -0.4459  1.2701
 5364TIP3   OH240286   4.677   0.607  16.098 -0.5011 -0.1718  0.2198
 5364TIP3    H140287   4.695   0.608  16.004  1.1737 -2.9028  0.4002
 5364TIP3    H240288   4.744   0.664  16.136  0.4802 -1.1093 -0.0704
 5365TIP3   OH240289   4.634   2.686  15.517  0.2007 -0.0851 -0.5154
 5365TIP3    H140290   4.710   2.686  15.576  0.1826  1.0696 -0.4726
 5365TIP3    H240291   4.621   2.594  15.495  0.1413 -0.5687  1.3860
 5366TIP3   OH240292   4.029   1.747  14.381 -0.1258  0.6829  0.5524
 5366TIP3    H140293   3.980   1.688  14.438 -0.6939  2.0124  1.5016
 5366TIP3    H240294   4.012   1.716  14.293  1.0214 -1.6393  1.0656
 5367TIP3   OH240295   4.695   7.916  15.728 -0.2683  0.0911 -0.2145
 5367TIP3    H140296   4.725   7.866  15.804 -1.5481  0.3753  0.5190
 5367TIP3    H240297   4.600   7.920  15.739 -0.5255 -0.1712 -2.0456
 5368TIP3   OH240298   4.613   8.178  15.924 -0.4065 -0.0537  0.0405
 5368TIP3    H140299   4.577   8.230  15.852  0.5732  0.6883  0.0758
 5368TIP3    H240300   4.539   8.123  15.952 -0.5916 -1.0566 -2.1249
 5369TIP3   OH240301   1.718   0.999  15.194  0.0973  0.3533 -0.9418
 5369TIP3    H140302   1.626   0.980  15.178  0.2391 -0.1097 -1.2462
 5369TIP3    H240303   1.746   0.931  15.256 -0.1787  1.4915  0.4938
 5370TIP3   OH240304   2.360   2.275  15.853 -0.2474  0.1563  0.1181
 5370TIP3    H140305   2.455   2.280  15.867 -0.2603 -0.6801  0.5954
 5370TIP3    H240306   2.339   2.351  15.800  1.0088 -0.6823 -1.6609
 5371TIP3   OH240307   7.565   2.078  14.821  0.2962  0.3624  0.1870
 5371TIP3    H140308   7.516   2.031  14.754 -0.0804  2.5847 -1.1826
 5371TIP3    H240309   7.656   2.051  14.807  0.0968  0.0403 -0.5461
 5372TIP3   OH240310   7.521   7.517  14.368 -0.5884  0.3697 -0.0570
 5372TIP3    H140311   7.481   7.441  14.410  0.5926 -0.2631 -0.0231
 5372TIP3    H240312   7.470   7.592  14.399 -0.0536 -0.1193  2.1395
 5373TIP3   OH240313   1.582   5.798  15.298  0.3333 -0.5314 -0.0382
 5373TIP3    H140314   1.569   5.861  15.227 -2.2219  0.0432  0.8209
 5373TIP3    H240315   1.675   5.803  15.319  0.8763  0.2988 -2.3905
 5374TIP3   OH240316   5.099   1.230  15.603  0.0610 -0.2414  0.2645
 5374TIP3    H140317   5.024   1.190  15.648  1.6321 -0.3104  3.0357
 5374TIP3    H240318   5.081   1.324  15.608  0.1023 -0.2580  0.8876
 5375TIP3   OH240319   1.770   4.065  15.510 -0.0890 -0.0003 -0.3251
 5375TIP3    H140320   1.756   4.006  15.584 -0.7084 -1.8668 -1.8366
 5375TIP3    H240321   1.865   4.064  15.495 -0.1792 -1.4793 -0.9524
 5376TIP3   OH240322   5.350   7.581  14.680  0.4972  0.6694  0.1573
 5376TIP3    H140323   5.369   7.487  14.680  0.6565  0.6187  2.7525
 5376TIP3    H240324   5.261   7.588  14.646  0.9586 -0.2662 -1.3129
 5377TIP3   OH240325   8.312   5.499  14.988 -0.7411 -0.1337 -0.4243
 5377TIP3    H140326   8.296   5.458  15.073 -3.1821  0.8031 -0.3578
 5377TIP3    H240327   8.312   5.427  14.926  0.6901 -0.7859  0.2609
 5378TIP3   OH240328   2.196   3.687  15.638 -0.2753 -0.1717  0.4840
 5378TIP3    H140329   2.221   3.684  15.546 -2.1081 -2.8484 -0.0526
 5378TIP3    H240330   2.111   3.731  15.639  0.0528  0.4558  0.9897
 5379TIP3   OH240331   6.974   4.410  16.277 -0.5266 -0.6290  0.0495
 5379TIP3    H140332   7.035   4.443  16.211 -1.0491 -0.6710 -0.4664
 5379TIP3    H240333   6.897   4.466  16.269 -0.8039 -0.9699  0.2529
 5380TIP3   OH240334   3.899   0.604  15.306 -0.2895 -0.4603 -0.0679
 5380TIP3    H140335   3.941   0.686  15.333 -1.1398 -0.7127  2.2992
 5380TIP3    H240336   3.815   0.632  15.269  0.6438 -0.1374 -2.0481
 5381TIP3   OH240337   5.916   8.293  14.832 -0.0982 -0.1029  0.1573
 5381TIP3    H140338   5.909   8.362  14.897 -0.5659  0.3581 -0.3701
 5381TIP3    H240339   5.947   8.217  14.881  1.1002  0.6583  0.6057
 5382TIP3   OH240340   7.134   5.199  15.228 -0.4400  0.2972  1.2113
 5382TIP3    H140341   7.093   5.264  15.170 -1.0474 -2.3458 -1.5927
 5382TIP3    H240342   7.071   5.187  15.299 -1.9119  0.4344 -0.0125
 5383TIP3   OH240343   6.373   6.188  15.624 -0.2019  0.2001 -0.0045
 5383TIP3    H140344   6.425   6.108  15.629 -1.5828 -0.6948  0.6522
 5383TIP3    H240345   6.379   6.226  15.712 -0.2984  0.3194 -0.0485
 5384TIP3   OH240346   1.936   0.845  16.060  0.0480 -0.2548 -0.1726
 5384TIP3    H140347   1.908   0.781  16.126 -0.6681  0.0071 -0.2123
 5384TIP3    H240348   2.014   0.806  16.020 -1.0878 -1.7030 -1.0696
 5385TIP3   OH240349   4.542   8.230  14.387 -0.1646 -0.5082  0.2698
 5385TIP3    H140350   4.603   8.284  14.438  0.5056 -0.5269 -0.4853
 5385TIP3    H240351   4.598   8.163  14.347 -0.0791  1.3287 -3.0390
 5386TIP3   OH240352   1.583   2.395  15.335  0.1853 -0.3599 -0.2414
 5386TIP3    H140353   1.561   2.302  15.347  1.4702 -0.6005  0.4431
 5386TIP3    H240354   1.657   2.394  15.274  0.1345  0.2171 -0.3130
 5387TIP3   OH240355   4.081   2.844  14.483  0.0621 -0.4649  0.3100
 5387TIP3    H140356   4.128   2.761  14.478  0.2209 -0.3534 -0.1048
 5387TIP3    H240357   4.000   2.830  14.435 -0.1041 -0.5068  0.6008
 5388TIP3   OH240358   0.045   6.062  15.439 -0.0133 -0.8741 -0.3550
 5388TIP3    H140359  -0.042   6.031  15.414 -0.9987  1.3993  0.0595
 5388TIP3    H240360   0.082   6.098  15.358  0.0494 -0.7192 -0.2562
 5389TIP3   OH240361   1.916   0.676  14.048 -0.1459  0.6464 -0.3759
 5389TIP3    H140362   1.891   0.724  14.127 -0.3285 -0.2832  0.1388
 5389TIP3    H240363   1.838   0.627  14.024  1.0524 -2.2672  1.2277
 5390TIP3   OH240364   5.498   0.079  15.800 -0.1262 -0.2552 -0.3348
 5390TIP3    H140365   5.409   0.048  15.786 -0.0930 -0.3168 -0.4080
 5390TIP3    H240366   5.488   0.157  15.856 -0.0454 -2.0645  2.3965
 5391TIP3   OH240367   3.702   2.875  10.164  0.1708  0.2168 -0.1534
 5391TIP3    H140368   3.610   2.898  10.156 -0.2955 -1.2256  0.6518
 5391TIP3    H240369   3.733   2.925  10.239 -0.5971 -0.9762  1.0230
 5392TIP3   OH240370   6.687   4.083   9.259 -0.2327 -0.1901  0.8516
 5392TIP3    H140371   6.695   4.076   9.163 -0.6990 -0.0085  0.8006
 5392TIP3    H240372   6.608   4.035   9.280 -2.2140  2.7438  0.7411
 5393TIP3   OH240373   2.264   4.084   9.519 -0.0401 -0.9392  0.1455
 5393TIP3    H140374   2.267   4.054   9.428 -1.0012 -3.0093  0.7188
 5393TIP3    H240375   2.172   4.107   9.533  0.1990 -0.1646  0.4700
 5394TIP3   OH240376   1.931   7.707   9.544  0.1604  0.8833  0.1501
 5394TIP3    H140377   1.945   7.766   9.470 -1.3179  2.2432  0.8912
 5394TIP3    H240378   1.851   7.739   9.586  0.6409 -0.1781  2.0177
 5395TIP3   OH240379   1.831   6.941  10.206 -0.0568 -0.5090  0.4467
 5395TIP3    H140380   1.822   7.020  10.259  0.5550  0.4569 -0.8245
 5395TIP3    H240381   1.926   6.934  10.190 -0.3602  0.6756 -2.5268
 5396TIP3   OH240382   1.087   8.206  10.013 -0.2326 -0.5310 -0.2794
 5396TIP3    H140383   1.156   8.199  10.079  0.8950 -0.0435 -1.3802
 5396TIP3    H240384   1.086   8.299   9.989  0.5496 -0.9704 -2.1587
 5397TIP3   OH240385   3.555   7.924   8.522  0.1425  0.7318  0.1111
 5397TIP3    H140386   3.619   7.859   8.493 -0.4908 -1.6560  3.5118
 5397TIP3    H240387   3.470   7.886   8.501 -0.2982  2.5754 -1.7889
 5398TIP3   OH240388   1.313   5.237  10.386  0.1013  0.0115  0.0272
 5398TIP3    H140389   1.382   5.226  10.321 -0.1485 -0.1447 -0.2170
 5398TIP3    H240390   1.257   5.306  10.349 -0.7308 -0.9340 -0.5342
 5399TIP3   OH240391   6.125   5.582   9.537  0.1917 -0.1074  0.8812
 5399TIP3    H140392   6.037   5.590   9.573  0.4934  0.9702  1.4358
 5399TIP3    H240393   6.117   5.616   9.448  0.1008  0.2935  1.0371
 5400TIP3   OH240394   2.829   0.721   9.457 -0.5292  0.1867  0.0482
 5400TIP3    H140395   2.752   0.728   9.399 -0.9566 -0.4976  0.5195
 5400TIP3    H240396   2.807   0.777   9.532 -0.5700 -0.0176  0.1878
 5401TIP3   OH240397   0.507   7.383   9.444 -0.4323  0.2572 -0.3989
 5401TIP3    H140398   0.474   7.293   9.445  0.6586 -0.1856 -1.8028
 5401TIP3    H240399   0.493   7.415   9.533 -1.0589 -1.2238  0.0504
 5402TIP3   OH240400   0.807   0.671   9.681  0.2402 -0.8703  0.0549
 5402TIP3    H140401   0.762   0.615   9.619  0.2523 -0.1481 -0.6232
 5402TIP3    H240402   0.751   0.748   9.690  0.1480 -1.0419  1.0842
 5403TIP3   OH240403   0.245   5.997   9.435  0.9135 -0.3471  0.4774
 5403TIP3    H140404   0.321   5.940   9.429  0.5207 -0.7518 -2.0670
 5403TIP3    H240405   0.249   6.051   9.356 -1.3927 -0.3798  0.2542
 5404TIP3   OH240406   3.414   5.173   9.845 -0.1796  0.4590  0.4350
 5404TIP3    H140407   3.347   5.240   9.837 -0.2572  0.5389  1.6355
 5404TIP3    H240408   3.370   5.099   9.887 -0.4288 -0.8683 -1.9938
 5405TIP3   OH240409   7.609   3.205  10.226 -0.0685  0.4629  0.1502
 5405TIP3    H140410   7.651   3.121  10.211  1.2269  0.9525  0.8208
 5405TIP3    H240411   7.534   3.186  10.282  0.9514 -0.1069  1.3575
 5406TIP3   OH240412   5.954   4.113   9.203  0.2740 -0.6627  0.2202
 5406TIP3    H140413   5.900   4.184   9.238 -0.7840 -2.2193  1.9385
 5406TIP3    H240414   5.943   4.119   9.108 -2.1121 -0.2818  0.4736
 5407TIP3   OH240415   7.674   0.953  10.591  0.4084 -0.3147  0.2706
 5407TIP3    H140416   7.701   0.862  10.594 -2.2217 -1.2131 -0.4441
 5407TIP3    H240417   7.582   0.950  10.565  0.9584  2.6548 -2.7374
 5408TIP3   OH240418   6.652   3.595   9.321  0.1430  0.2942  0.4056
 5408TIP3    H140419   6.730   3.540   9.315  0.1674  0.4703 -1.5354
 5408TIP3    H240420   6.584   3.545   9.274 -0.6120  0.6381  1.1124
 5409TIP3   OH240421   0.821   3.550   8.844  0.0267 -0.9343 -0.0661
 5409TIP3    H140422   0.857   3.464   8.821 -0.0471 -1.3232  1.2310
 5409TIP3    H240423   0.898   3.604   8.864  0.0212 -1.0049  0.1461
 5410TIP3   OH240424   2.217   3.684  10.709 -0.5225  0.5194  0.2235
 5410TIP3    H140425   2.247   3.772  10.733  1.1701  0.0646 -0.0879
 5410TIP3    H240426   2.285   3.651  10.651 -0.9937 -1.1257  0.5710
 5411TIP3   OH240427   3.307   1.563   8.306  0.4042  0.3782  0.6004
 5411TIP3    H140428   3.233   1.564   8.245  1.1755 -2.1577 -0.5152
 5411TIP3    H240429   3.371   1.623   8.267 -0.7275  2.0652  1.2238
 5412TIP3   OH240430   7.387   1.833  10.117 -0.1492 -0.1066 -0.5653
 5412TIP3    H140431   7.430   1.865  10.037  2.0336 -2.0266 -0.2803
 5412TIP3    H240432   7.433   1.878  10.188 -0.2938 -0.3460 -0.3173
 5413TIP3   OH240433   1.626   8.194   8.776 -0.3949 -0.2221  0.3837
 5413TIP3    H140434   1.548   8.243   8.751 -0.5546 -0.4727  0.3780
 5413TIP3    H240435   1.684   8.259   8.815  0.3676  0.4105 -1.6904
 5414TIP3   OH240436   0.603   7.775  10.014  0.1148  0.3927  0.7061
 5414TIP3    H140437   0.614   7.736  10.101 -3.8370 -0.8721  0.8503
 5414TIP3    H240438   0.660   7.724   9.957  0.2439 -1.0193  2.0451
 5415TIP3   OH240439   3.978   7.362   9.199  0.1243  0.1727 -0.6727
 5415TIP3    H140440   3.986   7.446   9.154  2.1844  0.0527 -0.6197
 5415TIP3    H240441   3.940   7.303   9.134 -1.0614  1.0550 -0.8032
 5416TIP3   OH240442   6.399   7.745  10.097 -0.6527 -0.0307  0.2643
 5416TIP3    H140443   6.305   7.755  10.081 -0.5610  0.3381 -0.0508
 5416TIP3    H240444   6.431   7.692  10.025 -0.6827 -0.4913  0.5825
 5417TIP3   OH240445   0.460   1.503   9.229 -0.5039  0.3536  0.0124
 5417TIP3    H140446   0.454   1.422   9.179 -2.2168 -0.4557  1.4195
 5417TIP3    H240447   0.543   1.495   9.276 -0.4821 -0.4293 -0.1412
 5418TIP3   OH240448   8.259   3.262   9.761  0.2633  0.4461 -0.0072
 5418TIP3    H140449   8.262   3.170   9.786  0.4146 -0.8460 -4.0944
 5418TIP3    H240450   8.181   3.296   9.805 -1.8868 -2.6216 -1.0899
 5419TIP3   OH240451   5.417   5.519  11.087 -0.2465  0.3029  0.3013
 5419TIP3    H140452   5.447   5.543  10.999  0.5602  0.4036  0.5893
 5419TIP3    H240453   5.454   5.432  11.102 -1.8644 -0.4789 -0.1375
 5420TIP3   OH240454   7.960   8.209   9.117  0.2101  0.4556  0.5890
 5420TIP3    H140455   7.897   8.263   9.166  0.9057 -0.0184  2.0780
 5420TIP3    H240456   8.046   8.240   9.147  0.6318 -0.8730  0.8163
 5421TIP3   OH240457   5.238   3.537  10.397 -0.0786  0.2946  0.2320
 5421TIP3    H140458   5.158   3.541  10.449 -0.9049  2.0442 -1.0480
 5421TIP3    H240459   5.209   3.558  10.308  1.3722 -1.9559 -0.8543
 5422TIP3   OH240460   6.836   6.292   9.639 -0.1763  0.0970  0.1946
 5422TIP3    H140461   6.746   6.324   9.640 -0.7724 -1.4490 -0.0538
 5422TIP3    H240462   6.836   6.224   9.571  0.2232 -2.4067  2.5277
 5423TIP3   OH240463   4.766   1.007  10.859  0.1410  0.4864  0.4220
 5423TIP3    H140464   4.715   1.088  10.864 -0.3625  0.1768  0.4176
 5423TIP3    H240465   4.701   0.938  10.875  0.4935  0.0649  0.0231
 5424TIP3   OH240466   4.696   8.261   9.734 -0.1621  0.6368 -0.1319
 5424TIP3    H140467   4.738   8.342   9.705 -0.0381  0.6797  0.1685
 5424TIP3    H240468   4.602   8.282   9.734 -0.3982 -0.0811 -2.8165
 5425TIP3   OH240469   2.124   8.201   9.368  0.0350  0.0418 -0.4099
 5425TIP3    H140470   2.164   8.187   9.454 -0.5851 -1.9541 -0.3944
 5425TIP3    H240471   2.160   8.130   9.314 -1.1307  0.0533 -1.2175
 5426TIP3   OH240472   4.735   3.760   8.856 -0.1496 -0.0547 -0.4969
 5426TIP3    H140473   4.770   3.845   8.832 -1.3418 -0.1595 -2.9605
 5426TIP3    H240474   4.794   3.727   8.924  2.1148  1.4269 -1.6375
 5427TIP3   OH240475   6.738   6.553  10.103  0.1992  1.2989 -0.2686
 5427TIP3    H140476   6.827   6.575  10.074  0.9221 -2.3358 -1.3320
 5427TIP3    H240477   6.694   6.522  10.024 -1.3266  1.0397  0.6418
 5428TIP3   OH240478   7.035   7.075   9.157  0.6210 -0.4175  0.4002
 5428TIP3    H140479   7.081   7.119   9.228 -0.1146  1.3676 -0.1735
 5428TIP3    H240480   7.005   6.992   9.195 -0.0592  0.6284  2.2797
 5429TIP3   OH240481   7.852   2.069   9.177  0.4008  0.0208 -0.5691
 5429TIP3    H140482   7.782   2.133   9.159  0.2362 -0.3006 -1.1001
 5429TIP3    H240483   7.806   1.985   9.183  0.5146  0.0527  0.9298
 5430TIP3   OH240484   1.419   2.712   9.346  0.4270  0.2184  0.3536
 5430TIP3    H140485   1.368   2.749   9.418 -2.6669 -1.7163 -0.6765
 5430TIP3    H240486   1.429   2.784   9.284  1.6947  1.4420  1.8693
 5431TIP3   OH240487   4.067   0.698   9.362  0.4301 -0.0728 -0.3771
 5431TIP3    H140488   3.984   0.660   9.332  0.2006 -0.8398  1.1157
 5431TIP3    H240489   4.054   0.711   9.456  1.5464  1.0509 -0.3607
 5432TIP3   OH240490   0.586   3.582  10.805  0.5068 -0.0893 -0.1471
 5432TIP3    H140491   0.589   3.645  10.878  1.3783  0.4364 -0.6179
 5432TIP3    H240492   0.496   3.586  10.773  0.2164 -0.0488  0.6605
 5433TIP3   OH240493   7.507   0.881   9.097  0.5635 -0.1097  0.4269
 5433TIP3    H140494   7.582   0.875   9.038  0.2661 -2.5413  0.2036
 5433TIP3    H240495   7.476   0.971   9.088  2.6253  0.5511 -0.4898
 5434TIP3   OH240496   4.704   2.670   9.731 -0.0163  0.4009 -0.2097
 5434TIP3    H140497   4.684   2.705   9.817 -1.2788 -0.6129 -0.0568
 5434TIP3    H240498   4.701   2.575   9.742  3.7643  0.1098 -0.5015
 5435TIP3   OH240499   6.027   2.049   9.395 -0.5074  0.3912 -0.2779
 5435TIP3    H140500   6.069   2.095   9.468 -0.0750 -0.5299  0.0698
 5435TIP3    H240501   6.001   2.118   9.335  2.1033  0.9973 -0.8416
 5436TIP3   OH240502   5.401   5.192   9.387 -0.0291  0.0291  0.1484
 5436TIP3    H140503   5.492   5.165   9.374 -0.3231 -1.2274  0.5170
 5436TIP3    H240504   5.371   5.140   9.462 -0.9935  0.5666  0.1522
 5437TIP3   OH240505   2.374   4.413  10.251 -0.2200 -0.7007 -0.0964
 5437TIP3    H140506   2.463   4.443  10.235  0.7223 -2.5588  1.3662
 5437TIP3    H240507   2.362   4.339  10.190 -0.8730 -0.3146 -0.4558
 5438TIP3   OH240508   0.222   2.784   9.136  0.1132 -0.2833  0.4332
 5438TIP3    H140509   0.211   2.817   9.047  1.8771  1.8157  0.9175
 5438TIP3    H240510   0.163   2.838   9.189 -0.6605 -1.2830  0.6264
 5439TIP3   OH240511   2.330   0.566   8.824 -0.2117  0.1570 -0.4862
 5439TIP3    H140512   2.330   0.576   8.729 -0.8068 -1.4074 -0.6908
 5439TIP3    H240513   2.381   0.641   8.857 -0.9926  1.3648 -1.9362
 5440TIP3   OH240514   6.454   2.029   8.932  0.4204 -0.2604 -0.2060
 5440TIP3    H140515   6.526   1.967   8.944 -0.8887 -2.2220 -1.8438
 5440TIP3    H240516   6.376   1.974   8.924 -0.8948  1.6344 -1.1717
 5441TIP3   OH240517   2.244   1.577  10.226  0.1947  0.3581 -0.4469
 5441TIP3    H140518   2.247   1.664  10.186  0.0371  1.2339  1.3408
 5441TIP3    H240519   2.265   1.592  10.318  0.2709 -1.5267 -0.1140
 5442TIP3   OH240520   3.160   7.126  10.157 -0.1967 -0.1353 -0.4356
 5442TIP3    H140521   3.171   7.206  10.209 -0.1921  0.3583 -1.1870
 5442TIP3    H240522   3.184   7.151  10.068  1.8076 -1.4903 -0.3361
 5443TIP3   OH240523   0.951   7.606   8.747 -0.1066 -0.9788 -0.3843
 5443TIP3    H140524   0.859   7.583   8.734 -0.9026  1.7022 -0.1208
 5443TIP3    H240525   0.949   7.698   8.773  2.6671 -0.8750 -0.2490
 5444TIP3   OH240526   6.430   0.022   9.985 -0.7048  0.1862  0.1019
 5444TIP3    H140527   6.384   0.076  10.049 -0.5697  2.0396 -1.2880
 5444TIP3    H240528   6.369   0.013   9.912  0.0120  0.1388 -0.5070
 5445TIP3   OH240529   2.427   2.836   9.264 -0.1086 -0.1652 -0.0264
 5445TIP3    H140530   2.353   2.792   9.306  0.3363 -1.9655 -1.0282
 5445TIP3    H240531   2.476   2.766   9.222  1.2117  1.2006 -0.8730
 5446TIP3   OH240532   0.580   4.518   8.639 -0.4758 -0.4453  0.2439
 5446TIP3    H140533   0.581   4.447   8.703 -1.8343  0.8936  1.8619
 5446TIP3    H240534   0.487   4.532   8.621 -0.1423 -0.3029 -1.4817
 5447TIP3   OH240535   4.863   7.000   9.158 -0.6449  0.0158  0.1864
 5447TIP3    H140536   4.897   6.937   9.221 -1.9668  0.1273  1.0717
 5447TIP3    H240537   4.883   7.085   9.197  0.6031  0.1592 -0.7136
 5448TIP3   OH240538   3.159   1.971  10.516 -0.3221 -0.8806 -0.5681
 5448TIP3    H140539   3.179   1.992  10.607 -1.7555 -2.5900  0.1931
 5448TIP3    H240540   3.149   1.876  10.515 -0.8919 -0.8299 -2.4046
 5449TIP3   OH240541   0.526   8.238   9.462 -0.6212  0.2356  0.1413
 5449TIP3    H140542   0.479   8.157   9.485  0.6497 -1.4423 -2.6465
 5449TIP3    H240543   0.456   8.300   9.439 -1.6110 -0.0738  2.1152
 5450TIP3   OH240544   8.413   7.182   8.978  0.1088  0.5731  0.1708
 5450TIP3    H140545   8.395   7.095   9.012  1.6600 -0.1035 -0.6490
 5450TIP3    H240546   8.388   7.178   8.885 -0.2394  1.1503  0.2308
 5451TIP3   OH240547   3.153   2.384  10.065  0.0861  0.3501 -0.2504
 5451TIP3    H140548   3.199   2.410   9.984  0.9184 -0.7601 -0.1635
 5451TIP3    H240549   3.211   2.319  10.105  0.2965  1.7798  1.9031
 5452TIP3   OH240550   0.589   6.581  10.698 -0.7868  0.3471  0.5889
 5452TIP3    H140551   0.673   6.541  10.721  0.2839  2.0639 -0.1434
 5452TIP3    H240552   0.524   6.522  10.735  0.6185 -2.6242 -1.2173
 5453TIP3   OH240553   7.010   8.445  10.894 -0.3451  0.1086 -0.4054
 5453TIP3    H140554   6.965   8.517  10.939  0.6700  0.3804  0.2057
 5453TIP3    H240555   6.939   8.389  10.862 -1.1354 -0.4602  2.1065
 5454TIP3   OH240556   3.842   6.692   9.057 -0.4142  0.1763 -0.3471
 5454TIP3    H140557   3.758   6.659   9.087 -0.5261  1.0606  0.3672
 5454TIP3    H240558   3.894   6.614   9.038 -1.7250 -0.3762 -1.8024
 5455TIP3   OH240559   2.737   7.369   9.406 -0.2053  0.2803 -0.8601
 5455TIP3    H140560   2.725   7.464   9.402  0.4847  0.3499 -1.3043
 5455TIP3    H240561   2.719   7.347   9.498  0.1182  0.9059 -0.6395
 5456TIP3   OH240562   3.480   3.835   8.956 -0.2275  0.2499 -0.0113
 5456TIP3    H140563   3.556   3.785   8.986  0.9403  1.8946 -0.0905
 5456TIP3    H240564   3.437   3.865   9.036  0.1360  0.6405  0.0427
 5457TIP3   OH240565   8.437   3.247  11.114 -0.3497  0.0682 -0.5887
 5457TIP3    H140566   8.392   3.259  11.198  0.2164 -0.9073 -0.1356
 5457TIP3    H240567   8.388   3.302  11.053 -2.7235 -1.6195 -0.3226
 5458TIP3   OH240568   4.717   3.030  11.307  0.0942 -0.1158 -0.1063
 5458TIP3    H140569   4.625   3.047  11.290  0.0973  0.2228  0.2148
 5458TIP3    H240570   4.717   2.947  11.355 -0.1469  0.5298  1.0482
 5459TIP3   OH240571   4.015   0.864  10.484 -0.2620 -0.1781 -0.0499
 5459TIP3    H140572   3.983   0.793  10.540  1.0850 -0.4784  0.3711
 5459TIP3    H240573   3.960   0.859  10.406 -1.4161 -0.4809  0.7493
 5460TIP3   OH240574   4.034   7.206   9.662  0.6044  0.0353  0.3768
 5460TIP3    H140575   4.021   7.116   9.633 -0.7280  0.3901 -0.2023
 5460TIP3    H240576   4.111   7.236   9.614 -0.6783  0.1385 -1.7261
 5461TIP3   OH240577   2.342   4.231  10.475 -0.4840  0.8112 -0.5372
 5461TIP3    H140578   2.300   4.297  10.530  3.2984  2.0333  1.2440
 5461TIP3    H240579   2.341   4.268  10.387 -0.2156  2.3382  0.0827
 5462TIP3   OH240580   8.147   7.509   8.656 -0.4005 -0.7302  0.5636
 5462TIP3    H140581   8.216   7.482   8.717  0.9716 -0.1445 -0.6599
 5462TIP3    H240582   8.178   7.593   8.621 -2.6631  0.5032  1.3565
 5463TIP3   OH240583   6.680   1.487   8.919 -0.3483 -0.1474 -0.2973
 5463TIP3    H140584   6.664   1.507   9.011 -1.6139 -1.5833 -0.1860
 5463TIP3    H240585   6.776   1.483   8.912 -0.1223  2.3949  0.3797
 5464TIP3   OH240586   2.607   0.450   9.017  0.0788 -0.0158  0.6451
 5464TIP3    H140587   2.644   0.362   9.008  1.3313  0.4405  1.1395
 5464TIP3    H240588   2.513   0.437   9.007  0.3364 -1.2368 -0.5820
 5465TIP3   OH240589   7.796   5.737   9.307  0.5725 -0.4160 -0.3896
 5465TIP3    H140590   7.829   5.822   9.277 -1.5791  1.4238  1.9779
 5465TIP3    H240591   7.719   5.721   9.253 -0.9682  0.9054  1.2963
 5466TIP3   OH240592   7.457   8.395  10.127  0.2286 -0.2577  0.1952
 5466TIP3    H140593   7.443   8.367  10.218 -0.3464 -1.2808 -0.1878
 5466TIP3    H240594   7.370   8.423  10.097  0.4465  0.2180  0.0050
 5467TIP3   OH240595   0.251   1.791  10.402 -0.5243  0.2960  0.2131
 5467TIP3    H140596   0.289   1.872  10.438  1.7961 -0.9989  0.8503
 5467TIP3    H240597   0.317   1.724  10.418 -1.9948 -1.5808 -1.1311
 5468TIP3   OH240598   7.098   4.542   8.787 -0.4791  0.2467 -0.0567
 5468TIP3    H140599   7.130   4.454   8.767 -0.1618  0.0537  1.2367
 5468TIP3    H240600   7.010   4.527   8.823  0.4323  0.2360  2.2897
 5469TIP3   OH240601   1.353   6.742   8.478 -0.0518 -0.3727 -0.2621
 5469TIP3    H140602   1.444   6.713   8.487  0.4597  0.4101 -2.2623
 5469TIP3    H240603   1.302   6.675   8.523  1.4080 -1.6517 -0.4093
 5470TIP3   OH240604   1.710   0.356   8.859  0.1219  0.4290  0.7167
 5470TIP3    H140605   1.701   0.264   8.884 -0.8397  0.6772  1.3203
 5470TIP3    H240606   1.627   0.396   8.883  0.4156  1.4001  0.1736
 5471TIP3   OH240607   0.788   7.245   8.729  0.2230  0.2535 -0.1275
 5471TIP3    H140608   0.756   7.232   8.818  5.2957  0.8977  2.1790
 5471TIP3    H240609   0.774   7.338   8.712  0.1402  0.3468  0.4302
 5472TIP3   OH240610   3.498   5.391   9.557 -0.0360  0.0360  0.1453
 5472TIP3    H140611   3.427   5.453   9.575  1.4427  1.2297  2.3332
 5472TIP3    H240612   3.456   5.305   9.557 -1.6523  0.7928  0.0605
 5473TIP3   OH240613   6.200   0.163   8.904 -0.0707 -0.1015 -0.5789
 5473TIP3    H140614   6.140   0.104   8.857  0.6473 -1.8930  0.6497
 5473TIP3    H240615   6.143   0.216   8.959 -0.6678 -0.3482 -0.9453
 5474TIP3   OH240616   1.947   7.276   9.662 -0.4443 -0.1904  0.4618
 5474TIP3    H140617   2.019   7.243   9.716 -0.4238 -1.3333 -0.2399
 5474TIP3    H240618   1.988   7.340   9.604 -0.1684 -0.1389  0.7123
 5475TIP3   OH240619   5.220   0.493  10.862 -0.4499  0.4641 -0.2082
 5475TIP3    H140620   5.227   0.588  10.858  0.4582  0.4734  0.8779
 5475TIP3    H240621   5.307   0.464  10.889 -0.9058 -0.6239  0.1631
 5476TIP3   OH240622   5.601   0.511   9.579  0.4426 -0.6558 -0.2286
 5476TIP3    H140623   5.598   0.604   9.600 -0.4005 -0.7659  0.1497
 5476TIP3    H240624   5.577   0.506   9.487 -1.2146 -0.6379  0.1834
 5477TIP3   OH240625   6.069   2.155  11.041 -0.0541 -0.1747 -0.1237
 5477TIP3    H140626   6.122   2.188  10.969  1.5092 -0.1708  0.9859
 5477TIP3    H240627   6.061   2.061  11.024  0.5850 -0.2287 -0.1372
 5478TIP3   OH240628   8.327   8.368  10.431 -0.6355  0.2819  0.5452
 5478TIP3    H140629   8.298   8.280  10.407  0.0492  0.1136  0.3251
 5478TIP3    H240630   8.422   8.363  10.432 -0.6097  0.6529  1.9536
 5479TIP3   OH240631   1.646   7.010   9.973  0.2504 -0.0488 -0.0238
 5479TIP3    H140632   1.653   6.932   9.918  2.0540 -0.7547  1.1254
 5479TIP3    H240633   1.735   7.024  10.007 -0.1883  2.0799  0.3901
 5480TIP3   OH240634   4.537   0.956  10.407 -0.3053  0.0288 -0.1545
 5480TIP3    H140635   4.617   0.910  10.434 -1.4604 -2.7023 -1.0785
 5480TIP3    H240636   4.474   0.938  10.477 -0.5258  1.1155 -0.0465
 5481TIP3   OH240637   2.023   5.241  10.285 -0.1365  0.3587 -0.2553
 5481TIP3    H140638   2.044   5.300  10.358  0.9703  0.5219 -0.6936
 5481TIP3    H240639   2.107   5.225  10.242 -0.8831  0.9508 -2.0274
 5482TIP3   OH240640   5.954   3.340   8.770 -0.1389 -0.5252 -0.6124
 5482TIP3    H140641   5.931   3.347   8.678  0.1104 -2.3847 -0.8490
 5482TIP3    H240642   5.870   3.332   8.815 -0.2430 -0.0334 -0.7164
 5483TIP3   OH240643   6.690   6.127   8.640  0.0453  0.3685 -0.6990
 5483TIP3    H140644   6.723   6.148   8.728 -1.3886 -1.1554  0.2628
 5483TIP3    H240645   6.746   6.177   8.581  1.2176  1.2462  1.0621
 5484TIP3   OH240646   0.952   6.047   9.164 -0.3250  0.3237 -0.5965
 5484TIP3    H140647   0.865   6.068   9.131 -0.7672  1.5348  1.1790
 5484TIP3    H240648   0.940   6.038   9.259  1.1832 -1.2207 -0.4929
 5485TIP3   OH240649   4.811   3.280  10.800  0.1141 -0.5737 -0.1065
 5485TIP3    H140650   4.846   3.229  10.727  1.4197  1.4674 -1.0068
 5485TIP3    H240651   4.889   3.318  10.841 -0.6125 -1.4796  2.2620
 5486TIP3   OH240652   4.933   3.773   9.810 -0.3436  0.0572  0.1414
 5486TIP3    H140653   4.888   3.701   9.855 -0.7311 -0.7397 -1.4534
 5486TIP3    H240654   4.884   3.784   9.729  2.3701 -0.9076 -1.7517
 5487TIP3   OH240655   1.470   3.325  10.586  0.2798  0.0639 -0.2959
 5487TIP3    H140656   1.536   3.304  10.652 -0.2024 -1.7028 -0.3023
 5487TIP3    H240657   1.469   3.420  10.581  0.0593  0.2917  2.5248
 5488TIP3   OH240658   2.788   4.423  10.441  0.1752  0.1274 -0.0880
 5488TIP3    H140659   2.882   4.406  10.437 -0.3306 -3.2457 -0.2902
 5488TIP3    H240660   2.747   4.343  10.407 -2.8102  0.9965  1.0994
 5489TIP3   OH240661   3.958   2.926  11.206 -0.0298  0.4087 -0.5711
 5489TIP3    H140662   3.982   2.856  11.267  0.1939  0.3763 -0.6963
 5489TIP3    H240663   4.038   2.978  11.196 -0.2288  0.7523 -0.3852
 5490TIP3   OH240664   1.340   6.606   9.394  0.2061  0.2009 -0.5618
 5490TIP3    H140665   1.280   6.582   9.324  1.2092  1.7343 -2.0224
 5490TIP3    H240666   1.425   6.574   9.363  0.3876 -0.7783  0.8656
 5491TIP3   OH240667   2.811   6.648   9.733 -0.4800 -0.1728  0.6134
 5491TIP3    H140668   2.767   6.613   9.810 -0.6748 -1.3414 -0.0011
 5491TIP3    H240669   2.760   6.613   9.659  0.2392  0.1796 -0.0620
 5492TIP3   OH240670   7.716   0.569   9.054 -0.3771  0.3030 -0.0782
 5492TIP3    H140671   7.767   0.620   8.990  4.6012 -1.9814  1.5245
 5492TIP3    H240672   7.661   0.634   9.097  0.7999  3.0821 -2.3633
 5493TIP3   OH240673   4.197   5.269  10.878 -0.4076  0.2161 -0.0322
 5493TIP3    H140674   4.144   5.346  10.860 -0.9084 -0.1990 -0.3207
 5493TIP3    H240675   4.137   5.206  10.918  0.7546  1.3957  4.0762
 5494TIP3   OH240676   8.158   0.105  11.127  0.2645 -0.2356 -0.3118
 5494TIP3    H140677   8.067   0.095  11.154  0.7762 -0.7186  1.3367
 5494TIP3    H240678   8.168   0.042  11.055 -0.7526 -0.0140 -0.6663
 5495TIP3   OH240679   8.102   7.209   9.013  0.3924  0.1088 -0.1039
 5495TIP3    H140680   8.196   7.189   9.014  0.6529  1.2416  1.5854
 5495TIP3    H240681   8.068   7.171   9.094 -0.8346 -1.0934 -1.1230
 5496TIP3   OH240682   2.972   2.857   8.742  0.7003 -0.3524 -0.0608
 5496TIP3    H140683   2.938   2.774   8.774 -0.0462 -0.2972 -0.7029
 5496TIP3    H240684   2.938   2.865   8.653  1.4350  0.2561 -0.3012
 5497TIP3   OH240685   4.247   2.434   9.519 -0.1174  0.2607 -0.0583
 5497TIP3    H140686   4.225   2.527   9.521 -0.6905  0.1201  0.5212
 5497TIP3    H240687   4.174   2.394   9.470 -0.7933 -0.1087  1.2112
 5498TIP3   OH240688   5.572   2.625   9.148  0.2894 -0.2082 -0.4611
 5498TIP3    H140689   5.585   2.535   9.178 -1.4953 -0.0908  0.8613
 5498TIP3    H240690   5.614   2.679   9.214 -0.0261 -0.0494 -0.3848
 5499TIP3   OH240691   4.938   3.629   8.983  1.2348 -0.0853 -0.3787
 5499TIP3    H140692   4.989   3.560   8.941 -1.7399 -1.7704 -1.5214
 5499TIP3    H240693   4.857   3.586   9.010  0.2957  2.4523  1.1911
 5500TIP3   OH240694   6.413   2.579  10.236  0.3484 -0.7236  0.2439
 5500TIP3    H140695   6.495   2.620  10.207  0.6119 -0.5981  1.1214
 5500TIP3    H240696   6.415   2.588  10.331 -1.8477  1.4787  0.1673
 5501TIP3   OH240697   2.269   7.202  10.187  0.3886  0.0585 -0.0347
 5501TIP3    H140698   2.293   7.224  10.278  2.9175 -2.0015 -0.1004
 5501TIP3    H240699   2.349   7.220  10.137 -1.0447  1.3977 -1.9778
 5502TIP3   OH240700   5.137   5.792  10.333  0.0546  0.6274 -0.0106
 5502TIP3    H140701   5.071   5.820  10.396  0.3450 -0.5735  0.8555
 5502TIP3    H240702   5.200   5.741  10.384  1.3923  1.3046 -0.9062
 5503TIP3   OH240703   7.058   4.082   9.187 -0.1563  0.0181 -0.6677
 5503TIP3    H140704   7.042   4.043   9.273 -1.4495 -1.2587 -1.4431
 5503TIP3    H240705   7.037   4.012   9.125  2.1340  0.4388 -2.0084
 5504TIP3   OH240706   6.751   0.088   9.624 -0.0911 -0.1575  0.1614
 5504TIP3    H140707   6.825   0.077   9.683  0.3759  2.7769  0.2912
 5504TIP3    H240708   6.676   0.105   9.681 -0.5809 -1.5973 -0.0164
 5505TIP3   OH240709   8.204   5.655   9.385  0.0052 -0.7888  0.5396
 5505TIP3    H140710   8.181   5.580   9.439  0.1363 -1.4476 -0.3112
 5505TIP3    H240711   8.279   5.695   9.430 -0.8151 -0.4370  1.6434
 5506TIP3   OH240712   2.116   6.089   9.120  0.4312  0.2905 -0.1221
 5506TIP3    H140713   2.104   5.999   9.090 -1.2197  0.5429 -0.3148
 5506TIP3    H240714   2.206   6.111   9.096 -0.1375 -0.1931 -3.1524
 5507TIP3   OH240715   0.661   5.981   9.139 -0.3016  0.2715 -0.3414
 5507TIP3    H140716   0.591   5.973   9.204 -1.1533  1.2146 -1.1180
 5507TIP3    H240717   0.702   5.894   9.138  0.7242  0.6107  2.5079
 5508TIP3   OH240718   4.581   5.459   8.736 -0.7641 -0.1508  0.0775
 5508TIP3    H140719   4.558   5.523   8.669  1.4451  0.6252 -0.0277
 5508TIP3    H240720   4.512   5.392   8.731 -1.6241  0.8166 -1.6988
 5509TIP3   OH240721   5.304   2.984   8.602  0.3909 -0.2648 -0.5297
 5509TIP3    H140722   5.319   2.973   8.508 -3.9239 -1.8785 -1.2786
 5509TIP3    H240723   5.347   2.908   8.642  0.1427 -0.9787 -1.5579
 5510TIP3   OH240724   3.703   2.794  11.242 -0.3483 -0.5133 -0.0523
 5510TIP3    H140725   3.607   2.787  11.239 -0.6520  0.4913  3.2102
 5510TIP3    H240726   3.723   2.874  11.193 -0.8881 -1.7457 -2.4421
 5511TIP3   OH240727   1.180   2.694  10.533 -0.2101 -0.2614  0.0785
 5511TIP3    H140728   1.127   2.750  10.589 -2.0987 -0.4555 -1.4301
 5511TIP3    H240729   1.178   2.608  10.576 -0.7549 -0.1536  0.2721
 5512TIP3   OH240730   8.107   4.075  10.463  0.3072  0.1413 -0.5601
 5512TIP3    H140731   8.126   4.107  10.551 -0.8513  1.1253 -0.6458
 5512TIP3    H240732   8.065   3.990  10.477  1.4693 -0.3967 -0.2404
 5513TIP3   OH240733   6.994   2.173   9.449  0.3625 -0.0928  0.6774
 5513TIP3    H140734   6.906   2.140   9.467  0.4758 -1.0889 -0.4318
 5513TIP3    H240735   6.982   2.238   9.380  0.4713 -0.1915  0.5624
 5514TIP3   OH240736   2.802   0.484  10.259  0.0365  0.2393  0.5196
 5514TIP3    H140737   2.816   0.409  10.202 -0.3516  0.2926  0.3511
 5514TIP3    H240738   2.890   0.509  10.288  0.1744 -0.2074  0.4856
 5515TIP3   OH240739   5.371   4.706   9.420  0.0453 -0.6446 -0.2693
 5515TIP3    H140740   5.354   4.669   9.506 -3.5668 -1.4839 -1.1674
 5515TIP3    H240741   5.299   4.768   9.405  2.0063  1.5043 -1.7104
 5516TIP3   OH240742   7.713   2.601   9.123  0.3350  0.6062 -0.0166
 5516TIP3    H140743   7.649   2.542   9.083 -1.0456  0.5722  2.0514
 5516TIP3    H240744   7.790   2.546   9.138 -0.3808 -0.2809  0.4931
 5517TIP3   OH240745   1.281   3.572  15.544  0.5019  0.4197 -0.1800
 5517TIP3    H140746   1.287   3.641  15.610  0.7626  0.0258  0.2144
 5517TIP3    H240747   1.339   3.600  15.474  3.2120 -0.9219  1.3748
 5518TIP3   OH240748   3.430   2.351  10.354  0.1924  0.0338 -0.6943
 5518TIP3    H140749   3.520   2.320  10.366  0.3058  0.8296  0.7186
 5518TIP3    H240750   3.409   2.329  10.263  2.2097  0.8509 -1.4043
 5519TIP3   OH240751   6.315   7.722  10.365  0.2835  0.3893  0.2520
 5519TIP3    H140752   6.232   7.757  10.334  0.0373  0.3814  0.8935
 5519TIP3    H240753   6.373   7.727  10.289 -0.2372  0.6038 -0.1346
 5520TIP3   OH240754   8.005   8.125   9.561  0.6689 -0.2118 -0.2938
 5520TIP3    H140755   8.073   8.189   9.543  0.0357 -0.2001 -3.0923
 5520TIP3    H240756   8.038   8.043   9.524  0.2623 -0.8600  0.7242
 5521TIP3   OH240757   6.730   5.091   9.759 -0.4732 -0.4226  0.5937
 5521TIP3    H140758   6.736   5.166   9.699  0.1424  0.8078  2.1166
 5521TIP3    H240759   6.642   5.056   9.745 -0.3932 -0.0808 -0.8971
 5522TIP3   OH240760   2.104   2.992   9.125 -0.0544 -0.2781 -0.4746
 5522TIP3    H140761   2.047   2.972   9.199  0.2478  2.2159  0.5275
 5522TIP3    H240762   2.053   3.053   9.072  0.8789  0.3000 -0.7199
 5523TIP3   OH240763   5.499   4.289   9.004 -0.1890 -0.1157  0.3115
 5523TIP3    H140764   5.494   4.286   9.100 -1.7514 -1.2382  0.2427
 5523TIP3    H240765   5.483   4.381   8.982 -1.0807 -0.0685  1.0913
 5524TIP3   OH240766   8.287   6.913   9.744  0.1764 -0.2036  0.6284
 5524TIP3    H140767   8.379   6.886   9.746  0.2979  0.2231  0.8281
 5524TIP3    H240768   8.238   6.832   9.760  0.3499 -1.1963 -2.9032
 5525TIP3   OH240769   2.034   5.143   8.615  0.2164  0.1246  0.1144
 5525TIP3    H140770   1.988   5.104   8.690 -2.7828  1.5734 -0.8202
 5525TIP3    H240771   2.102   5.079   8.593 -0.4105 -1.4985  2.5030
 5526TIP3   OH240772   7.397   0.794  10.306 -0.0812 -0.0876 -0.0529
 5526TIP3    H140773   7.357   0.722  10.355 -0.1031  0.3668  0.6191
 5526TIP3    H240774   7.328   0.859  10.299  0.4134  0.5583  0.8135
 5527TIP3   OH240775   6.564   4.464  10.606  0.3044 -0.3919 -0.2835
 5527TIP3    H140776   6.547   4.552  10.641  0.6729 -0.5960  0.4240
 5527TIP3    H240777   6.556   4.475  10.511 -2.9440 -0.3209 -0.0879
 5528TIP3   OH240778   7.915   4.594  10.091  0.3213  0.3073 -0.2816
 5528TIP3    H140779   7.869   4.651  10.030 -1.0844  0.8579  1.1952
 5528TIP3    H240780   7.944   4.652  10.161  0.4849 -0.5152  0.3577
 5529TIP3   OH240781   1.780   3.351  13.938  0.1042 -0.0419  0.3172
 5529TIP3    H140782   1.840   3.389  13.875  0.1553 -0.8888 -0.1559
 5529TIP3    H240783   1.705   3.322  13.886  0.5743 -1.6486  0.4728
 5530TIP3   OH240784   2.682   6.658  10.145 -1.4091  0.3850  0.1351
 5530TIP3    H140785   2.685   6.652  10.050 -1.9298  0.2928  0.1238
 5530TIP3    H240786   2.595   6.693  10.165 -2.2201 -1.7562  0.6601
 5531TIP3   OH240787   2.242   0.777   9.085 -0.0102  0.5858  0.1495
 5531TIP3    H140788   2.301   0.701   9.087 -1.4421 -0.5854 -0.7658
 5531TIP3    H240789   2.276   0.831   9.014 -0.0094 -0.0521 -0.3419
 5532TIP3   OH240790   7.755   7.444   9.307 -1.0076 -0.7063  0.0443
 5532TIP3    H140791   7.692   7.516   9.315  1.2695  1.6989 -1.7169
 5532TIP3    H240792   7.779   7.444   9.214  1.5563 -1.4852  0.6166
 5533TIP3   OH240793   5.190   1.382   8.995 -0.2582  0.1983  0.0219
 5533TIP3    H140794   5.179   1.407   9.087  1.1546  1.0840 -0.0255
 5533TIP3    H240795   5.241   1.301   8.998 -0.3877  0.1155  0.0152
 5534TIP3   OH240796   0.529   4.292   8.787  0.4882 -0.1525  0.1631
 5534TIP3    H140797   0.546   4.198   8.779 -0.0132 -0.1484 -1.1261
 5534TIP3    H240798   0.437   4.302   8.764  0.8360  0.7923 -0.9060
 5535TIP3   OH240799   3.151   6.005   9.459 -0.0729  0.2270 -0.2282
 5535TIP3    H140800   3.132   5.915   9.431  0.0087 -0.2992  1.2933
 5535TIP3    H240801   3.109   6.060   9.393 -2.1088 -0.9368  0.0121
 5536TIP3   OH240802   1.863   8.370   8.828  0.0767 -0.3516 -0.5354
 5536TIP3    H140803   1.941   8.317   8.818  0.6586  0.7324 -2.2029
 5536TIP3    H240804   1.891   8.444   8.882 -0.1427 -0.5948 -0.0824
 5537TIP3   OH240805   5.650   5.096   9.281 -0.2102 -0.5683  0.1656
 5537TIP3    H140806   5.732   5.116   9.326 -0.0423 -1.0606  0.0907
 5537TIP3    H240807   5.649   5.000   9.276 -0.6276 -0.5498 -0.1342
 5538TIP3   OH240808   0.474   4.270  10.271 -0.3596 -0.3196  0.0779
 5538TIP3    H140809   0.458   4.176  10.273 -1.6133 -0.1855 -1.5036
 5538TIP3    H240810   0.437   4.302  10.354 -0.4161 -1.1399  0.3848
 5539TIP3   OH240811   8.292   2.495  10.252 -0.0038 -0.3261  0.1051
 5539TIP3    H140812   8.349   2.478  10.178 -0.5000 -0.3437 -0.2800
 5539TIP3    H240813   8.321   2.433  10.319  0.5658 -0.1853 -0.0078
 5540TIP3   OH240814   4.158   4.553   9.093  0.2035 -0.1414  0.0086
 5540TIP3    H140815   4.065   4.564   9.074  0.2186 -0.4395 -0.2530
 5540TIP3    H240816   4.176   4.462   9.070  0.8766  0.3003 -1.3371
 5541TIP3   OH240817   7.996   6.085   9.688 -0.0184  0.0204  0.6560
 5541TIP3    H140818   8.028   6.016   9.628 -0.3339  1.4856 -1.3005
 5541TIP3    H240819   7.901   6.072   9.690 -0.0910  0.4469  0.1878
 5542TIP3   OH240820   3.508   5.665   9.388 -0.1787 -0.0868 -0.3326
 5542TIP3    H140821   3.481   5.739   9.442 -0.8232 -0.4420 -0.1582
 5542TIP3    H240822   3.426   5.620   9.367 -0.1813  0.9408 -2.9426
 5543TIP3   OH240823   8.332   3.540  10.126 -0.0097  0.7621  0.0078
 5543TIP3    H140824   8.330   3.512  10.034  0.6564  0.4079  0.0956
 5543TIP3    H240825   8.339   3.459  10.176 -2.6878  0.7566  0.5183
 5544TIP3   OH240826   7.028   5.772   9.323 -0.0456 -0.1876 -0.1965
 5544TIP3    H140827   7.119   5.796   9.338  0.2397 -1.1276 -0.3071
 5544TIP3    H240828   7.032   5.680   9.295 -1.0703 -0.4853  0.5388
 5545TIP3   OH240829   3.093   4.460   9.953 -0.0724  0.7975  0.3042
 5545TIP3    H140830   3.188   4.451   9.941 -0.3167  0.7547 -1.9391
 5545TIP3    H240831   3.056   4.384   9.908 -1.2100  1.2991  0.3676
 5546TIP3   OH240832   7.775   2.183   8.922  0.4174  0.9892 -0.1129
 5546TIP3    H140833   7.771   2.261   8.866 -1.9794  0.8820 -0.1788
 5546TIP3    H240834   7.842   2.128   8.880  1.3959  2.5178 -0.6680
 5547TIP3   OH240835   4.649   3.538  10.615  0.1150  0.3437  0.4054
 5547TIP3    H140836   4.667   3.616  10.667 -0.0328  0.5520  0.1476
 5547TIP3    H240837   4.570   3.501  10.653 -0.1691  0.6694  0.1324
 5548TIP3   OH240838   5.037   3.855  10.180 -0.0604  0.0263  0.3213
 5548TIP3    H140839   4.970   3.857  10.249 -0.8481 -1.4779 -0.3444
 5548TIP3    H240840   5.076   3.942  10.182 -0.4934  0.2229  2.2339
 5549TIP3   OH240841   2.755   7.766   8.511 -0.0922  0.4116  0.0076
 5549TIP3    H140842   2.773   7.765   8.605  1.8441  1.2953 -0.3069
 5549TIP3    H240843   2.804   7.691   8.477  1.3267  1.5767 -0.6010
 5550TIP3   OH240844   5.768   1.200  10.048 -0.1752 -0.3785 -1.1610
 5550TIP3    H140845   5.864   1.193  10.043 -0.1043  0.9153 -1.8209
 5550TIP3    H240846   5.746   1.272   9.990 -1.6475 -1.2186 -1.6817
 5551TIP3   OH240847   3.561   6.082   9.997  0.2437 -0.4711  0.0293
 5551TIP3    H140848   3.648   6.066   9.960 -0.1857  0.5981 -1.5256
 5551TIP3    H240849   3.552   6.017  10.067  2.4384 -0.3541  0.4940
 5552TIP3   OH240850   4.431   3.399   9.096  0.2721 -0.2818  0.2944
 5552TIP3    H140851   4.447   3.358   9.011 -1.9590 -0.7327  0.0098
 5552TIP3    H240852   4.456   3.333   9.160  2.1835  0.1428  0.0265
 5553TIP3   OH240853   1.909   4.880   9.758 -0.0904  0.1361 -0.1936
 5553TIP3    H140854   1.841   4.823   9.724 -1.3754 -0.0683  2.4310
 5553TIP3    H240855   1.945   4.833   9.833  0.4374  1.7614  0.6314
 5554TIP3   OH240856   1.433   4.204   9.716 -0.1815  0.1565 -0.4931
 5554TIP3    H140857   1.522   4.170   9.703 -0.0313  0.7920 -1.1597
 5554TIP3    H240858   1.386   4.131   9.756  0.9428  0.1807  1.0057
 5555TIP3   OH240859   2.950   7.358   8.775 -0.4588  0.0762 -0.4705
 5555TIP3    H140860   3.033   7.350   8.821  0.4043 -0.5204 -2.0693
 5555TIP3    H240861   2.913   7.270   8.774 -0.4718  0.0828 -0.9006
 5556TIP3   OH240862   5.337   4.558   9.196  0.1009  0.1420 -0.2368
 5556TIP3    H140863   5.357   4.610   9.274  0.5659 -1.1782  0.5719
 5556TIP3    H240864   5.384   4.601   9.125  0.8388  0.5606  0.4933
 5557TIP3   OH240865   4.037   5.748  10.532  0.0097 -0.2055  0.3717
 5557TIP3    H140866   3.976   5.822  10.537  1.3309  0.9273  0.2870
 5557TIP3    H240867   3.989   5.681  10.483 -0.5828  1.2812 -1.2127
 5558TIP3   OH240868   8.260   1.441  10.172 -0.1484  0.1675  0.5562
 5558TIP3    H140869   8.165   1.444  10.178 -0.2001 -0.2870  0.0713
 5558TIP3    H240870   8.282   1.509  10.108 -0.3266 -1.1254 -0.9357
 5559TIP3   OH240871   7.126   6.868  10.877  0.5695 -0.1797 -0.0778
 5559TIP3    H140872   7.046   6.916  10.899  0.5220 -1.3156  2.5031
 5559TIP3    H240873   7.196   6.931  10.892  0.2895  0.3049 -0.7299
 5560TIP3   OH240874   4.660   3.292  10.442 -0.4521  0.3048 -0.1303
 5560TIP3    H140875   4.702   3.209  10.419  0.8094  0.8644  0.0617
 5560TIP3    H240876   4.600   3.310  10.370  0.5528  0.0886 -1.0420
 5561TIP3   OH240877   4.547   3.893   9.926 -0.1318  0.2220 -0.0047
 5561TIP3    H140878   4.533   3.871   9.834 -0.1820  1.7163 -0.3816
 5561TIP3    H240879   4.459   3.890   9.965 -0.2857  0.8139 -0.2989
 5562TIP3   OH240880   2.325   7.760  10.774 -0.2455  0.8908  0.5924
 5562TIP3    H140881   2.359   7.849  10.782 -0.7368  1.1827 -0.4727
 5562TIP3    H240882   2.254   7.767  10.710  0.0663 -0.3622  0.0872
 5563TIP3   OH240883   7.407   0.896  10.571 -0.1282  0.1121 -0.4967
 5563TIP3    H140884   7.393   0.803  10.588 -0.5553  0.1455 -0.6652
 5563TIP3    H240885   7.342   0.919  10.504  0.3971  0.3822 -0.9283
 5564TIP3   OH240886   7.356   3.043   9.922 -0.4984 -0.2426 -0.0863
 5564TIP3    H140887   7.349   2.987   9.999  1.9795 -1.3672 -0.5943
 5564TIP3    H240888   7.325   2.989   9.850  0.4439 -0.4295 -0.3569
 5565TIP3   OH240889   2.767   2.152   0.358  0.4847 -0.3747 -0.6711
 5565TIP3    H140890   2.801   2.195   0.437 -0.2924 -2.0051  0.6179
 5565TIP3    H240891   2.715   2.220   0.315  3.1147  1.3954 -1.3328
 5566TIP3   OH240892   5.273   2.446  10.254 -0.1041 -0.5981 -0.0739
 5566TIP3    H140893   5.196   2.464  10.200 -0.5493 -0.0186  0.7222
 5566TIP3    H240894   5.237   2.415  10.337  0.5828 -1.9926 -0.2653
 5567TIP3   OH240895   5.660   4.564  10.205 -0.3045  0.4010 -0.0128
 5567TIP3    H140896   5.634   4.549  10.296 -0.6241 -0.4298 -0.2350
 5567TIP3    H240897   5.594   4.519  10.153 -0.2297  1.0285 -0.6664
 5568TIP3   OH240898   6.813   4.970  10.940  0.0520 -0.2523 -0.3746
 5568TIP3    H140899   6.721   4.995  10.926 -0.3569 -1.5114 -0.0338
 5568TIP3    H240900   6.823   4.887  10.894  0.8031 -0.5334  0.2710
 5569TIP3   OH240901   6.816   1.913   9.661  0.1410  0.1292  0.2020
 5569TIP3    H140902   6.755   1.869   9.720 -0.8529 -0.0239 -0.8961
 5569TIP3    H240903   6.808   2.006   9.683  2.3683 -0.1376  2.6428
 5570TIP3   OH240904   6.377   1.229   9.863 -0.7757 -0.7567  0.2495
 5570TIP3    H140905   6.411   1.301   9.916 -1.7259 -1.2757  1.6398
 5570TIP3    H240906   6.437   1.222   9.789 -1.3117  2.2151 -0.5703
 5571TIP3   OH240907   7.457   7.084   9.286  0.1115 -0.1004  0.2161
 5571TIP3    H140908   7.514   7.083   9.209  0.0102  0.1966  0.1371
 5571TIP3    H240909   7.442   7.176   9.304  3.1641  0.0630  2.8637
 5572TIP3   OH240910   6.014   1.897  10.965 -0.3516  0.6693  0.0910
 5572TIP3    H140911   5.965   1.855  11.036 -0.3205 -0.2259 -0.4040
 5572TIP3    H240912   6.076   1.830  10.936  0.0139  1.2218 -0.4122
 5573TIP3   OH240913   1.595   6.579   9.650  0.3967 -0.0434  0.3652
 5573TIP3    H140914   1.656   6.621   9.590  2.6868 -1.6676  1.3976
 5573TIP3    H240915   1.651   6.539   9.717 -1.9053 -0.2862  2.3054
 5574TIP3   OH240916   0.351   0.777   9.512  0.2004  0.0167 -0.0788
 5574TIP3    H140917   0.379   0.866   9.492 -1.3391  0.2921 -1.1658
 5574TIP3    H240918   0.316   0.782   9.601  0.2052  0.4716 -0.1009
 5575TIP3   OH240919   4.413   8.047  10.675 -0.1015 -0.1918 -0.5492
 5575TIP3    H140920   4.325   8.074  10.647 -0.9564 -0.2923  1.8149
 5575TIP3    H240921   4.457   8.129  10.697 -0.9941 -0.2890  1.9104
 5576TIP3   OH240922   2.257   1.650  10.474  0.2838  0.4002  0.1933
 5576TIP3    H140923   2.324   1.651  10.543  1.4614  1.2320 -0.9359
 5576TIP3    H240924   2.201   1.726  10.493  0.4918  0.5185  0.3282
 5577TIP3   OH240925   7.422   0.162   9.550  0.2018  0.0850  0.2611
 5577TIP3    H140926   7.484   0.137   9.481 -1.8485 -1.5136 -1.1284
 5577TIP3    H240927   7.447   0.106   9.624  0.1456 -0.9000 -0.4415
 5578TIP3   OH240928   7.190   8.307   9.633  0.3074 -0.4339  0.2080
 5578TIP3    H140929   7.249   8.328   9.706 -1.3907  0.7622  1.3264
 5578TIP3    H240930   7.241   8.325   9.555  1.6301 -0.0483  1.1173
 5579TIP3   OH240931   0.089   4.646  10.054  0.1450 -0.3015 -0.4483
 5579TIP3    H140932   0.166   4.643  10.111  0.2008  0.1610 -0.4968
 5579TIP3    H240933   0.081   4.738  10.029 -1.4556 -0.0103  0.9727
 5580TIP3   OH240934   2.457   1.292   8.974  0.0115  0.0394  0.3931
 5580TIP3    H140935   2.535   1.288   8.919 -0.1585 -2.1568  0.2130
 5580TIP3    H240936   2.411   1.371   8.946  1.1529  0.2731 -0.9016
 5581TIP3   OH240937   3.088   2.263   9.197  0.0487  0.0534  0.3362
 5581TIP3    H140938   2.992   2.261   9.196  0.0313 -0.4088 -2.3905
 5581TIP3    H240939   3.109   2.339   9.251 -1.8217 -0.1251  1.4001
 5582TIP3   OH240940   5.482   4.916  10.413  0.6388 -0.7500 -0.0481
 5582TIP3    H140941   5.393   4.920  10.450 -0.5502 -2.4042 -2.4435
 5582TIP3    H240942   5.523   4.843  10.459  0.7882  0.0129  1.0650
 5583TIP3   OH240943   4.080   4.950   9.457 -0.6487  0.3250  0.0609
 5583TIP3    H140944   4.089   5.044   9.442  0.1502 -0.1686 -3.2773
 5583TIP3    H240945   4.170   4.918   9.466 -0.9066 -0.1799  0.9905
 5584TIP3   OH240946   4.108   4.020   9.955 -0.2152 -0.5650  0.5061
 5584TIP3    H140947   4.181   3.964   9.982  0.4003  0.1555  0.3658
 5584TIP3    H240948   4.031   3.964   9.964  0.1989 -0.9763  1.8240
 5585TIP3   OH240949   7.520   0.055   9.778 -0.4415 -0.2153 -0.1816
 5585TIP3    H140950   7.535   0.141   9.819  0.5785 -0.6668  0.4527
 5585TIP3    H240951   7.447   0.018   9.827  0.3506 -0.4806  0.8520
 5586TIP3   OH240952   7.249   5.791   9.914  0.0742  0.6413  0.0452
 5586TIP3    H140953   7.230   5.702   9.884  0.1413  0.5867  0.1666
 5586TIP3    H240954   7.342   5.789   9.939  0.2875  0.9447 -0.6863
 5587TIP3   OH240955   2.627   0.884   8.729 -0.0018  0.2399 -0.2442
 5587TIP3    H140956   2.718   0.888   8.759 -0.4912  1.8048  1.1503
 5587TIP3    H240957   2.585   0.820   8.787 -0.0687  0.4162 -0.0986
 5588TIP3   OH240958   2.064   8.198   8.910 -0.1689  0.3176  0.2491
 5588TIP3    H140959   2.146   8.240   8.939 -0.5605  0.2035  1.5824
 5588TIP3    H240960   2.093   8.121   8.861  0.5326  0.5029  0.3545
 5589TIP3   OH240961   1.280   0.242   8.905  0.0720 -0.0460  0.5117
 5589TIP3    H140962   1.313   0.228   8.994 -0.7039  0.0238  0.8222
 5589TIP3    H240963   1.209   0.179   8.896  0.1125 -0.0156 -0.0489
 5590TIP3   OH240964   1.227   3.271  10.016  0.4842 -0.0084 -0.2228
 5590TIP3    H140965   1.281   3.259  10.095  0.8181  1.9590 -0.0986
 5590TIP3    H240966   1.226   3.185   9.975 -1.2870 -1.6370  2.8929
 5591TIP3   OH240967   3.801   1.792   9.330 -0.0343 -0.1534  0.6536
 5591TIP3    H140968   3.832   1.766   9.244  3.1139 -0.6021  1.7699
 5591TIP3    H240969   3.804   1.712   9.382  0.4547  0.5437  1.7417
 5592TIP3   OH240970   6.863   4.622  10.053  0.4664 -0.4099 -0.1733
 5592TIP3    H140971   6.853   4.608  10.147 -1.9944  1.2124 -0.0895
 5592TIP3    H240972   6.879   4.535  10.017  0.1849 -1.2383  1.6134
 5593TIP3   OH240973   5.874   3.294   9.395 -0.0067  0.9460 -0.2934
 5593TIP3    H140974   5.788   3.298   9.437  0.3947  0.0999  0.6215
 5593TIP3    H240975   5.855   3.271   9.304 -0.6729 -0.8659  0.2665
 5594TIP3   OH240976   5.673   6.239   8.890 -0.1217 -0.1739  0.0710
 5594TIP3    H140977   5.692   6.220   8.798  0.1870 -5.2039  0.9037
 5594TIP3    H240978   5.758   6.231   8.934 -0.7239 -1.0889  1.1267
 5595TIP3   OH240979   5.806   7.044   9.644  0.3177  0.7229  0.1270
 5595TIP3    H140980   5.857   6.971   9.677  0.9078  1.0605 -0.0179
 5595TIP3    H240981   5.857   7.077   9.570 -0.6424  0.4010 -0.6975
 5596TIP3   OH240982   5.820   4.624   9.600  0.4243 -0.8785 -0.2396
 5596TIP3    H140983   5.915   4.627   9.605  0.4613  0.9876 -1.0565
 5596TIP3    H240984   5.791   4.709   9.634 -0.8731 -0.9724 -1.0088
 5597TIP3   OH240985   7.225   4.156   9.732 -0.2136  0.3708  0.3467
 5597TIP3    H140986   7.310   4.141   9.773 -0.9334 -1.6731  1.2119
 5597TIP3    H240987   7.243   4.158   9.638  0.7134 -0.6459  0.4919
 5598TIP3   OH240988   2.513   3.246  10.090  0.7265  0.1848  0.4793
 5598TIP3    H140989   2.498   3.192  10.012  0.6486  0.3725  0.3635
 5598TIP3    H240990   2.599   3.218  10.122  0.2612 -0.7007  0.9840
 5599TIP3   OH240991   6.816   2.915  10.391  0.7437  0.0664 -0.0808
 5599TIP3    H140992   6.727   2.905  10.424  1.2879 -1.2918  1.0922
 5599TIP3    H240993   6.848   2.996  10.430 -1.1194  2.6986 -3.4306
 5600TIP3   OH240994   2.788   8.329   8.814 -0.1108 -0.1903  0.2285
 5600TIP3    H140995   2.707   8.379   8.813  0.3154  0.5350  0.4655
 5600TIP3    H240996   2.812   8.320   8.722  0.6051  1.4215  0.2102
 5601TIP3   OH240997   5.262   4.291   9.630  0.2000  0.3803 -0.7290
 5601TIP3    H140998   5.330   4.238   9.588 -1.2160 -0.1434 -2.4737
 5601TIP3    H240999   5.285   4.289   9.723  1.5658 -1.2655 -1.0499
 5602TIP3   OH241000   4.382   2.949  10.417 -0.4382 -1.0326  0.0442
 5602TIP3    H141001   4.399   2.986  10.504  0.8016 -1.0137 -0.1909
 5602TIP3    H241002   4.288   2.959  10.405 -0.3418  0.8318  0.5554
 5603TIP3   OH241003   3.125   5.945  10.001  0.0897  0.0960  0.2825
 5603TIP3    H141004   3.160   5.859  10.025  0.6901 -0.3191 -1.9275
 5603TIP3    H241005   3.099   5.937   9.910 -0.0783  2.2046  0.0906
 5604TIP3   OH241006   7.527   6.283   9.734 -0.2253  0.8972  0.3623
 5604TIP3    H141007   7.580   6.328   9.669 -0.0656  0.3212  0.0861
 5604TIP3    H241008   7.450   6.252   9.685 -1.0200  2.0492  0.8294
 5605TIP3   OH241009   1.031   2.155   8.680 -0.2099 -0.5857 -0.1069
 5605TIP3    H141010   1.000   2.139   8.591 -0.4923 -0.4012 -0.0420
 5605TIP3    H241011   0.982   2.094   8.734 -0.2467 -0.4989 -0.0411
 5606TIP3   OH241012   1.403   3.392   9.399  0.0638  0.3653  0.7741
 5606TIP3    H141013   1.397   3.485   9.378 -0.3074  0.2819  0.5177
 5606TIP3    H241014   1.312   3.362   9.404  0.1879 -0.0409  0.6050
 5607TIP3   OH241015   2.028   8.042   9.681  0.2132  0.1201 -0.4480
 5607TIP3    H141016   2.065   8.115   9.730 -0.5781 -0.7291  1.5091
 5607TIP3    H241017   2.101   7.980   9.671  0.7748  0.9398 -1.7549
 5608TIP3   OH241018   1.814   5.514  10.798  0.2999  0.1618 -0.1234
 5608TIP3    H141019   1.719   5.531  10.798  0.2897  0.2085  1.1739
 5608TIP3    H241020   1.854   5.600  10.804  0.4368  0.1306 -0.5170
 5609TIP3   OH241021   6.561   0.858   9.594 -0.3628 -0.2644 -0.0015
 5609TIP3    H141022   6.475   0.900   9.594 -0.8763 -1.2591 -0.9854
 5609TIP3    H241023   6.559   0.800   9.518  0.7033 -1.2616  0.6937
 5610TIP3   OH241024   5.702   0.946   9.907  0.8868  0.0213 -0.0671
 5610TIP3    H141025   5.622   0.981   9.868  0.7149 -0.8382 -0.5022
 5610TIP3    H241026   5.737   1.018   9.959 -0.3024  0.3408  0.3279
 5611TIP3   OH241027   7.055   1.118   9.172 -0.2682 -0.4014  0.1711
 5611TIP3    H141028   7.112   1.154   9.240  0.1645  1.4744 -1.0795
 5611TIP3    H241029   6.989   1.067   9.219  0.4714  0.1792  1.9058
 5612TIP3   OH241030   8.063   1.255  10.913 -0.7894 -0.0322  0.1076
 5612TIP3    H141031   7.994   1.201  10.952  1.2482 -1.1738  2.3990
 5612TIP3    H241032   8.031   1.345  10.922 -0.0373  0.0762  6.2140
 5613TIP3   OH241033   6.933   1.315   9.035  0.0876  0.0901  0.4817
 5613TIP3    H141034   6.865   1.248   9.035 -1.9812  2.0375  1.3918
 5613TIP3    H241035   7.009   1.273   9.075 -0.3343 -2.3616 -1.1316
 5614TIP3   OH241036   1.587   1.773   9.445 -0.5986 -0.1265  0.0822
 5614TIP3    H141037   1.503   1.817   9.429 -0.9717 -0.1608  1.7702
 5614TIP3    H241038   1.569   1.680   9.432 -0.3381 -0.0098 -1.3475
 5615TIP3   OH241039   6.178   1.220   9.538 -0.0588 -0.5506 -0.9326
 5615TIP3    H141040   6.207   1.252   9.453  0.1646  0.3128 -0.5434
 5615TIP3    H241041   6.133   1.296   9.578  2.3650  0.0421  0.9168
 5616TIP3   OH241042   2.213   0.537  10.450  0.8350 -0.0041 -0.0796
 5616TIP3    H141043   2.208   0.449  10.487  0.5571  0.4132  0.9107
 5616TIP3    H241044   2.126   0.574  10.464  0.7342  0.2027 -1.1150
 5617TIP3   OH241045   7.233   6.811   9.807  0.5346 -1.0881  0.2790
 5617TIP3    H141046   7.243   6.869   9.731  0.0186  0.3778  1.2863
 5617TIP3    H241047   7.283   6.733   9.784  0.7930 -0.4774 -1.3647
 5618TIP3   OH241048   5.225   3.063  10.067  0.5268 -0.1725  0.1827
 5618TIP3    H141049   5.251   3.100  10.151  0.3106  2.1946 -0.7055
 5618TIP3    H241050   5.298   3.006  10.043  1.7201  0.9836  0.8971
 5619TIP3   OH241051   0.480   5.735  10.205  0.5673 -0.1163 -0.0801
 5619TIP3    H141052   0.558   5.687  10.230 -0.1031 -0.7161  0.9631
 5619TIP3    H241053   0.512   5.810  10.155  1.7005 -1.0778 -0.8312
 5620TIP3   OH241054   1.175   4.342   9.071 -0.2651 -0.5431 -0.6360
 5620TIP3    H141055   1.153   4.348   8.978 -0.8729  0.9832 -0.4381
 5620TIP3    H241056   1.099   4.380   9.116  0.1038 -1.0679  0.4725
 5621TIP3   OH241057   7.076   3.021  10.225  0.2226  0.4301 -0.1957
 5621TIP3    H141058   7.115   3.009  10.311 -0.9750 -0.2047  0.2788
 5621TIP3    H241059   7.103   2.944  10.175 -2.2608 -1.2640  0.8734
 5622TIP3   OH241060   7.753   1.251   9.895  0.0562 -0.2472  0.1151
 5622TIP3    H141061   7.721   1.208   9.974 -1.5435 -4.9455 -2.7120
 5622TIP3    H241062   7.841   1.217   9.882 -0.8007 -1.9811 -1.5698
 5623TIP3   OH241063   7.570   6.568   8.666 -0.6878  0.3620 -0.4905
 5623TIP3    H141064   7.620   6.647   8.643 -2.1475  1.0884 -1.3242
 5623TIP3    H241065   7.563   6.519   8.584  1.5149 -1.5024  0.3037
 5624TIP3   OH241066   1.311   7.210   8.521 -0.7513 -0.4013 -0.1232
 5624TIP3    H141067   1.230   7.233   8.567  0.3352  0.4355  1.4883
 5624TIP3    H241068   1.283   7.155   8.448 -2.7696 -0.0351  0.3150
 5625TIP3   OH241069   0.717   7.508   8.740 -0.7833 -0.2281 -0.2405
 5625TIP3    H141070   0.664   7.572   8.693 -0.7713  0.1260  0.2145
 5625TIP3    H241071   0.674   7.500   8.826 -1.2454 -1.4248 -0.5613
 5626TIP3   OH241072   4.481   5.772  10.228 -0.6450 -0.5068 -0.0354
 5626TIP3    H141073   4.457   5.846  10.284 -0.3189 -0.6991  0.3674
 5626TIP3    H241074   4.398   5.734  10.202 -0.8031 -0.5278  0.4758
 5627TIP3   OH241075   3.015   7.973   9.649 -0.7078  0.1984  0.1871
 5627TIP3    H141076   3.044   7.944   9.735  1.2316  0.5081 -0.3206
 5627TIP3    H241077   2.925   8.003   9.663  0.0314  1.6507  2.4415
 5628TIP3   OH241078   2.101   1.389   8.960  0.0217  0.4116 -0.6199
 5628TIP3    H141079   2.059   1.467   8.925 -0.9553 -0.0417 -0.4951
 5628TIP3    H241080   2.120   1.336   8.882 -1.8700 -0.4567 -0.5557
 5629TIP3   OH241081   6.268   6.112  11.143 -0.0842 -0.3880 -0.3962
 5629TIP3    H141082   6.343   6.052  11.143  0.4921  0.3046  0.4650
 5629TIP3    H241083   6.192   6.055  11.131  0.4839 -1.2504 -0.0414
 5630TIP3   OH241084   1.903   3.966   9.381  0.3195  0.1655  0.0297
 5630TIP3    H141085   1.952   3.884   9.376 -0.3837 -0.3459  1.2493
 5630TIP3    H241086   1.847   3.957   9.458 -0.0686  1.6322 -0.0411
 5631TIP3   OH241087   5.425   2.395   9.857  0.3422 -0.1068 -0.0163
 5631TIP3    H141088   5.405   2.400   9.764  0.4961  2.9890  0.0247
 5631TIP3    H241089   5.345   2.361   9.897 -0.3720  0.2263 -1.1124
 5632TIP3   OH241090   0.951   6.679  10.903 -0.5557 -0.0322  0.0491
 5632TIP3    H141091   0.913   6.767  10.896 -0.2516  0.0213 -1.0600
 5632TIP3    H241092   1.016   6.675  10.833 -0.7100 -1.2181 -0.0510
 5633TIP3   OH241093   6.157   3.380   9.386  0.5886 -0.1861  0.0036
 5633TIP3    H141094   6.071   3.338   9.395  1.2149 -1.4570  0.4216
 5633TIP3    H241095   6.215   3.309   9.359  1.3980  0.7828 -0.8687
 5634TIP3   OH241096   0.193   4.267  11.225  0.2568 -0.7228  0.5117
 5634TIP3    H141097   0.120   4.252  11.164  1.7174 -2.1110 -1.0148
 5634TIP3    H241098   0.262   4.304  11.170  1.1630 -0.7011  1.6322
 5635TIP3   OH241099   4.317   2.188  10.820 -0.4017 -0.4749  0.2832
 5635TIP3    H141100   4.276   2.109  10.855  1.2515 -1.2784  0.5319
 5635TIP3    H241101   4.352   2.161  10.734  0.7186 -0.2156  0.6405
 5636TIP3   OH241102   1.125   4.771  11.217  0.1154  0.1038  0.2136
 5636TIP3    H141103   1.205   4.800  11.173  0.2485  0.2499  0.5550
 5636TIP3    H241104   1.105   4.687  11.177  0.5817 -0.0572  0.3146
 5637TIP3   OH241105   4.740   0.073   9.594  0.3398 -0.2977  0.0986
 5637TIP3    H141106   4.765   0.072   9.502  0.9050  1.6962  0.1761
 5637TIP3    H241107   4.645   0.062   9.593 -0.1153  2.6685 -1.0227
 5638TIP3   OH241108   1.602   3.654   9.246  0.1775 -0.3686  0.4939
 5638TIP3    H141109   1.634   3.602   9.320  0.6987 -0.8910 -0.0844
 5638TIP3    H241110   1.666   3.638   9.176  0.3898  1.1158  0.3174
 5639TIP3   OH241111   2.394   1.727   9.375 -0.5592 -0.9674 -0.2565
 5639TIP3    H141112   2.340   1.688   9.307 -2.1276 -0.7652  0.8229
 5639TIP3    H241113   2.442   1.653   9.414 -1.2626 -1.3997 -0.1924
 5640TIP3   OH241114   3.979   3.242   9.436 -0.7583  0.4796 -0.1634
 5640TIP3    H141115   4.053   3.226   9.377  0.1342  1.2500  0.6937
 5640TIP3    H241116   3.944   3.327   9.409  0.6312  1.5972  1.3088
 5641TIP3   OH241117   3.094   7.598  10.546 -0.1403  0.6263  0.8379
 5641TIP3    H141118   2.999   7.592  10.533  0.0943 -0.7412 -0.3938
 5641TIP3    H241119   3.132   7.585  10.460  1.2156  0.2353  1.4635
 5642TIP3   OH241120   4.003   4.040   8.674  0.4414  0.2280  0.3656
 5642TIP3    H141121   4.051   4.088   8.606  1.1274 -1.1081 -0.1242
 5642TIP3    H241122   4.015   3.948   8.651 -1.5814 -0.1791  0.7860
 5643TIP3   OH241123   4.297   2.586   9.274 -0.3304 -0.0161 -0.2297
 5643TIP3    H141124   4.210   2.559   9.305 -0.3632  0.2217 -0.1161
 5643TIP3    H241125   4.324   2.515   9.215 -1.5122  0.9179 -1.9680
 5644TIP3   OH241126   6.366   4.849   9.179 -0.1759 -0.4697 -0.4588
 5644TIP3    H141127   6.443   4.831   9.233 -0.6324 -0.3217  0.2608
 5644TIP3    H241128   6.400   4.863   9.091  0.8280  1.4999  0.1921
 5645TIP3   OH241129   1.155   4.466  10.279 -0.7003  0.5140 -0.0871
 5645TIP3    H141130   1.067   4.428  10.273  0.5894 -2.6663 -1.2039
 5645TIP3    H241131   1.206   4.419  10.213  2.1979  1.1325  1.5390
 5646TIP3   OH241132   7.365   6.089   9.575  0.0799 -0.1370 -0.6632
 5646TIP3    H141133   7.402   6.118   9.492  0.7158  0.8555 -0.0694
 5646TIP3    H241134   7.273   6.071   9.556  0.0167  0.8826 -1.4084
 5647TIP3   OH241135   1.168   5.877   8.953  0.4806  0.0120  0.5407
 5647TIP3    H141136   1.111   5.900   9.026  0.2789 -2.1803  1.1488
 5647TIP3    H241137   1.107   5.861   8.880  0.3866 -1.1573  0.8614
 5648TIP3   OH241138   3.834   0.529  10.270  0.4827  0.3155  0.1770
 5648TIP3    H141139   3.872   0.484  10.345 -0.5081  0.5477  0.8299
 5648TIP3    H241140   3.906   0.581  10.234  1.1110 -0.2411  0.6108
 5649TIP3   OH241141   2.296   2.645   9.431 -0.0546 -0.0490  0.2833
 5649TIP3    H141142   2.302   2.631   9.525  0.5507  2.5670  0.6805
 5649TIP3    H241143   2.220   2.592   9.404  1.0859 -2.6129  1.7837
 5650TIP3   OH241144   6.208   2.709   9.094 -0.2802  0.1766  0.5233
 5650TIP3    H141145   6.196   2.802   9.073 -0.0982 -0.7221 -5.4038
 5650TIP3    H241146   6.299   2.690   9.071 -0.3562 -1.4824  1.4552
 5651TIP3   OH241147   7.509   5.689  10.625 -0.4611  0.2545  0.0300
 5651TIP3    H141148   7.460   5.608  10.641 -0.4324  0.1254 -0.5285
 5651TIP3    H241149   7.531   5.686  10.532  1.2869 -0.0617  0.4165
 5652TIP3   OH241150   6.036   3.638   9.932  0.1315  0.6261 -0.3554
 5652TIP3    H141151   6.016   3.685   9.851 -5.0451  3.3461  1.9815
 5652TIP3    H241152   5.968   3.572   9.939  1.2359 -0.4111  1.2586
 5653TIP3   OH241153   4.006   5.677   9.665 -0.4008 -0.2301  0.1827
 5653TIP3    H141154   3.921   5.636   9.682 -0.5312 -0.0991 -0.1618
 5653TIP3    H241155   3.993   5.730   9.587  0.4181 -1.5183 -0.8900
 5654TIP3   OH241156   0.578   4.516  11.157  0.2239 -0.4015 -0.0395
 5654TIP3    H141157   0.562   4.423  11.171 -0.0738 -0.2447  0.6728
 5654TIP3    H241158   0.668   4.521  11.125  0.1538 -0.9519 -0.3254
 5655TIP3   OH241159   0.306   1.924   9.865  0.1650  0.6804 -0.0781
 5655TIP3    H141160   0.268   1.995   9.812  0.0979  1.5867  1.1465
 5655TIP3    H241161   0.318   1.963   9.952  1.1725 -0.4890  0.3256
 5656TIP3   OH241162   3.248   6.645   9.425 -0.4690  0.1749 -0.1504
 5656TIP3    H141163   3.240   6.740   9.431 -1.1654  0.3267 -2.6009
 5656TIP3    H241164   3.188   6.612   9.492  1.3842  1.3690  2.2878
 5657TIP3   OH241165   3.660   6.091   8.618  0.2719  0.1733  0.0861
 5657TIP3    H141166   3.692   6.126   8.535  0.0562  0.2250  0.0259
 5657TIP3    H241167   3.574   6.131   8.631 -0.0243 -0.4023 -0.0361
 5658TIP3   OH241168   7.275   3.475   9.450  0.5229  0.0105 -0.1090
 5658TIP3    H141169   7.229   3.437   9.375  0.4858  1.6593 -0.9705
 5658TIP3    H241170   7.368   3.461   9.430  0.5466  1.2491 -0.9375
 5659TIP3   OH241171   3.686   2.458  10.091 -0.4499  0.5054  0.7367
 5659TIP3    H141172   3.656   2.395  10.157 -0.6180  0.4295  0.5880
 5659TIP3    H241173   3.743   2.517  10.140 -0.0810  0.0842  0.8206
 5660TIP3   OH241174   2.230   7.783   8.595 -0.2085 -0.4143 -0.3721
 5660TIP3    H141175   2.200   7.699   8.631  1.8902 -0.4132  1.6139
 5660TIP3    H241176   2.279   7.759   8.517 -1.5281 -0.7883 -1.1189
 5661TIP3   OH241177   4.177   5.926   9.780  0.2052  0.4088 -0.0373
 5661TIP3    H141178   4.105   5.968   9.827 -0.8884  0.3964 -1.5815
 5661TIP3    H241179   4.141   5.841   9.754  1.4527 -0.3810  0.7638
 5662TIP3   OH241180   5.351   8.059  10.507  0.5901 -0.1022 -0.5201
 5662TIP3    H141181   5.285   8.125  10.486  1.0054  0.4754 -0.0491
 5662TIP3    H241182   5.374   8.077  10.598  0.9025 -0.7342 -0.4705
 5663TIP3   OH241183   2.225   6.264  10.536  0.0082  0.3129  0.3620
 5663TIP3    H141184   2.254   6.184  10.492  0.5490 -0.3693  1.8618
 5663TIP3    H241185   2.287   6.331  10.507  1.1783 -0.4204  1.0753
 5664TIP3   OH241186   5.719   3.235  10.415 -0.2972  0.0973  0.8989
 5664TIP3    H141187   5.812   3.219  10.430  0.1212  1.3094 -0.1839
 5664TIP3    H241188   5.682   3.248  10.502  0.9594  1.5996  1.2576
 5665TIP3   OH241189   2.641   7.837   9.288 -0.5237 -0.6636 -0.1294
 5665TIP3    H141190   2.568   7.894   9.311  0.2684  0.3511 -0.0882
 5665TIP3    H241191   2.643   7.772   9.359  0.3394  0.9564  1.4070
 5666TIP3   OH241192   0.990   3.598   9.419 -0.7022  0.4813 -0.3743
 5666TIP3    H141193   0.993   3.608   9.324  0.9606  1.6529 -0.2225
 5666TIP3    H241194   1.041   3.518   9.436 -0.7357  0.4474 -0.4314
 5667TIP3   OH241195   1.888   6.762  10.681  0.0498  0.8052 -0.1184
 5667TIP3    H141196   1.878   6.756  10.776 -1.6881  1.4951 -0.2165
 5667TIP3    H241197   1.896   6.671  10.652  0.8616  0.6019  0.6859
 5668TIP3   OH241198   2.753   3.166  10.232  0.0794 -0.5681 -0.4387
 5668TIP3    H141199   2.756   3.258  10.255 -1.0755 -0.7150  0.4009
 5668TIP3    H241200   2.701   3.125  10.302 -1.6140 -1.4161 -2.0847
 5669TIP3   OH241201   0.449   5.655   8.895 -0.5557 -0.2920  0.0201
 5669TIP3    H141202   0.438   5.568   8.934 -0.4954 -0.0500  0.5896
 5669TIP3    H241203   0.403   5.714   8.955  1.6550  0.4339  1.1149
 5670TIP3   OH241204   5.273   0.922  10.635  0.1539  0.3117 -0.3071
 5670TIP3    H141205   5.269   1.006  10.681  1.5852  0.8203 -1.0557
 5670TIP3    H241206   5.329   0.939  10.559  1.1987 -1.5427 -0.0087
 5671TIP3   OH241207   0.900   3.634  10.382 -0.4546  0.3537 -0.6487
 5671TIP3    H141208   0.969   3.567  10.380 -0.5523  0.2559 -0.9526
 5671TIP3    H241209   0.818   3.584  10.372 -0.6078  0.4200  0.2475
 5672TIP3   OH241210   3.858   0.798   9.932 -0.0853  0.8256 -0.2687
 5672TIP3    H141211   3.933   0.749   9.896 -0.1965  0.1330  0.4300
 5672TIP3    H241212   3.826   0.849   9.857 -0.0874 -0.3142 -1.0797
 5673TIP3   OH241213   0.553   7.092   9.198  0.1013  0.6870 -0.2012
 5673TIP3    H141214   0.464   7.088   9.231 -0.5965 -1.1127 -2.0600
 5673TIP3    H241215   0.605   7.043   9.263 -1.1727 -2.4812 -1.3545
 5674TIP3   OH241216   1.245   6.375   8.829  0.5309  0.1801  0.4584
 5674TIP3    H141217   1.278   6.288   8.806  2.4660  0.9222  0.2416
 5674TIP3    H241218   1.253   6.380   8.924 -1.0760 -0.4025  0.6670
 5675TIP3   OH241219   1.875   5.270  10.076  0.1267 -0.3777 -0.3994
 5675TIP3    H141220   1.842   5.359  10.082  1.3532  0.0327  0.8628
 5675TIP3    H241221   1.925   5.257  10.157  2.6849 -1.0678 -1.9597
 5676TIP3   OH241222   0.113   2.603  10.197  0.1203  0.2649  0.6954
 5676TIP3    H141223   0.112   2.692  10.163  2.5618  0.5666  1.2278
 5676TIP3    H241224   0.166   2.609  10.277 -1.0890 -1.3647  1.6748
 5677TIP3   OH241225   0.281   7.846   8.843 -0.4914 -0.2859 -0.2155
 5677TIP3    H141226   0.356   7.793   8.868 -1.8557 -1.5560  1.4072
 5677TIP3    H241227   0.223   7.785   8.797 -1.5189  0.0892  0.5494
 5678TIP3   OH241228   1.628   6.720   9.102 -0.0774  0.6082 -0.7754
 5678TIP3    H141229   1.608   6.644   9.157 -1.1293  0.1959 -1.6861
 5678TIP3    H241230   1.706   6.758   9.142  0.5838 -1.0438 -0.3861
 5679TIP3   OH241231   1.604   6.317   8.633 -0.3228  0.0688 -0.1786
 5679TIP3    H141232   1.621   6.410   8.620 -0.8519  0.1781 -0.1015
 5679TIP3    H241233   1.606   6.305   8.728 -2.0462  0.3583 -0.0819
 5680TIP3   OH241234   4.683   5.156  10.071 -0.0052 -0.6364  0.9323
 5680TIP3    H141235   4.705   5.066  10.045  1.1522  0.4980 -2.7201
 5680TIP3    H241236   4.588   5.162  10.060  0.2036 -0.7790 -1.7407
 5681TIP3   OH241237   3.724   2.328  10.312  0.3908  0.1253 -0.2891
 5681TIP3    H141238   3.753   2.354  10.400 -0.8593  2.1791 -0.3955
 5681TIP3    H241239   3.742   2.235  10.307  3.9888  0.6284  0.7216
 5682TIP3   OH241240   2.432   2.113   8.636 -0.2138  0.4830 -0.3503
 5682TIP3    H141241   2.493   2.068   8.578  1.6466  1.2085  0.9439
 5682TIP3    H241242   2.383   2.043   8.678  2.1908 -0.4103  1.1725
 5683TIP3   OH241243   6.725   1.894   9.379 -0.0986 -0.5046 -0.1469
 5683TIP3    H141244   6.763   1.838   9.312 -0.4678 -0.2172 -0.6072
 5683TIP3    H241245   6.754   1.856   9.462  2.5360  0.6118 -0.4456
 5684TIP3   OH241246   2.788   2.259   9.243  0.5326  0.2029 -0.3545
 5684TIP3    H141247   2.723   2.237   9.175 -1.4451  0.4878  1.3291
 5684TIP3    H241248   2.769   2.197   9.314  2.4338  0.0329  0.0492
 5685TIP3   OH241249   5.976   0.958  10.303 -0.4599  0.0483 -0.8103
 5685TIP3    H141250   6.039   0.983  10.236 -1.9706  1.1458 -1.8946
 5685TIP3    H241251   5.945   0.872  10.277  2.2701 -1.6608  1.0700
 5686TIP3   OH241252   0.127   0.404   9.999 -0.0492 -0.4726 -0.2797
 5686TIP3    H141253   0.059   0.466   9.970  0.5707  0.0272 -0.7105
 5686TIP3    H241254   0.124   0.409  10.094  1.8996  2.4717 -0.2187
 5687TIP3   OH241255   5.528   2.240   9.052  0.0482  0.2348 -0.6792
 5687TIP3    H141256   5.578   2.245   8.971 -0.4254 -1.0700 -1.0646
 5687TIP3    H241257   5.454   2.299   9.037  0.6032  0.9502 -0.7049
 5688TIP3   OH241258   3.897   3.491   9.510 -0.1237 -0.0718 -0.0640
 5688TIP3    H141259   3.843   3.413   9.521 -1.3176  0.8521  1.0557
 5688TIP3    H241260   3.854   3.540   9.440 -0.6340  0.5510  0.6627
 5689TIP3   OH241261   2.295   1.222   8.631 -0.4344 -0.1295  0.0642
 5689TIP3    H141262   2.279   1.186   8.718 -0.7153  0.1992  0.1518
 5689TIP3    H241263   2.221   1.281   8.615 -0.4799 -0.3190 -0.4686
 5690TIP3   OH241264   6.279   2.854  10.545 -0.2859  0.3623  0.0522
 5690TIP3    H141265   6.241   2.922  10.490 -0.5930 -0.0628 -0.2711
 5690TIP3    H241266   6.222   2.849  10.622 -0.3015  0.4206  0.0441
 5691TIP3   OH241267   4.666   1.311  10.765  0.0691 -0.4912  0.2767
 5691TIP3    H141268   4.697   1.368  10.835 -1.5563 -0.1387  0.7642
 5691TIP3    H241269   4.572   1.303  10.781 -0.4922  0.1497 -2.2606
 5692TIP3   OH241270   5.658   5.937  10.340  0.5270 -0.1926 -0.3234
 5692TIP3    H141271   5.741   5.900  10.310  1.7400  0.7164  1.6601
 5692TIP3    H241272   5.681   5.982  10.422 -1.8152  0.6404 -0.0626
 5693TIP3   OH241273   8.144   2.056   9.137 -0.1887  0.3158  0.5647
 5693TIP3    H141274   8.056   2.039   9.172 -0.2723  1.7851  1.1336
 5693TIP3    H241275   8.134   2.136   9.085  0.4055 -0.6564 -1.1013
 5694TIP3   OH241276   5.506   2.629  10.354 -0.3350  0.0572 -0.0468
 5694TIP3    H141277   5.470   2.548  10.319 -0.9470  1.2516 -2.4509
 5694TIP3    H241278   5.547   2.604  10.436 -3.4617 -2.0560  1.0776
 5695TIP3   OH241279   4.211   6.220   9.265 -0.3277  0.1910 -0.4027
 5695TIP3    H141280   4.303   6.237   9.288 -0.6895 -0.2469  1.4812
 5695TIP3    H241281   4.161   6.281   9.319 -1.1621  1.4963 -2.4768
 5696TIP3   OH241282   2.460   0.963   9.854 -0.3234 -0.4963  0.2471
 5696TIP3    H141283   2.392   0.899   9.874  0.9922 -1.4554  2.0033
 5696TIP3    H241284   2.537   0.910   9.832  0.3346  0.5231  0.0018
 5697TIP3   OH241285   6.975   4.284   9.608 -0.2741 -0.1933 -0.9882
 5697TIP3    H141286   6.971   4.189   9.599 -0.5473 -0.2042 -0.7631
 5697TIP3    H241287   6.885   4.310   9.631 -0.1840  0.1094 -0.9721
 5698TIP3   OH241288   1.951   5.573   9.311  0.3112  0.0471 -0.9106
 5698TIP3    H141289   1.857   5.562   9.327  0.1989  0.7693 -1.0348
 5698TIP3    H241290   1.988   5.486   9.324 -0.3232 -0.1656 -0.4818
 5699TIP3   OH241291   0.651   4.765   9.649 -0.4174 -0.2424 -0.2047
 5699TIP3    H141292   0.723   4.828   9.648 -0.2186 -0.4469  0.5615
 5699TIP3    H241293   0.576   4.812   9.613 -0.6095  0.8337  1.5162
 5700TIP3   OH241294   2.997   7.822   9.982 -0.5010  0.2273  0.0827
 5700TIP3    H141295   3.090   7.815   9.960  0.3375 -3.1511  3.4638
 5700TIP3    H241296   2.993   7.894  10.045 -0.6424  1.8085 -1.6883
 5701TIP3   OH241297   5.347   3.528   9.520 -0.0180  0.3878  0.4361
 5701TIP3    H141298   5.266   3.563   9.557 -1.1309 -0.0974 -1.4548
 5701TIP3    H241299   5.320   3.455   9.466  1.8093 -0.4371  0.5517
 5702TIP3   OH241300   2.550   5.730   9.471 -0.0688  0.2661  0.4486
 5702TIP3    H141301   2.497   5.674   9.528 -0.3778  0.4872  0.3777
 5702TIP3    H241302   2.556   5.682   9.389 -1.1543  0.7798  0.0602
 5703TIP3   OH241303   1.347   1.890   9.433 -0.1274 -0.2647  0.8834
 5703TIP3    H141304   1.375   1.981   9.440 -1.1138  0.3068 -1.6383
 5703TIP3    H241305   1.251   1.894   9.440 -0.3304 -0.8444 -1.1058
 5704TIP3   OH241306   3.625   7.355   9.324  0.4113  0.0148 -0.5182
 5704TIP3    H141307   3.626   7.261   9.305 -0.6031  0.2350 -1.8847
 5704TIP3    H241308   3.709   7.372   9.366  0.6507 -1.4832 -0.3278
 5705TIP3   OH241309   8.411   2.711  10.399 -0.2643  0.0822  0.1736
 5705TIP3    H141310   8.418   2.641  10.334  1.7227  0.0552  0.3435
 5705TIP3    H241311   8.328   2.694  10.444  0.2845 -2.3679  0.4163
 5706TIP3   OH241312   1.304   3.753  10.244  0.3948  0.0420  0.2260
 5706TIP3    H141313   1.269   3.702  10.171 -2.5951  2.0147  0.1131
 5706TIP3    H241314   1.348   3.826  10.202  0.9582 -0.1856  0.4135
 5707TIP3   OH241315   2.263   1.842  10.013  0.0085 -0.1284  0.5267
 5707TIP3    H141316   2.253   1.772   9.949 -0.2896  0.0922  0.3325
 5707TIP3    H241317   2.176   1.880  10.022  0.0322 -0.1996  1.1152
 5708TIP3   OH241318   8.022   0.256   9.811  0.1706 -0.2731  0.4139
 5708TIP3    H141319   7.983   0.193   9.871 -1.0831 -2.4173 -2.4059
 5708TIP3    H241320   8.116   0.238   9.815 -0.2221 -3.0385 -0.9397
 5709TIP3   OH241321   0.368   4.989   8.860 -0.2285 -0.0615 -0.1935
 5709TIP3    H141322   0.364   5.037   8.777 -0.6975 -1.3494 -0.9431
 5709TIP3    H241323   0.437   4.924   8.846  0.0948  0.0887  0.6472
 5710TIP3   OH241324   7.746   2.707  10.029 -0.6128  0.2594 -0.3111
 5710TIP3    H141325   7.754   2.623  10.073  0.5884  0.8567  0.6551
 5710TIP3    H241326   7.744   2.685   9.936 -1.4314 -0.8995 -0.0363
 5711TIP3   OH241327   7.716   5.847   8.771  0.4031  0.2945 -0.0413
 5711TIP3    H141328   7.628   5.879   8.753  0.7622  0.8598 -0.9132
 5711TIP3    H241329   7.705   5.755   8.793 -0.5296  0.6927  1.2314
 5712TIP3   OH241330   1.554   5.516   9.563  0.3601 -0.5366  0.2422
 5712TIP3    H141331   1.472   5.478   9.533 -0.0647 -0.2811  1.0728
 5712TIP3    H241332   1.600   5.444   9.606 -0.4697 -0.1231  1.8672
 5713TIP3   OH241333   4.084   4.646   9.407 -0.5523 -0.2336  0.2128
 5713TIP3    H141334   4.137   4.634   9.329 -0.1899 -0.1090  0.4345
 5713TIP3    H241335   4.089   4.740   9.425 -0.7262 -0.2437  0.3209
 5714TIP3   OH241336   8.443   3.362  10.666 -0.4043 -0.6746 -0.0606
 5714TIP3    H141337   8.452   3.289  10.604  1.0300  0.3963 -1.1990
 5714TIP3    H241338   8.524   3.361  10.717 -1.2620 -1.0931  1.3463
 5715TIP3   OH241339   2.851   6.725   8.632 -0.3318  0.0710  0.0551
 5715TIP3    H141340   2.817   6.695   8.547  0.3754  3.0564 -1.4166
 5715TIP3    H241341   2.780   6.778   8.668  0.2933  0.8548  0.1469
 5716TIP3   OH241342   3.803   1.732  10.131  0.0075  0.2225 -0.6791
 5716TIP3    H141343   3.732   1.782  10.092 -1.2015 -1.7871 -1.1910
 5716TIP3    H241344   3.770   1.707  10.217 -0.0362 -0.9492 -1.0238
 5717TIP3   OH241345   4.883   3.012   8.683  0.3963 -0.4232 -0.2550
 5717TIP3    H141346   4.812   2.948   8.690  0.9052 -0.9211  0.4266
 5717TIP3    H241347   4.838   3.096   8.671 -0.3272 -0.6428  0.8359
 5718TIP3   OH241348   5.890   5.395  10.526  0.1608 -0.2112  1.0082
 5718TIP3    H141349   5.862   5.429  10.611 -0.9271 -0.1481  0.6359
 5718TIP3    H241350   5.823   5.331  10.503  1.6225 -1.9324  1.2284
 5719TIP3   OH241351   7.398   6.049   9.856 -0.2803  0.2336  0.1051
 5719TIP3    H141352   7.441   6.134   9.858 -0.6299  0.4297 -0.5365
 5719TIP3    H241353   7.428   6.009   9.774 -1.0049  0.2101 -0.1553
 5720TIP3   OH241354   3.227   7.795   9.112  0.0300  0.2215  0.5948
 5720TIP3    H141355   3.183   7.740   9.047 -0.7030  0.1524  1.1352
 5720TIP3    H241356   3.165   7.867   9.128 -1.0576 -1.1759  3.2098
 5721TIP3   OH241357   1.197   7.870  10.097 -0.3475 -0.0303  0.0766
 5721TIP3    H141358   1.115   7.832  10.065  0.3066 -0.7663 -0.7814
 5721TIP3    H241359   1.179   7.891  10.189 -1.1271 -1.3238  0.2567
 5722TIP3   OH241360   1.140   4.478   9.466 -0.4524  0.3510  0.2707
 5722TIP3    H141361   1.206   4.540   9.497 -0.3280  1.0183 -1.2642
 5722TIP3    H241362   1.173   4.393   9.494  1.5324  0.5786 -1.1519
 5723TIP3   OH241363   7.855   5.388   8.954  0.0416 -0.1022 -0.2749
 5723TIP3    H141364   7.872   5.311   8.900 -0.3508  0.4676 -1.2293
 5723TIP3    H241365   7.908   5.457   8.916  0.8392 -0.0238  0.9294
 5724TIP3   OH241366   3.249   5.501   9.654 -0.1273  0.4061  0.3811
 5724TIP3    H141367   3.199   5.424   9.682 -1.3862  1.0935  0.0945
 5724TIP3    H241368   3.214   5.573   9.706 -0.0281  1.0547 -0.4245
 5725TIP3   OH241369   5.677   8.075   9.114 -0.2015  0.3762  0.2211
 5725TIP3    H141370   5.627   8.156   9.118  0.0500  0.6692 -1.6925
 5725TIP3    H241371   5.752   8.095   9.058  0.6735 -0.7792  0.9158
 5726TIP3   OH241372   5.267   0.576  10.002  0.1291 -0.3970  0.2874
 5726TIP3    H141373   5.344   0.624   9.972 -2.3536  2.5415 -2.1257
 5726TIP3    H241374   5.261   0.502   9.942  0.4564  0.0269 -0.2851
 5727TIP3   OH241375   2.223   8.396  10.500  0.7801  0.5775 -0.7144
 5727TIP3    H141376   2.140   8.427  10.535  1.0252  1.0468 -0.5327
 5727TIP3    H241377   2.202   8.365  10.412  0.3898  0.5550 -0.6160
 5728TIP3   OH241378   5.697   8.343   9.877  0.0441  0.7546  0.0192
 5728TIP3    H141379   5.634   8.273   9.896  1.4084 -0.1694  1.4246
 5728TIP3    H241380   5.643   8.417   9.850 -1.8212  0.5870  2.8964
 5729TIP3   OH241381   6.407   2.586   9.877  0.1343  0.6394 -0.5901
 5729TIP3    H141382   6.493   2.595   9.918 -0.3234 -1.0718  0.8917
 5729TIP3    H241383   6.403   2.495   9.848 -1.9861 -0.0517  1.4908
 5730TIP3   OH241384   5.617   8.340  10.435 -0.2656 -0.0404 -0.3176
 5730TIP3    H141385   5.539   8.356  10.488 -0.6012  0.3415 -0.9154
 5730TIP3    H241386   5.645   8.252  10.460  0.4689  0.6956  1.6096
 5731TIP3   OH241387   6.132   4.692   9.138  0.2133 -0.1308  0.4969
 5731TIP3    H141388   6.200   4.759   9.149 -0.4073  0.4438  0.9172
 5731TIP3    H241389   6.172   4.627   9.080  0.4388  1.1556 -0.8588
 5732TIP3   OH241390   2.332   5.605  10.556 -0.0669  0.3205 -0.1714
 5732TIP3    H141391   2.325   5.674  10.622 -1.8193 -2.3284  2.6949
 5732TIP3    H241392   2.410   5.555  10.583 -1.3928 -1.3969  0.6433
 5733TIP3   OH241393   3.308   6.506   8.957 -0.5437  0.1489 -0.4540
 5733TIP3    H141394   3.303   6.483   9.049 -1.5730 -0.2287 -0.5902
 5733TIP3    H241395   3.298   6.422   8.911  1.4222  0.1157 -0.9147
 5734TIP3   OH241396   0.460   3.945  10.158 -0.5049  0.2415 -0.3324
 5734TIP3    H141397   0.550   3.976  10.165 -0.6425  0.4756  0.5815
 5734TIP3    H241398   0.450   3.920  10.066  0.1846  1.1489 -0.6671
 5735TIP3   OH241399   5.250   7.432   9.108  0.3830  0.5642  0.0887
 5735TIP3    H141400   5.297   7.428   9.192  1.5256 -1.9388 -0.5560
 5735TIP3    H241401   5.292   7.503   9.061  1.8429  0.0410  0.5289
 5736TIP3   OH241402   0.689   6.264   9.936  0.2852 -0.2709 -0.0698
 5736TIP3    H141403   0.755   6.201   9.908  0.2975 -0.7795  1.0482
 5736TIP3    H241404   0.716   6.346   9.896  0.1368 -0.9901 -1.7622
 5737TIP3   OH241405   7.276   3.289   9.743 -0.2901 -0.5371  0.4670
 5737TIP3    H141406   7.214   3.215   9.742 -0.8231 -0.1318  1.7721
 5737TIP3    H241407   7.284   3.312   9.836  1.0119  0.1059  0.2100
 5738TIP3   OH241408   5.253   0.077  10.864 -0.0981 -0.2666 -0.5260
 5738TIP3    H141409   5.279   0.020  10.791  1.3298  1.5012 -1.4721
 5738TIP3    H241410   5.287   0.033  10.941  0.2562 -1.1061 -1.1388
 5739TIP3   OH241411   2.655   0.405  10.481 -0.4207  0.3758  0.4233
 5739TIP3    H141412   2.725   0.412  10.417  0.2829  0.1381  1.1543
 5739TIP3    H241413   2.582   0.453  10.442  0.0446  0.3572 -0.4817
 5740TIP3   OH241414   4.909   4.317  10.802  0.4568 -0.2472  0.2197
 5740TIP3    H141415   4.918   4.407  10.772  2.1592  0.4090  2.3914
 5740TIP3    H241416   4.817   4.296  10.789  0.1719  1.5302 -0.9787
 5741TIP3   OH241417   8.293   7.905   9.123  0.1551 -0.1813  0.0199
 5741TIP3    H141418   8.380   7.925   9.086  0.1556 -0.6353 -0.2291
 5741TIP3    H241419   8.232   7.942   9.060  0.1652  0.2079  0.2345
 5742TIP3   OH241420   7.964   0.172  10.068 -0.1077  0.1542 -0.5243
 5742TIP3    H141421   7.957   0.252  10.120 -1.3261  0.0804 -0.5305
 5742TIP3    H241422   7.889   0.118  10.097  0.9766 -1.2099 -0.1484
 5743TIP3   OH241423   6.898   4.106  15.821 -0.3426  0.4983  0.0397
 5743TIP3    H141424   6.947   4.026  15.842 -0.2378 -0.0464 -2.0666
 5743TIP3    H241425   6.958   4.158  15.768 -0.6570  1.6761  0.8107
 5744TIP3   OH241426   1.680   0.443   8.599 -0.2071 -0.4293  0.6936
 5744TIP3    H141427   1.673   0.412   8.689  1.4020  0.3566  1.1217
 5744TIP3    H241428   1.670   0.364   8.546 -1.0458 -0.9167  1.5399
 5745TIP3   OH241429   4.188   7.956   9.722 -0.1774  0.0133 -0.0614
 5745TIP3    H141430   4.207   8.038   9.768  2.5255 -1.1299  1.0995
 5745TIP3    H241431   4.109   7.922   9.764 -1.0402  1.7140 -0.2209
 5746TIP3   OH241432   4.906   2.827   9.588 -0.2022 -0.3912 -0.7524
 5746TIP3    H141433   4.837   2.800   9.648 -0.4181 -0.6302 -1.1031
 5746TIP3    H241434   4.877   2.796   9.502  0.1976 -0.2312 -0.9512
 5747TIP3   OH241435   7.492   6.443   8.439 -0.0351  0.2411  0.2865
 5747TIP3    H141436   7.504   6.382   8.366 -1.1966 -1.6872  1.5852
 5747TIP3    H241437   7.420   6.405   8.489 -0.1353  2.1973  1.7363
 5748TIP3   OH241438   0.533   3.518   8.806  0.1845  0.0862  0.5731
 5748TIP3    H141439   0.622   3.486   8.817 -0.2460 -0.4050  3.6646
 5748TIP3    H241440   0.484   3.442   8.775  0.4475 -0.3190  1.1291
 5749TIP3   OH241441   3.762   5.988   9.537  0.5454 -0.3407 -0.1885
 5749TIP3    H141442   3.673   5.968   9.568  0.7763 -2.2027 -0.5688
 5749TIP3    H241443   3.785   6.070   9.580 -1.1779 -0.0754  0.3023
 5750TIP3   OH241444   3.823   3.644   9.748 -0.0980 -0.0243  0.2774
 5750TIP3    H141445   3.888   3.611   9.686  0.1536 -0.1855  0.6257
 5750TIP3    H241446   3.750   3.673   9.693  0.5339  0.7817 -0.1655
 5751TIP3   OH241447   3.821   5.950   9.156  0.3428  0.0822  0.2200
 5751TIP3    H141448   3.906   5.936   9.198  0.7579  1.4416 -0.0985
 5751TIP3    H241449   3.842   5.990   9.072 -0.6030  0.0363 -0.0519
 5752TIP3   OH241450   1.250   1.380   8.726 -0.6708 -0.4124 -0.3162
 5752TIP3    H141451   1.233   1.286   8.728 -2.9157 -0.0706 -0.3091
 5752TIP3    H241452   1.264   1.403   8.818 -0.9178 -0.6308 -0.2200
 5753TIP3   OH241453   0.279   5.049   9.104  0.2211  0.4319  0.2061
 5753TIP3    H141454   0.189   5.079   9.091  0.4015  1.0484  0.3630
 5753TIP3    H241455   0.310   5.028   9.016  0.0482  0.5690  0.1108
 5754TIP3   OH241456   0.465   3.961  10.450  0.1222 -0.2397  0.7730
 5754TIP3    H141457   0.440   3.969  10.357  1.3234  1.7437  0.5568
 5754TIP3    H241458   0.553   3.924  10.448  0.4084  0.4202  1.0853
 5755TIP3   OH241459   2.816   5.390  10.168 -0.0621  0.1176 -0.3497
 5755TIP3    H141460   2.870   5.460  10.131  0.7566 -0.5709 -0.4777
 5755TIP3    H241461   2.872   5.349  10.234  0.1462 -1.5622 -1.5055
 5756TIP3   OH241462   3.911   6.337   9.931 -0.6953 -0.2916  0.2189
 5756TIP3    H141463   3.826   6.359   9.969  0.0362  1.8664  0.7163
 5756TIP3    H241464   3.975   6.381   9.987  0.6875 -0.7466 -0.9373
 5757TIP3   OH241465   2.190   1.084  10.546  0.0076  0.0520 -0.0603
 5757TIP3    H141466   2.239   1.162  10.520  1.2264 -0.6182  0.1051
 5757TIP3    H241467   2.198   1.080  10.641  2.7667 -1.9421 -0.2497
 5758TIP3   OH241468   3.650   0.895  10.418  0.1378  0.8187 -0.6366
 5758TIP3    H141469   3.678   0.804  10.413  1.0648  1.0229  0.3360
 5758TIP3    H241470   3.654   0.917  10.511 -0.9399  1.6020 -0.7516
 5759TIP3   OH241471   2.525   7.525  10.224 -0.2082 -0.3300  0.6956
 5759TIP3    H141472   2.433   7.501  10.221 -0.2042 -0.7031  2.3983
 5759TIP3    H241473   2.547   7.524  10.317  1.9878 -2.1367  0.2454
 5760TIP3   OH241474   1.964   1.602   8.866  0.2568  0.3926  0.2773
 5760TIP3    H141475   1.874   1.635   8.861  0.6510  1.4049 -0.5842
 5760TIP3    H241476   2.019   1.678   8.845  1.2291 -0.6653 -1.2207
 5761TIP3   OH241477   6.954   7.251   8.939  0.3007 -0.5811 -0.4064
 5761TIP3    H141478   6.989   7.170   8.978 -1.2941 -1.3215 -0.4481
 5761TIP3    H241479   7.024   7.316   8.953  0.6595 -1.3527  1.7758
 5762TIP3   OH241480   1.473   0.482   9.673 -0.4346 -0.2850 -0.6578
 5762TIP3    H141481   1.566   0.506   9.668  0.0267 -2.1199 -2.0302
 5762TIP3    H241482   1.462   0.446   9.761 -0.0098  0.5560 -0.2544
 5763TIP3   OH241483   5.450   6.867   8.897  0.0586 -0.4646  0.1582
 5763TIP3    H141484   5.405   6.785   8.878  1.2336 -1.9686  3.0877
 5763TIP3    H241485   5.447   6.874   8.993  2.3661  1.4577  0.1935
 5764TIP3   OH241486   2.900   6.429   8.641  0.0613 -0.1211 -0.2767
 5764TIP3    H141487   2.953   6.411   8.719  0.9597 -2.4681 -1.3234
 5764TIP3    H241488   2.933   6.512   8.607  0.4092  0.3706  1.2183
 5765TIP3   OH241489   4.650   1.966   9.664  0.2051 -0.0910  0.5210
 5765TIP3    H141490   4.578   2.026   9.645  0.3774 -0.1942 -0.5565
 5765TIP3    H241491   4.727   2.009   9.625  0.7736  0.1030  1.8050
 5766TIP3   OH241492   2.902   4.950  10.710 -0.6295 -0.8001 -0.1272
 5766TIP3    H141493   2.842   5.022  10.729  0.1310 -0.1809 -0.0412
 5766TIP3    H241494   2.856   4.872  10.741 -0.6114 -0.1396  1.7083
 5767TIP3   OH241495   6.548   2.697   9.551  0.0731  0.0597 -0.2944
 5767TIP3    H141496   6.576   2.748   9.626  0.1861  0.5474 -0.6583
 5767TIP3    H241497   6.576   2.749   9.475  0.2817 -0.5964 -0.6717
 5768TIP3   OH241498   4.143   3.062   9.692  0.0477  0.5206 -0.0085
 5768TIP3    H141499   4.143   2.988   9.631 -0.0287  0.5019  0.0155
 5768TIP3    H241500   4.165   3.023   9.777  0.4563  0.5889 -0.0773
 5769TIP3   OH241501   3.504   4.764  10.400  0.3449  0.2946 -0.3221
 5769TIP3    H141502   3.532   4.672  10.405  0.5349  0.3446 -0.4473
 5769TIP3    H241503   3.479   4.786  10.490 -0.1358 -0.0128 -0.3762
 5770TIP3   OH241504   2.187   7.154   9.095  0.1656  0.0487  0.1550
 5770TIP3    H141505   2.212   7.195   9.179  0.4443  2.4644 -1.0337
 5770TIP3    H241506   2.265   7.165   9.040 -0.0060 -1.5544 -0.4652
 5771TIP3   OH241507   5.752   3.146  10.124 -0.1790 -0.5310 -0.0093
 5771TIP3    H141508   5.740   3.163  10.218  1.3477 -0.3504  0.1702
 5771TIP3    H241509   5.733   3.053  10.114 -0.9347 -0.4264  0.3683
 5772TIP3   OH241510   5.665   4.874   9.574  0.1697 -0.3835  0.2816
 5772TIP3    H141511   5.760   4.880   9.585  0.2593 -2.4954  1.2195
 5772TIP3    H241512   5.653   4.843   9.484  0.3871 -0.3966  0.2566
 5773TIP3   OH241513   3.893   4.792   8.776 -0.6157  0.2660  0.1069
 5773TIP3    H141514   3.916   4.832   8.692  1.1755 -1.3862 -0.2639
 5773TIP3    H241515   3.963   4.818   8.836 -0.2928 -0.9197  0.2843
 5774TIP3   OH241516   6.303   1.316  10.308 -0.9285  0.4452 -0.0498
 5774TIP3    H141517   6.223   1.332  10.359 -1.1683 -0.9434  0.0574
 5774TIP3    H241518   6.361   1.271  10.368 -2.1096 -3.4467 -1.5181
 5775TIP3   OH241519   8.378   6.877  10.068  0.2284  0.7614 -0.2055
 5775TIP3    H141520   8.284   6.855  10.069  0.2866  0.4738 -0.6206
 5775TIP3    H241521   8.402   6.872   9.975  0.2852  2.4143 -0.3009
 5776TIP3   OH241522   5.870   2.557   9.458  0.2713  0.2472  0.8127
 5776TIP3    H141523   5.823   2.529   9.537 -2.6132  0.6261 -0.6069
 5776TIP3    H241524   5.848   2.491   9.392  1.9034  0.3853  0.0862
 5777TIP3   OH241525   0.009   0.393  10.284  0.2613 -0.4018 -0.7198
 5777TIP3    H141526   0.052   0.431  10.361  0.7458 -0.6504 -0.8612
 5777TIP3    H241527   0.006   0.299  10.301 -3.0199 -0.1605  0.6642
 5778TIP3   OH241528   0.012   5.425   9.086  0.2989  0.3716 -0.0751
 5778TIP3    H141529   0.099   5.423   9.125  0.9769  1.3531 -1.4675
 5778TIP3    H241530  -0.018   5.515   9.097 -0.5211  0.0652  0.3066
 5779TIP3   OH241531   7.671   6.485  10.006 -0.3272  0.0605 -0.2872
 5779TIP3    H141532   7.715   6.403  10.031  1.7829  1.0274 -0.5700
 5779TIP3    H241533   7.619   6.509  10.083  2.1956  0.4658  1.4260
 5780TIP3   OH241534   4.305   5.922   9.041  0.1873  0.1983 -0.0008
 5780TIP3    H141535   4.393   5.952   9.064  0.7191 -0.6725 -0.8379
 5780TIP3    H241536   4.257   6.001   9.019  0.6198  0.7260  0.8847
 5781TIP3   OH241537   7.148   8.028  10.285 -0.1372  0.3517  0.2530
 5781TIP3    H141538   7.228   8.005  10.238  0.1791 -0.2532  1.0604
 5781TIP3    H241539   7.176   8.043  10.375 -0.9919 -0.3323  0.6547
 5782TIP3   OH241540   3.698   1.424  10.064 -0.2519  0.9704  0.3614
 5782TIP3    H141541   3.674   1.389  10.149  0.3867  0.8681  0.5063
 5782TIP3    H241542   3.655   1.510  10.060  0.0383  1.1472  0.9522
 5783TIP3   OH241543   3.122   3.702   9.615 -0.5727 -0.0404 -0.1471
 5783TIP3    H141544   3.211   3.735   9.599  0.5990 -2.6864  0.3438
 5783TIP3    H241545   3.077   3.774   9.658  1.8631  0.8747  1.0699
 5784TIP3   OH241546   6.681   4.909  10.018  0.0358  0.8771  0.0128
 5784TIP3    H141547   6.654   4.893   9.927 -0.0899 -0.5641  0.2821
 5784TIP3    H241548   6.626   4.983  10.046  0.1010  1.3654 -1.0825
 5785TIP3   OH241549   5.363   7.843  10.329 -1.0314 -0.2866 -0.6484
 5785TIP3    H141550   5.316   7.798  10.400  0.2826  0.6454  0.9061
 5785TIP3    H241551   5.326   7.932  10.329 -0.5481 -0.0822 -0.6442
 5786TIP3   OH241552   5.230   0.837   9.712 -0.6184  0.2452 -0.4082
 5786TIP3    H141553   5.180   0.799   9.785 -0.7034 -0.5596 -0.8745
 5786TIP3    H241554   5.169   0.897   9.671 -0.6032  0.6311  0.1192
 5787TIP3   OH241555   8.439   2.970   9.519  0.5299  0.1244  0.3315
 5787TIP3    H141556   8.522   2.944   9.559  1.6162  1.6288 -0.8301
 5787TIP3    H241557   8.374   2.910   9.556  2.0943 -0.9569  1.4168
 5788TIP3   OH241558   7.679   4.382  10.226  0.1088  0.3353  0.4080
 5788TIP3    H141559   7.680   4.293  10.261 -1.1379  0.1804  0.0880
 5788TIP3    H241560   7.771   4.405  10.218  0.4433 -0.4714  1.6355
 5789TIP3   OH241561   8.043   5.126  10.505  0.9941 -0.2391  0.6179
 5789TIP3    H141562   7.988   5.107  10.429  2.1731  0.2282 -0.3963
 5789TIP3    H241563   8.006   5.205  10.542  0.5287 -0.3517  0.4024
 5790TIP3   OH241564   1.344   4.273   9.433  0.3098  0.0120 -0.1928
 5790TIP3    H141565   1.341   4.262   9.528  0.5817  1.6096  0.0290
 5790TIP3    H241566   1.425   4.320   9.416 -0.4437  1.0724 -1.0497
 5791TIP3   OH241567   7.261   0.393  10.670  0.3514  0.3237  0.3784
 5791TIP3    H141568   7.276   0.374  10.762 -0.3727 -0.9008  0.2634
 5791TIP3    H241569   7.167   0.381  10.658  0.6845 -1.4219 -0.9068
 5792TIP3   OH241570   0.006   6.523   9.829 -0.6175  0.0968 -0.3449
 5792TIP3    H141571   0.088   6.485   9.799  0.8308  2.0183  0.9015
 5792TIP3    H241572  -0.059   6.455   9.813  1.0084 -1.1185 -2.3105
 5793TIP3   OH241573   3.870   2.697   9.288  0.7875  0.0621  0.4891
 5793TIP3    H141574   3.885   2.787   9.259  3.2644 -1.3919 -3.6324
 5793TIP3    H241575   3.777   2.681   9.270  0.3093  1.7055  1.2899
 5794TIP3   OH241576   3.887   5.036   9.063 -0.6326 -0.2418 -0.0034
 5794TIP3    H141577   3.875   5.128   9.087 -1.0479  0.7385 -3.4100
 5794TIP3    H241578   3.860   4.987   9.141 -0.0177  2.4750  2.0798
 5795TIP3   OH241579   1.566   3.471   8.585  0.2115  0.1036  0.1084
 5795TIP3    H141580   1.553   3.489   8.491  1.5394  2.1511  0.2539
 5795TIP3    H241581   1.488   3.421   8.610 -0.7624  0.5202 -1.8303
 5796TIP3   OH241582   3.241   0.532   9.493  0.0670 -0.6535 -0.3164
 5796TIP3    H141583   3.238   0.454   9.437 -0.0904  0.3931 -1.8259
 5796TIP3    H241584   3.281   0.600   9.438 -0.5828  0.5730  0.6669
 5797TIP3   OH241585   6.109   2.721   9.854 -0.4632  0.2465 -0.4115
 5797TIP3    H141586   6.068   2.807   9.858  0.0357  0.5333 -1.2799
 5797TIP3    H241587   6.140   2.713   9.764  3.0023  0.8309  0.5792
 5798TIP3   OH241588   3.692   7.814   9.072 -0.5262  0.1547  0.1616
 5798TIP3    H141589   3.689   7.784   9.163  0.7223  0.5701  0.3521
 5798TIP3    H241590   3.602   7.801   9.039 -1.5926  1.9928  2.0874
 5799TIP3   OH241591   7.252   1.638  10.599  0.2223  0.1627 -0.2127
 5799TIP3    H141592   7.262   1.701  10.670 -2.0562 -0.0973  0.4227
 5799TIP3    H241593   7.206   1.685  10.531 -0.8390 -0.5669 -0.0282
 5800TIP3   OH241594   6.441   8.350  10.384 -0.4377  0.2594 -0.1438
 5800TIP3    H141595   6.476   8.336  10.296  0.2192 -0.2382  0.1928
 5800TIP3    H241596   6.512   8.327  10.443 -1.6686 -1.9063  0.5958
 5801TIP3   OH241597   5.832   0.598   9.432  0.1103 -0.5287 -0.1714
 5801TIP3    H141598   5.866   0.511   9.411  1.0281 -0.3803  0.6108
 5801TIP3    H241599   5.740   0.595   9.409  0.5257 -1.1290 -1.8904
 5802TIP3   OH241600   5.628   1.002   9.393 -0.0171  0.7207 -0.0325
 5802TIP3    H141601   5.685   0.934   9.357  0.8601  1.2129  0.4049
 5802TIP3    H241602   5.679   1.083   9.386 -0.3477  1.0409  1.1017
 5803TIP3   OH241603   2.956   2.298   8.517 -0.4906  0.1064  0.0660
 5803TIP3    H141604   2.970   2.210   8.551  1.9749  0.0681 -0.8144
 5803TIP3    H241605   2.942   2.285   8.423  0.0421  0.6436 -0.0915
 5804TIP3   OH241606   1.120   6.260   9.100  0.4922 -0.3693  0.1965
 5804TIP3    H141607   1.071   6.193   9.147 -0.1270 -0.6476 -0.8312
 5804TIP3    H241608   1.197   6.277   9.155 -0.4352 -0.3631  1.5206
 5805TIP3   OH241609   4.956   0.545  10.056 -0.4816  0.1801  0.2849
 5805TIP3    H141610   5.030   0.484  10.053 -0.4974  0.1561  0.3895
 5805TIP3    H241611   4.984   0.614  10.115 -1.1018 -0.5666  1.4880
 5806TIP3   OH241612   3.349   7.531   9.775 -0.6195 -0.0177  0.0893
 5806TIP3    H141613   3.411   7.545   9.703 -1.4178  0.6385 -0.4960
 5806TIP3    H241614   3.385   7.458   9.824  1.9653  1.8924  1.2506
 5807TIP3   OH241615   4.942   5.239   8.875  0.3372  0.0935 -0.3582
 5807TIP3    H141616   4.865   5.296   8.866  0.0541 -0.4566 -1.6782
 5807TIP3    H241617   4.914   5.171   8.936  0.6266  1.2442  1.1134
 5808TIP3   OH241618   3.417   7.466  10.571 -0.3369  0.0833  0.1422
 5808TIP3    H141619   3.428   7.550  10.615  0.4731  0.9584 -1.6628
 5808TIP3    H241620   3.322   7.458  10.558 -0.5348  0.0916  1.4344
 5809TIP3   OH241621   5.580   5.388   8.837  0.0681 -0.3121 -0.4408
 5809TIP3    H141622   5.556   5.337   8.914  0.1938  0.4509  0.1029
 5809TIP3    H241623   5.504   5.379   8.778 -1.7310  2.1503  1.2919
 5810TIP3   OH241624   0.826   4.822  10.185 -0.1525  0.7811  0.3687
 5810TIP3    H141625   0.886   4.882  10.141  1.7933 -0.6010  0.9849
 5810TIP3    H241626   0.806   4.756  10.119  0.8963 -0.0077  0.8020
 5811TIP3   OH241627   1.566   7.146  10.451 -0.1889  0.5082  1.2475
 5811TIP3    H141628   1.617   7.079  10.496 -0.3869 -1.3915 -1.1307
 5811TIP3    H241629   1.632   7.203  10.410  0.1604 -1.2845 -0.8870
 5812TIP3   OH241630   0.944   3.754   9.654  0.0272 -0.2063  0.0177
 5812TIP3    H141631   0.983   3.701   9.584  0.1071  0.0363 -0.1220
 5812TIP3    H241632   0.908   3.830   9.609  1.1356  0.5546  0.3705
 5813TIP3   OH241633   5.417   3.224  10.269 -0.2068  0.3199 -0.0525
 5813TIP3    H141634   5.454   3.305  10.304  0.8544  0.1837 -0.8222
 5813TIP3    H241635   5.395   3.244  10.178  0.4554 -0.3573 -0.3755
 5814TIP3   OH241636   0.447   6.943   8.971 -0.1284 -0.2814 -0.4259
 5814TIP3    H141637   0.478   6.853   8.972 -1.0764 -0.6329  1.1386
 5814TIP3    H241638   0.473   6.978   9.057 -2.6337 -0.1381  0.3506
 5815TIP3   OH241639   3.413   6.782   9.230 -0.9988  0.6589 -0.2305
 5815TIP3    H141640   3.352   6.727   9.280 -1.1335  0.7128 -0.3365
 5815TIP3    H241641   3.474   6.720   9.191 -0.2129  0.6820  0.9109
 5816TIP3   OH241642   2.865   1.008   9.814  0.2586  0.4529 -0.7505
 5816TIP3    H141643   2.857   1.103   9.811  0.8210  0.5187 -0.2468
 5816TIP3    H241644   2.925   0.991   9.886  0.9541 -0.2393 -1.4725
 5817TIP3   OH241645   0.601   3.028  10.394  0.3825 -0.0300 -0.2666
 5817TIP3    H141646   0.578   3.112  10.354 -0.3563 -0.1337 -0.0810
 5817TIP3    H241647   0.611   2.968  10.321  0.4081  0.1033 -0.3719
 5818TIP3   OH241648   2.863   3.396  10.568  0.0023 -0.3387 -0.3167
 5818TIP3    H141649   2.925   3.429  10.633 -1.1539  2.4295 -0.4616
 5818TIP3    H241650   2.792   3.357  10.620  0.2785 -0.4808 -0.0383
 5819TIP3   OH241651   1.492   3.856   8.698 -0.1011 -0.3896  0.1468
 5819TIP3    H141652   1.505   3.765   8.668  0.1252 -0.8913  1.6949
 5819TIP3    H241653   1.581   3.887   8.715 -0.1775  0.1601 -0.4280
 5820TIP3   OH241654   5.242   0.674   9.264 -1.0661  0.0686  0.5628
 5820TIP3    H141655   5.316   0.661   9.323 -0.2089 -0.6500 -0.6419
 5820TIP3    H241656   5.167   0.639   9.313 -0.6937  1.0713  1.9139
 5821TIP3   OH241657   6.883   5.336   8.936  0.2185 -0.6328  0.4102
 5821TIP3    H141658   6.898   5.426   8.911 -0.7517 -0.3773  0.6821
 5821TIP3    H241659   6.813   5.306   8.878 -0.3753 -0.7839  1.1772
 5822TIP3   OH241660   4.539   3.553   9.799  0.2372  0.0760 -0.3561
 5822TIP3    H141661   4.447   3.568   9.778  0.6262  0.4484 -1.8464
 5822TIP3    H241662   4.552   3.460   9.783 -0.2025 -0.2945  1.2342
 5823TIP3   OH241663   1.886   7.124   8.883 -0.2665  0.0130 -0.8668
 5823TIP3    H141664   1.880   7.108   8.789 -2.2980  1.3548 -1.0315
 5823TIP3    H241665   1.905   7.038   8.921 -1.8408 -1.0503 -2.3360
 5824TIP3   OH241666   5.827   2.420   9.106 -0.0445 -0.1271  0.0999
 5824TIP3    H141667   5.760   2.408   9.174 -0.7531 -0.5017 -0.6336
 5824TIP3    H241668   5.790   2.375   9.030 -0.1866  1.9709 -1.1331
 5825TIP3   OH241669   8.337   7.709   9.564 -0.0003  0.1919  0.7032
 5825TIP3    H141670   8.304   7.635   9.514  0.2567 -0.1911  1.0835
 5825TIP3    H241671   8.389   7.759   9.502 -2.5409  1.7083 -0.3533
 5826TIP3   OH241672   6.748   4.949  10.320  0.3696 -0.1950  0.3709
 5826TIP3    H141673   6.749   4.933  10.226  0.2164  1.7158 -0.0090
 5826TIP3    H241674   6.657   4.975  10.339  1.0392  2.4610  0.3947
 5827TIP3   OH241675   2.221   1.408   9.481  0.1692  0.2743  0.1272
 5827TIP3    H141676   2.278   1.467   9.531  0.9878 -0.7395  0.4141
 5827TIP3    H241677   2.162   1.370   9.547  0.9428 -0.7119  0.2608
 5828TIP3   OH241678   6.190   0.152  10.108 -0.0859 -0.0892 -0.4866
 5828TIP3    H141679   6.182   0.240  10.147 -1.3068  0.1135 -1.1267
 5828TIP3    H241680   6.111   0.106  10.138  0.2651 -0.7868 -0.6190
 5829TIP3   OH241681   4.568   6.028   9.099  0.3040 -0.6881  0.4572
 5829TIP3    H141682   4.591   6.057   9.010  0.4281 -1.6231  0.1758
 5829TIP3    H241683   4.651   6.029   9.146  0.3618 -0.8796  0.3604
 5830TIP3   OH241684   1.982   1.543   9.242  0.2235 -0.3918 -0.5146
 5830TIP3    H141685   1.914   1.605   9.214 -1.1123 -1.6179 -0.1453
 5830TIP3    H241686   1.977   1.544   9.337 -1.3335 -2.5822 -0.5032
 5831TIP3   OH241687   8.423   0.742  10.645  0.3325  0.2611  0.3200
 5831TIP3    H141688   8.394   0.804  10.711 -2.4195  0.7924 -1.2343
 5831TIP3    H241689   8.458   0.668  10.695 -1.1414  0.8592  2.3661
 5832TIP3   OH241690   7.963   7.531   9.452 -0.0798  0.1063 -0.4277
 5832TIP3    H141691   8.036   7.472   9.435 -0.6711  0.2823 -4.4794
 5832TIP3    H241692   7.886   7.484   9.419 -1.6804  0.5016  2.4458
 5833TIP3   OH241693   1.397   3.292  10.249  0.2958 -0.2206 -0.0783
 5833TIP3    H141694   1.449   3.357  10.296 -0.7788  0.8505 -0.3237
 5833TIP3    H241695   1.456   3.217  10.239  2.1088  1.2504 -1.1362
 5834TIP3   OH241696   6.121   1.363   9.818 -0.3720 -0.1555 -0.1848
 5834TIP3    H141697   6.070   1.338   9.894 -0.8152  1.8392  0.2126
 5834TIP3    H241698   6.195   1.301   9.817 -0.9009 -0.8370  1.2562
 5835TIP3   OH241699   2.081   5.912  10.473  0.0470 -0.0829  0.1826
 5835TIP3    H141700   2.157   5.947  10.428  0.1797 -2.3603 -1.5232
 5835TIP3    H241701   2.107   5.907  10.565  2.3509 -1.6095 -0.4669
 5836TIP3   OH241702   6.756   7.518   9.963 -0.2061  0.0268  0.4130
 5836TIP3    H141703   6.694   7.468  10.016  0.8497 -0.6224  1.0736
 5836TIP3    H241704   6.701   7.568   9.902 -1.3096 -1.7843 -0.1388
 5837TIP3   OH241705   5.899   6.077   9.459  0.1814 -0.0141 -0.3692
 5837TIP3    H141706   5.849   5.997   9.443  0.3150 -0.1189 -0.2633
 5837TIP3    H241707   5.988   6.055   9.432  0.1884  0.1455 -0.4771
 5838TIP3   OH241708   5.822   0.082  10.474  0.4575 -0.5582 -0.3045
 5838TIP3    H141709   5.762   0.020  10.431 -0.6196  2.1038 -3.0170
 5838TIP3    H241710   5.796   0.080  10.566 -1.7894 -1.6805 -0.8872
 5839TIP3   OH241711   1.757   1.744   9.208  0.0295 -0.3054 -0.2197
 5839TIP3    H141712   1.799   1.829   9.225 -0.9130 -0.1458  1.5813
 5839TIP3    H241713   1.686   1.740   9.272 -2.0964 -1.0133 -2.4936
 5840TIP3   OH241714   7.475   0.666  10.044  0.0457 -0.2643  0.6482
 5840TIP3    H141715   7.448   0.616  10.121 -2.6624 -0.2603 -0.1811
 5840TIP3    H241716   7.452   0.757  10.064 -1.6221 -0.3909 -0.4518
 5841TIP3   OH241717   1.621   0.036   9.091  0.3131  0.3826 -0.1616
 5841TIP3    H141718   1.697  -0.012   9.122  0.5985  0.0099 -1.3869
 5841TIP3    H241719   1.625   0.029   8.995 -1.4777  0.0134 -0.2416
 5842TIP3   OH241720   0.924   4.650   9.886 -0.2206  0.3024 -0.2251
 5842TIP3    H141721   0.912   4.622   9.795  0.5969 -0.9470  0.0262
 5842TIP3    H241722   0.841   4.630   9.928 -1.0719  2.1078 -0.9661
 5843TIP3   OH241723   3.293   6.367   9.867 -0.3544  0.2080 -0.4540
 5843TIP3    H141724   3.223   6.356   9.804  0.8898 -1.8044 -1.5729
 5843TIP3    H241725   3.277   6.300   9.934 -0.3242  0.7390  0.0961
 5844TIP3   OH241726   1.159   5.156   9.105  0.3577 -0.3743 -0.6612
 5844TIP3    H141727   1.069   5.124   9.106 -0.3772  1.5227  1.0828
 5844TIP3    H241728   1.162   5.217   9.031 -0.3018  0.8141  0.2704
 5845TIP3   OH241729   1.059   6.394  10.742 -0.2629  0.5525 -0.7398
 5845TIP3    H141730   1.097   6.355  10.821 -2.8639  0.2048  0.4493
 5845TIP3    H241731   1.092   6.484  10.740  0.8965  0.1629 -0.0454
 5846TIP3   OH241732   4.939   6.225   9.821  0.1423 -0.5705 -0.0987
 5846TIP3    H141733   4.948   6.135   9.789  2.3112 -0.4004 -0.0841
 5846TIP3    H241734   4.878   6.218   9.895 -3.0197 -1.3347 -2.5506
 5847TIP3   OH241735   4.921   8.187   9.422  0.3130  0.5047  0.8284
 5847TIP3    H141736   5.015   8.192   9.404  0.4664 -0.0356  1.4258
 5847TIP3    H241737   4.894   8.103   9.386 -0.6127  1.9417 -2.1398
 5848TIP3   OH241738   1.426   7.522  10.381  0.2205 -0.7449 -0.2590
 5848TIP3    H141739   1.413   7.583  10.309  0.5825 -0.7094 -0.2917
 5848TIP3    H241740   1.491   7.564  10.437 -0.8037 -0.2808  0.6404
 5849TIP3   OH241741   1.057   3.047   9.319 -0.8943  0.2218  0.7413
 5849TIP3    H141742   1.106   3.039   9.237 -1.0683 -0.8276  0.7196
 5849TIP3    H241743   0.970   3.076   9.292 -1.0870 -0.5518  0.4921
 5850TIP3   OH241744   0.123   1.391   9.323  0.3032 -0.1889  0.7339
 5850TIP3    H141745   0.206   1.419   9.363  0.7951 -0.3858 -0.1279
 5850TIP3    H241746   0.130   1.296   9.320  0.5442 -0.1399 -0.3916
 5851TIP3   OH241747   1.108   4.522  11.014  0.1610 -0.1358 -0.2696
 5851TIP3    H141748   1.140   4.564  10.935  0.9304 -1.1242 -0.5025
 5851TIP3    H241749   1.160   4.442  11.022 -0.6467 -0.5996  0.6394
 5852TIP3   OH241750   0.199   3.880   9.961 -0.5083 -0.3261  0.1811
 5852TIP3    H141751   0.118   3.915   9.998  0.8675  0.8817  2.2374
 5852TIP3    H241752   0.225   3.944   9.895 -0.5150  0.0096  0.5029
 5853TIP3   OH241753   7.589   5.680  10.354  0.6579 -0.2454 -0.0011
 5853TIP3    H141754   7.531   5.635  10.292  0.6923 -1.1068  0.5765
 5853TIP3    H241755   7.625   5.753  10.304 -0.6739  0.1260 -0.4722
 5854TIP3   OH241756   3.233   0.106   8.647  0.0324  0.6423 -0.3217
 5854TIP3    H141757   3.318   0.139   8.675  0.9042 -0.4836 -1.5585
 5854TIP3    H241758   3.242   0.091   8.553 -0.5438 -2.2351 -0.0202
 5855TIP3   OH241759   2.997   5.556   9.821  0.3006  0.1747  0.1102
 5855TIP3    H141760   2.910   5.546   9.783  0.3865 -0.0485 -0.0312
 5855TIP3    H241761   2.981   5.590   9.909  0.0637  0.0064  0.1348
 5856TIP3   OH241762   6.362   8.074   9.098  0.7100  0.3685 -0.2027
 5856TIP3    H141763   6.290   8.066   9.035  1.6978  0.7150 -1.4155
 5856TIP3    H241764   6.320   8.066   9.184 -0.6947  0.0420 -0.8925
 5857TIP3   OH241765   2.632   5.203  10.357 -0.1315  0.3128 -0.2589
 5857TIP3    H141766   2.669   5.125  10.314 -1.2509 -0.9568  0.9771
 5857TIP3    H241767   2.571   5.239  10.293  1.0862  0.7619 -1.2072
 5858TIP3   OH241768   4.602   5.526   9.310  0.2617 -0.2216 -0.0568
 5858TIP3    H141769   4.622   5.600   9.252 -0.6344  0.0130 -0.0743
 5858TIP3    H241770   4.550   5.564   9.381 -1.0643 -0.9963 -0.5874
 5859TIP3   OH241771   5.714   5.172  10.487  0.2851 -0.0112 -0.0216
 5859TIP3    H141772   5.693   5.220  10.567  0.2267 -1.7576  1.0457
 5859TIP3    H241773   5.650   5.204  10.423 -0.7267  0.2476  1.0811
 5860TIP3   OH241774   8.320   8.110  10.162  0.4919  0.1993  0.3244
 5860TIP3    H141775   8.313   8.014  10.162  0.8938  0.1534  1.5501
 5860TIP3    H241776   8.412   8.127  10.138 -0.2070  0.3937 -2.5448
 5861TIP3   OH241777   1.107   5.815  10.932 -0.0088  0.6229  0.3521
 5861TIP3    H141778   1.185   5.769  10.902  0.2856  0.8765  0.7154
 5861TIP3    H241779   1.108   5.898  10.886 -0.4173  0.3700 -0.1292
 5862TIP3   OH241780   5.715   0.899  10.423 -0.1613  0.1136  0.1882
 5862TIP3    H141781   5.720   0.862  10.512  1.2121 -0.6820 -0.1905
 5862TIP3    H241782   5.804   0.931  10.405  0.0523 -1.2735 -1.5104
 5863TIP3   OH241783   1.910   2.773  10.989 -0.3689 -0.3361 -0.0223
 5863TIP3    H141784   1.845   2.843  10.991 -0.9014 -0.8291 -0.1192
 5863TIP3    H241785   1.990   2.816  10.957 -0.8171  0.1305 -0.5230
 5864TIP3   OH241786   0.325   7.711   9.988  0.3014  0.0405 -0.0207
 5864TIP3    H141787   0.414   7.744   9.999  0.6000 -0.4723 -0.8368
 5864TIP3    H241788   0.334   7.615   9.996 -0.1011 -0.0432 -0.5440
 5865TIP3   OH241789   2.978   2.332   8.904  0.3558 -0.1941 -0.0781
 5865TIP3    H141790   2.954   2.406   8.960  0.4726  0.1165 -0.4393
 5865TIP3    H241791   3.072   2.342   8.891  0.1560  0.3099 -1.1692
 5866TIP3   OH241792   3.288   1.607   9.879 -0.2228  0.3626  0.0518
 5866TIP3    H141793   3.275   1.666   9.805 -0.8859 -1.8013 -1.6843
 5866TIP3    H241794   3.381   1.587   9.877 -0.3012  0.0192 -0.4695
 5867TIP3   OH241795   8.059   0.646   9.077  0.3140 -0.0271 -0.8709
 5867TIP3    H141796   8.098   0.721   9.121  0.4693 -0.3227 -0.4948
 5867TIP3    H241797   8.008   0.602   9.145  1.4265 -1.0904 -0.6953
 5868TIP3   OH241798   6.471   4.214  10.713  0.0075 -0.3903 -0.5218
 5868TIP3    H141799   6.449   4.272  10.786  1.0082 -0.2580 -0.3152
 5868TIP3    H241800   6.517   4.270  10.651  0.3727 -0.8093 -0.6331
 5869TIP3   OH241801   7.702   5.263  10.868 -0.0903  0.1443  0.8751
 5869TIP3    H141802   7.693   5.168  10.873  2.6662 -0.2952 -0.4272
 5869TIP3    H241803   7.639   5.290  10.801 -0.0467 -0.9422  0.3859
 5870TIP3   OH241804   6.960   7.921   9.597 -0.1451  0.1993  0.5045
 5870TIP3    H141805   6.972   7.995   9.656  1.2727  0.1992  0.2506
 5870TIP3    H241806   7.033   7.862   9.616 -1.0973 -1.0214  0.5148
 5871TIP3   OH241807   1.700   6.234  10.144 -0.0506 -0.1682 -0.4053
 5871TIP3    H141808   1.760   6.224  10.218 -1.3286  0.1927  0.7242
 5871TIP3    H241809   1.698   6.329  10.129 -0.1269 -0.2051 -0.6159
 5872TIP3   OH241810   6.125   4.238   9.815  0.6584 -0.3682 -0.0953
 5872TIP3    H141811   6.104   4.286   9.895 -0.8208 -0.1436 -0.5898
 5872TIP3    H241812   6.219   4.250   9.804  0.6213  0.9152  0.7633
 5873TIP3   OH241813   0.596   8.150   9.846 -0.6582  0.4130 -0.0994
 5873TIP3    H141814   0.579   8.243   9.834  0.9284  0.6872 -0.4894
 5873TIP3    H241815   0.670   8.131   9.788 -0.3213 -0.8606  0.6809
 5874TIP3   OH241816   1.651   6.030   9.406 -0.0192 -0.6971 -0.0598
 5874TIP3    H141817   1.722   5.967   9.395 -0.6556 -1.4806  0.2909
 5874TIP3    H241818   1.571   5.979   9.397 -0.5450 -0.0241  0.6754
 5875TIP3   OH241819   8.272   1.429   9.493  0.4847  0.4790  0.2356
 5875TIP3    H141820   8.268   1.407   9.400  1.8409 -1.0081  0.4875
 5875TIP3    H241821   8.309   1.352   9.535  0.6013  1.3943  1.9250
 5876TIP3   OH241822   4.182   1.671  10.801  0.0930 -0.0729  0.2110
 5876TIP3    H141823   4.137   1.625  10.729 -0.9268 -0.1530  0.8857
 5876TIP3    H241824   4.130   1.750  10.814  0.0593 -0.2391  1.1011
 5877TIP3   OH241825   7.238   5.999   9.158 -0.1868 -0.3346 -1.0347
 5877TIP3    H141826   7.263   5.951   9.237 -0.5082 -1.2113 -1.4488
 5877TIP3    H241827   7.312   6.056   9.139 -0.3602  0.3639  0.2542
 5878TIP3   OH241828   8.259   2.491   9.548  0.1210  0.7253 -0.1764
 5878TIP3    H141829   8.211   2.425   9.499 -1.2593  2.2318 -0.9487
 5878TIP3    H241830   8.336   2.510   9.494  0.4574 -0.1428 -0.0088
 5879TIP3   OH241831   1.803   0.161   8.626 -0.6538  0.3817 -0.1807
 5879TIP3    H141832   1.789   0.069   8.646  2.6762 -0.2369 -0.1955
 5879TIP3    H241833   1.803   0.204   8.711 -0.4772  0.0916 -0.0332
 5880TIP3   OH241834   6.419   6.873  10.391  1.0479  0.5883 -0.3877
 5880TIP3    H141835   6.405   6.894  10.483  0.1690  0.6049 -0.5175
 5880TIP3    H241836   6.511   6.847  10.386  0.4786 -2.0072  0.9644
 5881TIP3   OH241837   6.319   6.126  10.031 -0.1043  0.1753 -0.0698
 5881TIP3    H141838   6.382   6.127  10.103  0.4495 -0.7228 -0.5309
 5881TIP3    H241839   6.354   6.189   9.968  0.4419 -0.4473 -0.4026
 5882TIP3   OH241840   7.922   6.832   9.063 -0.3610  0.1807  0.2985
 5882TIP3    H141841   7.841   6.802   9.103 -0.4427  0.7591  0.5796
 5882TIP3    H241842   7.917   6.928   9.068 -0.3232  0.2683 -0.9812
 5883TIP3   OH241843   5.562   5.660   8.856  0.2971 -0.3226 -0.7950
 5883TIP3    H141844   5.621   5.591   8.826  0.5776  0.5181 -2.2644
 5883TIP3    H241845   5.478   5.616   8.867  0.3324 -0.8065 -2.2825
 5884TIP3   OH241846   5.179   3.707   9.638  0.1660 -0.1902 -0.7607
 5884TIP3    H141847   5.178   3.772   9.568 -0.8475  0.6857  0.0323
 5884TIP3    H241848   5.102   3.727   9.691  1.3032 -0.3241  1.0395
 5885TIP3   OH241849   5.619   2.049   8.676  0.7363  0.5522 -0.0296
 5885TIP3    H141850   5.530   2.019   8.695  0.5685  0.2263 -1.2337
 5885TIP3    H241851   5.632   2.125   8.733 -0.2474  0.5013  0.2766
 5886TIP3   OH241852   7.276   5.153  10.967  0.3130 -0.0415  0.0894
 5886TIP3    H141853   7.282   5.190  10.879  4.2431  2.1452  1.0488
 5886TIP3    H241854   7.364   5.119  10.985 -0.4133 -0.6224  3.0914
 5887TIP3   OH241855   5.593   7.471  10.231  0.2406  0.5220 -0.5925
 5887TIP3    H141856   5.546   7.429  10.303 -0.2371  1.4970 -0.3198
 5887TIP3    H241857   5.591   7.406  10.161  1.6978 -0.9131  0.6129
 5888TIP3   OH241858   7.324   5.854   9.370 -0.4679  0.3586 -0.1977
 5888TIP3    H141859   7.305   5.877   9.461 -1.0750  1.7161 -0.6461
 5888TIP3    H241860   7.342   5.760   9.373 -0.2565  0.4106  1.3539
 5889TIP3   OH241861   0.208   3.808  10.346  0.9634 -0.4252 -0.3964
 5889TIP3    H141862   0.266   3.840  10.415  1.5510 -0.2282 -0.9730
 5889TIP3    H241863   0.172   3.727  10.382 -0.7416  0.9416  1.1813
 5890TIP3   OH241864   1.734   1.736   8.890  0.9296  0.2116  0.2642
 5890TIP3    H141865   1.759   1.828   8.886  0.1774  0.3921 -0.6004
 5890TIP3    H241866   1.659   1.734   8.950  0.0870  0.3834 -0.7527
 5891TIP3   OH241867   6.533   2.209  10.379 -0.0935 -0.1189 -0.2050
 5891TIP3    H141868   6.603   2.231  10.439  0.8717 -0.4789 -1.1653
 5891TIP3    H241869   6.547   2.117  10.359 -2.5837 -1.0634  1.8224
 5892TIP3   OH241870   0.741   6.807  10.599  0.9463 -0.1696  0.2572
 5892TIP3    H141871   0.820   6.768  10.560  1.9305 -0.3740  2.3243
 5892TIP3    H241872   0.705   6.737  10.654 -0.7154 -0.0707 -0.6452
 5893TIP3   OH241873   1.830   1.109  10.395 -0.2327 -0.4100 -0.1535
 5893TIP3    H141874   1.763   1.112  10.326  0.3670  3.9053 -0.8744
 5893TIP3    H241875   1.782   1.130  10.475 -0.2072 -0.5816 -0.0930
 5894TIP3   OH241876   6.200   7.986  10.024 -0.5875 -0.6255 -0.3894
 5894TIP3    H141877   6.224   8.016  10.112 -0.1178  1.2340 -1.0992
 5894TIP3    H241878   6.108   8.009  10.015 -0.3681  0.1217 -0.7448
 5895TIP3   OH241879   4.594   7.199  10.456  0.4210 -0.3598  0.0282
 5895TIP3    H141880   4.651   7.161  10.390  0.9517 -0.8937  0.7901
 5895TIP3    H241881   4.650   7.215  10.531 -0.7374 -2.6808  1.5147
 5896TIP3   OH241882   5.866   0.867   9.306 -0.3091 -0.6473 -0.4091
 5896TIP3    H141883   5.886   0.911   9.223 -1.1512  0.2657 -0.1533
 5896TIP3    H241884   5.851   0.776   9.282 -1.4939 -0.2215 -1.4308
 5897TIP3   OH241885   8.369   1.512  10.883 -0.0268  0.3638  0.3855
 5897TIP3    H141886   8.280   1.487  10.907 -0.6055  0.1580 -1.7152
 5897TIP3    H241887   8.371   1.607  10.895 -1.6240  0.8790 -2.3872
 5898TIP3   OH241888   8.035   6.630  11.204 -0.1729  0.5158 -0.0329
 5898TIP3    H141889   8.021   6.716  11.164 -0.5990 -0.2547 -1.6576
 5898TIP3    H241890   7.948   6.589  11.202  0.2966 -0.4930 -0.6780
 5899TIP3   OH241891   6.464   5.923   8.944  0.5064  0.0955  0.5019
 5899TIP3    H141892   6.370   5.903   8.939  0.1046  1.5763  1.3414
 5899TIP3    H241893   6.502   5.851   8.994  0.0115 -1.0337 -0.6963
 5900TIP3   OH241894   1.285   2.953  10.050  0.8145 -0.1643  0.6522
 5900TIP3    H141895   1.381   2.957  10.046  1.0604 -2.7432  2.2627
 5900TIP3    H241896   1.266   2.906  10.130 -1.6969 -2.6675 -1.2189
 5901TIP3   OH241897   3.721   0.449  10.719 -0.1737 -0.3206  0.2944
 5901TIP3    H141898   3.629   0.437  10.698  0.3273 -0.3506 -2.0920
 5901TIP3    H241899   3.721   0.486  10.808 -2.4258 -0.7719  0.5367
 5902TIP3   OH241900   1.043   3.626  11.095  0.2245 -0.0009 -0.6810
 5902TIP3    H141901   0.987   3.688  11.142  0.2169  0.8508 -1.7815
 5902TIP3    H241902   1.036   3.545  11.146 -0.6979  0.5568  0.1253
 5903TIP3   OH241903   4.946   0.732  10.263 -0.0639  0.1540  0.7242
 5903TIP3    H141904   4.945   0.825  10.287  1.5808  0.9785 -1.9626
 5903TIP3    H241905   5.023   0.696  10.308 -0.9977 -0.1000  2.1880
 5904TIP3   OH241906   2.719   4.693   9.616 -0.3846 -0.1590 -0.3416
 5904TIP3    H141907   2.747   4.716   9.527  0.8195 -1.5285 -0.3507
 5904TIP3    H241908   2.750   4.604   9.629 -0.7216 -0.0614  1.3845
 5905TIP3   OH241909   8.333   4.783   8.921  0.3543 -0.1246 -0.1797
 5905TIP3    H141910   8.427   4.774   8.937  0.8859  2.5997 -1.2065
 5905TIP3    H241911   8.317   4.735   8.840  1.1354  0.3879 -0.6446
 5906TIP3   OH241912   5.049   5.260   9.729 -0.3492 -0.0090 -0.2009
 5906TIP3    H141913   5.023   5.296   9.644 -0.8535 -0.7998 -0.3933
 5906TIP3    H241914   5.099   5.181   9.708 -0.9752 -0.5327  0.2407
 5907TIP3   OH241915   7.758   7.634   9.623 -0.3311 -0.3876 -0.1978
 5907TIP3    H141916   7.823   7.683   9.571  0.7019 -0.5986  0.8609
 5907TIP3    H241917   7.676   7.645   9.574  0.4448  0.0651 -1.4597
 5908TIP3   OH241918   7.322   1.378  10.484 -0.3778 -0.3032  0.1102
 5908TIP3    H141919   7.251   1.314  10.482  0.9307 -1.9378  1.7497
 5908TIP3    H241920   7.286   1.453  10.531 -1.6826 -0.1439 -1.0947
 5909TIP3   OH241921   0.697   6.478  10.385 -0.0820  0.0849 -0.2493
 5909TIP3    H141922   0.607   6.472  10.417  0.1869 -0.6679  0.4135
 5909TIP3    H241923   0.745   6.521  10.455  0.2572 -0.4057 -0.1697
 5910TIP3   OH241924   1.208   3.537  10.062 -0.0355  0.3516 -0.2790
 5910TIP3    H141925   1.118   3.571  10.069  0.5086  1.5111  4.3421
 5910TIP3    H241926   1.197   3.443  10.046 -1.9480  0.8097 -2.0535
 5911TIP3   OH241927   5.387   1.760   9.725 -0.7608  0.1609 -0.4221
 5911TIP3    H141928   5.331   1.834   9.705 -0.8607  0.4345  0.7966
 5911TIP3    H241929   5.420   1.730   9.640 -3.0795 -0.2863 -1.2197
 5912TIP3   OH241930   2.424   0.412  10.821  0.3607 -0.4613  0.3158
 5912TIP3    H141931   2.500   0.376  10.776 -0.3654  1.9102 -3.1404
 5912TIP3    H241932   2.440   0.506  10.824 -1.8476 -0.0455  0.6934
 5913TIP3   OH241933   5.249   2.250   9.234  0.6360 -0.2850 -0.3793
 5913TIP3    H141934   5.190   2.297   9.293 -0.0047 -1.6025  0.0677
 5913TIP3    H241935   5.289   2.318   9.180  2.1024  1.1339  2.2981
 5914TIP3   OH241936   2.289   0.847   8.811 -0.0119 -0.0028 -0.1297
 5914TIP3    H141937   2.194   0.855   8.812 -0.1125 -1.0706  0.0183
 5914TIP3    H241938   2.307   0.779   8.746  0.6645  0.2736 -0.2446
 5915TIP3   OH241939   5.600   6.051  10.095 -0.3549  0.0410 -0.3875
 5915TIP3    H141940   5.689   6.086  10.084 -0.8859  0.9348 -2.1081
 5915TIP3    H241941   5.603   6.006  10.179  1.3171  1.3359  0.3094
 5916TIP3   OH241942   8.036   4.954  10.958  0.0574 -0.3577 -0.2839
 5916TIP3    H141943   7.982   4.888  10.914  0.1710 -0.0746 -0.8536
 5916TIP3    H241944   8.013   5.037  10.916 -1.2063  0.2291  1.4588
 5917TIP3   OH241945   8.220   3.762   8.943 -0.7816 -1.0109 -0.0769
 5917TIP3    H141946   8.200   3.678   8.985  1.9038 -1.4870  0.4078
 5917TIP3    H241947   8.262   3.737   8.860 -0.4945 -0.1313 -0.2006
 5918TIP3   OH241948   1.675   1.492   9.100 -0.3504  0.4665  0.6912
 5918TIP3    H141949   1.683   1.587   9.085 -1.0428  0.4508  0.1704
 5918TIP3    H241950   1.647   1.457   9.016  0.5634 -0.3001  0.7011
 5919TIP3   OH241951   4.021   6.535   9.635 -0.0551 -0.5802  0.1314
 5919TIP3    H141952   4.092   6.487   9.592  1.1301  1.2130 -0.0329
 5919TIP3    H241953   3.943   6.482   9.618  0.5480 -0.6425 -3.1826
 5920TIP3   OH241954   5.316   7.052   9.589  0.3965 -0.2431  0.2181
 5920TIP3    H141955   5.265   6.975   9.562  0.8227 -0.5452  0.2592
 5920TIP3    H241956   5.407   7.022   9.588  0.4726 -0.0973  1.4504
 5921TIP3   OH241957   2.528   0.199   9.636  0.7533 -0.0384 -0.2606
 5921TIP3    H141958   2.473   0.221   9.712  2.1295 -0.9831  1.0552
 5921TIP3    H241959   2.582   0.126   9.665  2.7789  0.8815 -1.4640
 5922TIP3   OH241960   2.969   8.350   9.992 -0.1635  0.6100 -0.3523
 5922TIP3    H141961   3.049   8.351  10.045 -1.1123 -0.1899  1.1587
 5922TIP3    H241962   2.945   8.257   9.986 -0.1402  0.6872 -2.1433
 5923TIP3   OH241963   1.062   7.235   8.639  0.2701  0.2380  0.4363
 5923TIP3    H141964   1.064   7.147   8.677 -1.3585 -1.0386 -2.0808
 5923TIP3    H241965   0.972   7.265   8.653 -0.8485 -0.8422 -3.1326
 5924TIP3   OH241966   6.993   1.480  10.185 -0.2570  0.7572  0.1668
 5924TIP3    H141967   6.931   1.509  10.252 -1.2310 -0.6983 -0.0597
 5924TIP3    H241968   7.069   1.537  10.196 -0.6827  1.0173  2.0339
 5925TIP3   OH241969   5.476   4.085   9.580  0.5248  0.2923  0.0691
 5925TIP3    H141970   5.522   4.032   9.645  0.5304  1.3000  0.9181
 5925TIP3    H241971   5.545   4.122   9.526  0.5424 -0.2702 -0.2971
 5926TIP3   OH241972   4.143   2.628   9.748 -0.1458 -0.3983 -0.3699
 5926TIP3    H141973   4.067   2.669   9.707 -0.0602  0.0751 -0.0667
 5926TIP3    H241974   4.107   2.551   9.793 -0.4973 -0.0146  0.0170
 5927TIP3   OH241975   2.463   5.323   9.286 -0.4474 -0.1974  0.0862
 5927TIP3    H141976   2.456   5.231   9.262 -0.2792 -0.2715  0.3163
 5927TIP3    H241977   2.372   5.352   9.295 -0.5118 -0.6627  1.1878
 5928TIP3   OH241978   3.245   0.247  10.260 -0.3731  0.4010 -0.0120
 5928TIP3    H141979   3.156   0.224  10.286 -0.3882  0.6032  0.1179
 5928TIP3    H241980   3.242   0.341  10.243 -0.4546  0.2143 -1.1183
 5929TIP3   OH241981   4.183   3.728   9.026  0.1059  0.3464  0.0659
 5929TIP3    H141982   4.102   3.775   9.046  0.2051  1.2888 -1.5904
 5929TIP3    H241983   4.251   3.795   9.026  0.6381 -0.1778 -0.1063
 5930TIP3   OH241984   7.145   3.782  10.739 -0.7465 -0.1313  0.3147
 5930TIP3    H141985   7.143   3.836  10.819 -1.3813 -0.2399  0.3792
 5930TIP3    H241986   7.216   3.720  10.755 -0.3770  0.3197  0.4791
 5931TIP3   OH241987   8.205   7.862  10.261  0.4829 -0.3714 -0.1559
 5931TIP3    H141988   8.211   7.797  10.191 -0.0482 -0.7900  0.1751
 5931TIP3    H241989   8.180   7.811  10.339 -0.0507  0.2356  0.0837
 5932TIP3   OH241990   0.614   7.403  10.417  0.3855 -0.3357  0.8454
 5932TIP3    H141991   0.684   7.345  10.387 -0.8374 -2.6510  2.1840
 5932TIP3    H241992   0.539   7.345  10.430 -1.9656  2.0641 -0.8487
 5933TIP3   OH241993   3.069   3.388   9.203 -0.1200  0.3221  0.4513
 5933TIP3    H141994   3.077   3.453   9.273 -1.3860 -1.2566  2.1592
 5933TIP3    H241995   2.983   3.404   9.166 -0.7593 -0.8033  1.3888
 5934TIP3   OH241996   0.872   4.673   9.008 -0.3477  0.2302  0.0246
 5934TIP3    H141997   0.929   4.731   8.959 -1.1757  0.4438 -0.7093
 5934TIP3    H241998   0.843   4.608   8.944 -0.3594 -0.2954  0.5562
 5935TIP3   OH241999   8.432   6.928   9.500  0.0461  0.2004 -0.2083
 5935TIP3    H142000   8.471   6.852   9.457 -1.2776 -0.1532 -0.8501
 5935TIP3    H242001   8.348   6.896   9.533 -0.4683  1.3422 -0.3627
 5936TIP3   OH242002   1.939   1.033  10.010 -0.9550  0.1571 -0.5972
 5936TIP3    H142003   1.993   0.994   9.941 -0.7530  0.1029 -0.4085
 5936TIP3    H242004   1.875   0.965  10.031 -0.0020 -0.4699  0.4181
 5937TIP3   OH242005   4.322   5.778   8.745 -0.0133  0.5133  0.1082
 5937TIP3    H142006   4.390   5.750   8.684 -0.0190 -1.0125  0.7436
 5937TIP3    H242007   4.370   5.817   8.818  0.3714 -2.0144  1.3083
 5938TIP3   OH242008   2.272   5.639   8.744  0.1612  0.0624 -0.1029
 5938TIP3    H142009   2.354   5.594   8.761 -0.8878 -1.5202  1.0069
 5938TIP3    H242010   2.216   5.574   8.701 -0.9602  0.6712  0.3693
 5939TIP3   OH242011   2.747   2.417   9.895  0.3968 -0.1291  0.5571
 5939TIP3    H142012   2.782   2.352   9.835  0.5862 -0.7317  1.3109
 5939TIP3    H242013   2.675   2.373   9.940 -0.8071  0.8194 -0.3480
 5940TIP3   OH242014   3.068   5.834  10.257  0.3732 -0.1304 -0.1109
 5940TIP3    H142015   3.046   5.893  10.186  1.1305  0.7047  0.3208
 5940TIP3    H242016   3.155   5.862  10.286  0.3008 -0.7744  0.8065
 5941TIP3   OH242017   7.618   5.259   9.062  0.2116 -0.4652  0.1521
 5941TIP3    H142018   7.667   5.335   9.027 -0.4170  0.6082  1.5102
 5941TIP3    H242019   7.684   5.190   9.070  1.1700  0.4454  0.3814
 5942TIP3   OH242020   5.929   5.943  10.802  0.4156 -0.0064 -0.2865
 5942TIP3    H142021   5.934   5.866  10.744 -1.9425  0.2306 -0.8866
 5942TIP3    H242022   5.876   5.914  10.876  0.3685  0.7554 -0.0182
 5943TIP3   OH242023   3.774   2.056  10.237  0.2231  0.3320  0.2152
 5943TIP3    H142024   3.818   1.991  10.291  2.3687  2.9521  1.8882
 5943TIP3    H242025   3.828   2.062  10.158 -0.9567 -1.0444 -0.7441
 5944TIP3   OH242026   0.388   8.179  10.231  0.0078 -0.1018  0.9419
 5944TIP3    H142027   0.310   8.150  10.185 -0.0264  0.8030  0.4059
 5944TIP3    H242028   0.366   8.170  10.324  0.1399 -2.0754  0.8138
 5945TIP3   OH242029   0.290   0.903  10.818 -0.1941 -0.2212  0.1197
 5945TIP3    H142030   0.240   0.888  10.899  0.0848 -0.4265  0.2596
 5945TIP3    H242031   0.336   0.820  10.804 -2.6882 -1.3685 -2.0185
 5946TIP3   OH242032   7.321   0.069   9.066 -0.4251 -0.4896 -0.2728
 5946TIP3    H142033   7.400   0.113   9.096  0.1959 -1.3997 -0.5200
 5946TIP3    H242034   7.277   0.040   9.147 -0.6409  0.2317 -0.1271
 5947TIP3   OH242035   1.548   3.845   9.540 -0.1204 -0.7018 -0.1335
 5947TIP3    H142036   1.565   3.928   9.583 -0.4698 -0.6782 -0.0429
 5947TIP3    H242037   1.592   3.780   9.595  0.5326 -0.5355 -0.4445
 5948TIP3   OH242038   5.204   7.179   9.175  0.4518 -0.1901 -0.4411
 5948TIP3    H142039   5.222   7.258   9.125 -0.8617  0.1310 -0.4415
 5948TIP3    H242040   5.256   7.189   9.255 -0.8314  1.4253  0.2580
 5949TIP3   OH242041   3.864   3.491   8.906 -0.4347  0.4242 -0.1224
 5949TIP3    H142042   3.845   3.401   8.879 -1.1920  0.9759 -1.5154
 5949TIP3    H242043   3.865   3.488   9.002 -2.2220 -0.7216 -0.1050
 5950TIP3   OH242044   4.831   3.850   9.507  0.7470 -0.1592 -0.5384
 5950TIP3    H142045   4.882   3.837   9.427  0.2566 -1.8740 -0.5908
 5950TIP3    H242046   4.792   3.765   9.525  0.0459  0.4591  0.9864
 5951TIP3   OH242047   2.926   3.470   8.684 -0.2270 -0.2246  0.0695
 5951TIP3    H142048   2.876   3.517   8.618  0.0895 -0.9879 -0.7311
 5951TIP3    H242049   3.000   3.528   8.705  1.0161 -0.9647 -2.0280
 5952TIP3   OH242050   6.277   7.455   8.811 -0.5638  0.1945 -0.2631
 5952TIP3    H142051   6.218   7.513   8.763  0.0697  0.2700 -0.9715
 5952TIP3    H242052   6.227   7.429   8.889 -1.6515  0.0211 -0.9866
 5953TIP3   OH242053   4.708   3.449   8.985 -0.5457  0.2101  0.3104
 5953TIP3    H142054   4.629   3.446   8.932  0.3773  0.6826 -1.1820
 5953TIP3    H242055   4.743   3.360   8.981 -0.9112  0.0414  0.8326
 5954TIP3   OH242056   2.312   4.467   8.796 -0.0713 -0.3546  0.1966
 5954TIP3    H142057   2.333   4.374   8.798  0.6374 -0.1966  0.6564
 5954TIP3    H242058   2.382   4.508   8.847 -0.5834  0.3873  0.3179
 5955TIP3   OH242059   4.499   4.201   9.035 -0.0684 -0.1274 -0.0747
 5955TIP3    H142060   4.574   4.257   9.015 -0.6083  0.3399 -0.8546
 5955TIP3    H242061   4.423   4.256   9.018 -0.5900 -0.5740  0.7768
 5956TIP3   OH242062   0.447   2.868  16.129  0.0569  0.2558 -0.0263
 5956TIP3    H142063   0.380   2.861  16.062 -0.0607  0.0538  0.1112
 5956TIP3    H242064   0.471   2.778  16.150 -0.0057  0.3129  0.3017
 5957TIP3   OH242065   0.956   1.466   8.814 -0.2582  0.2138  0.4685
 5957TIP3    H142066   0.896   1.540   8.803 -1.1270  0.0521  3.3039
 5957TIP3    H242067   1.001   1.459   8.730 -0.9816  3.2187 -0.2874
 5958TIP3   OH242068   0.778   0.164   9.504  0.9288  0.2851  0.3675
 5958TIP3    H142069   0.855   0.108   9.500  0.5241 -0.2235 -0.2874
 5958TIP3    H242070   0.764   0.193   9.414  0.0650 -0.0155  0.4008
 5959TIP3   OH242071   2.337   0.472   9.416 -0.3689  0.0193 -0.1286
 5959TIP3    H142072   2.270   0.537   9.397 -0.3201 -0.0960 -0.6880
 5959TIP3    H242073   2.374   0.500   9.500 -0.4523  0.6260 -0.2907
 5960TIP3   OH242074   0.175   4.107  10.877  0.1892  0.2482  0.0083
 5960TIP3    H142075   0.216   4.182  10.920 -2.1197  2.3974 -1.2845
 5960TIP3    H242076   0.090   4.098  10.919  0.1624 -1.3100 -0.2893
 5961TIP3   OH242077   2.571   2.249  10.017 -0.7605  0.7653 -0.4500
 5961TIP3    H142078   2.614   2.204  10.090 -1.1961 -0.1325 -0.7392
 5961TIP3    H242079   2.526   2.180   9.969 -0.9510  1.4314 -1.2502
 5962TIP3   OH242080   6.454   5.639   9.893  0.1232  0.0894 -0.1609
 5962TIP3    H142081   6.476   5.647   9.801  0.6095 -0.6564 -0.1193
 5962TIP3    H242082   6.446   5.729   9.924 -3.7936  0.5159 -1.7707
 5963TIP3   OH242083   5.168   2.181   9.728  0.1204 -0.3233 -0.4455
 5963TIP3    H142084   5.184   2.255   9.787 -1.0968 -0.4375  0.0368
 5963TIP3    H242085   5.094   2.135   9.766 -0.9470 -0.1857 -2.2649
 5964TIP3   OH242086   3.944   6.703   9.347 -0.4626 -0.0854 -0.3098
 5964TIP3    H142087   3.872   6.763   9.329 -0.7226 -0.2321  0.2090
 5964TIP3    H242088   3.916   6.655   9.426  0.2856 -0.0011  0.0124
 5965TIP3   OH242089   7.345   7.712   8.953  0.3955  0.4816  0.4360
 5965TIP3    H142090   7.437   7.738   8.958  1.2307 -1.6943 -1.5478
 5965TIP3    H242091   7.319   7.733   8.863 -0.9102  0.6112  0.8224
 5966TIP3   OH242092   2.544   3.997   8.642 -0.2533  0.3013 -0.4267
 5966TIP3    H142093   2.514   3.943   8.570 -0.9079  0.7078 -0.4701
 5966TIP3    H242094   2.518   3.949   8.721 -0.8108  0.5203 -0.4653
 5967TIP3   OH242095   0.001   0.822   9.046 -0.1944  0.3764  0.5134
 5967TIP3    H142096   0.030   0.829   8.955  0.8879 -0.8697  0.7170
 5967TIP3    H242097  -0.022   0.729   9.056 -1.1820  0.6945  1.2665
 5968TIP3   OH242098   1.126   2.565   9.437  0.0630 -0.1430  0.3298
 5968TIP3    H142099   1.176   2.640   9.468  1.5851 -1.1829  0.4823
 5968TIP3    H242100   1.168   2.489   9.478 -0.4108 -1.2208 -1.0806
 5969TIP3   OH242101   0.375   6.452   9.891 -0.2648  0.2684 -0.2110
 5969TIP3    H142102   0.336   6.376   9.849  0.1099 -0.5943  0.9293
 5969TIP3    H242103   0.431   6.415   9.959  1.1024  1.5235 -0.6017
 5970TIP3   OH242104   6.792   6.374   8.826 -0.2813 -0.4458  0.1238
 5970TIP3    H142105   6.703   6.395   8.799 -0.3516 -0.2283  0.5134
 5970TIP3    H242106   6.804   6.421   8.909  0.3797 -0.0317 -0.1894
 5971TIP3   OH242107   1.844   4.648   9.637  0.1571 -0.5776  0.5412
 5971TIP3    H142108   1.919   4.607   9.594 -1.7334 -1.5011 -2.1620
 5971TIP3    H242109   1.772   4.586   9.623 -2.0982  2.1434 -0.8700
 5972TIP3   OH242110   1.624   1.129   9.119  0.5937 -0.1450  0.5523
 5972TIP3    H142111   1.696   1.192   9.125 -0.1174  0.8813 -1.1335
 5972TIP3    H242112   1.658   1.059   9.063 -0.4094  1.5333 -2.4101
 5973TIP3   OH242113   8.242   5.819   9.798 -0.7239  0.0557 -0.7031
 5973TIP3    H142114   8.147   5.815   9.811 -0.9615  0.1028 -2.2758
 5973TIP3    H242115   8.272   5.731   9.819 -1.2917 -0.3136 -1.3709
 5974TIP3   OH242116   4.999   6.633   9.671  0.1496 -0.4149  0.3354
 5974TIP3    H142117   4.951   6.598   9.596 -1.3510 -1.5982  1.7650
 5974TIP3    H242118   5.066   6.566   9.690 -0.1325 -0.6150  0.6444
 5975TIP3   OH242119   4.302   4.985  10.766  0.1464  0.3147 -0.1634
 5975TIP3    H142120   4.277   4.914  10.825  0.2522  1.2286  1.0172
 5975TIP3    H242121   4.241   5.056  10.786 -0.7206  0.1865 -2.1570
 5976TIP3   OH242122   6.273   4.219  10.456 -0.6391 -0.1602 -0.4127
 5976TIP3    H142123   6.286   4.291  10.395 -0.9871  1.0897  0.9298
 5976TIP3    H242124   6.326   4.242  10.532  0.0015 -1.8113 -0.3277
 5977TIP3   OH242125   6.119   7.656  10.042  0.3660  0.5827 -0.2630
 5977TIP3    H142126   6.073   7.610  10.112 -1.4105 -0.9134 -2.2766
 5977TIP3    H242127   6.064   7.731  10.021  0.4679  0.5701 -0.5849
 5978TIP3   OH242128   6.152   0.112  10.991  0.0632 -1.0406 -0.1731
 5978TIP3    H142129   6.146   0.207  10.989 -0.5986 -0.9990  1.6443
 5978TIP3    H242130   6.219   0.090  10.926  1.2892  0.7517  0.4111
 5979TIP3   OH242131   6.328   3.838  10.406 -0.2883 -0.1166  0.1040
 5979TIP3    H142132   6.323   3.903  10.336  1.6530 -0.2670 -0.2256
 5979TIP3    H242133   6.402   3.782  10.381 -0.7246 -1.2833  1.3518
 5980TIP3   OH242134   6.753   6.271  11.220 -1.0239 -0.2666 -0.2731
 5980TIP3    H142135   6.658   6.275  11.232 -0.8300  1.2927  1.1157
 5980TIP3    H242136   6.779   6.361  11.205 -0.0224 -0.9907 -3.5598
 5981TIP3   OH242137   2.812   6.215   9.772  0.4197 -0.0012 -0.3604
 5981TIP3    H142138   2.773   6.170   9.847 -1.3094  1.1396 -0.5184
 5981TIP3    H242139   2.852   6.145   9.720 -2.3834 -1.4493 -0.7397
 5982TIP3   OH242140   8.263   8.302   9.087  0.0187  0.3326  0.0895
 5982TIP3    H142141   8.302   8.347   9.162  0.8488  0.4096 -0.3637
 5982TIP3    H242142   8.234   8.372   9.030  1.2066  0.3283 -0.5637
 5983TIP3   OH242143   6.379   6.109   9.537  0.4665  0.0882 -0.1633
 5983TIP3    H142144   6.380   6.014   9.533 -0.2312  0.0941 -0.7181
 5983TIP3    H242145   6.310   6.135   9.476  2.8185  1.0850 -2.6252
 5984TIP3   OH242146   1.785   0.966   9.318  0.1792  0.2505 -0.3493
 5984TIP3    H142147   1.830   0.955   9.233 -0.0368 -0.3764 -0.3860
 5984TIP3    H242148   1.715   1.028   9.300  0.7982  0.9600 -0.3766
 5985TIP3   OH242149   1.478   1.168   8.620  0.0801 -0.0163  0.6613
 5985TIP3    H142150   1.440   1.172   8.532  0.6429 -0.9647  0.3549
 5985TIP3    H242151   1.408   1.133   8.675  0.0899 -0.5293  0.3550
 5986TIP3   OH242152   3.499   1.469  10.238 -0.9116 -0.1214 -0.0094
 5986TIP3    H142153   3.462   1.440  10.155 -2.3138 -0.3577  0.6648
 5986TIP3    H242154   3.430   1.524  10.276  0.0079  0.5965  0.6683
 5987TIP3   OH242155   0.474   7.717  11.109  0.1335 -0.4640 -0.3275
 5987TIP3    H142156   0.404   7.780  11.094 -0.4701 -1.1454 -0.4084
 5987TIP3    H242157   0.432   7.645  11.157  0.8352 -0.7548 -0.1339
 5988TIP3   OH242158   6.662   1.834   8.994  0.4579  0.2770 -0.3416
 5988TIP3    H142159   6.690   1.784   8.917  0.1900 -0.2654 -0.0942
 5988TIP3    H242160   6.736   1.829   9.054 -0.9009 -3.1622  1.2915
 5989TIP3   OH242161   3.965   1.831  10.798 -0.3703  0.9125 -0.1961
 5989TIP3    H142162   3.877   1.860  10.821 -1.1987 -0.5713 -1.3162
 5989TIP3    H242163   3.959   1.804  10.706  1.2650  0.7838 -0.3080
 5990TIP3   OH242164   1.533   8.063  10.361 -0.2351  0.1912  0.2172
 5990TIP3    H142165   1.550   8.157  10.361 -1.5071  0.4451 -0.4778
 5990TIP3    H242166   1.576   8.030  10.282 -2.0930  0.6997 -1.0962
 5991TIP3   OH242167   4.554   2.586   9.998 -0.3296  0.1432  0.0924
 5991TIP3    H142168   4.557   2.544  10.084  2.3302 -0.5039 -0.2084
 5991TIP3    H242169   4.598   2.670  10.011  1.6080 -0.6460 -0.8773
 5992TIP3   OH242170   2.982   0.050   9.512  0.1920 -0.3678  0.8811
 5992TIP3    H142171   2.948   0.126   9.559 -1.7287 -0.2426 -0.6026
 5992TIP3    H242172   2.938  -0.025   9.552 -0.5859 -0.3591  0.0687
 5993TIP3   OH242173   3.738   2.833   9.884  0.2084 -0.3660 -0.8262
 5993TIP3    H142174   3.670   2.788   9.834  1.6592 -2.2217 -1.2835
 5993TIP3    H242175   3.736   2.792   9.970 -0.2702  0.6808 -0.3262
 5994TIP3   OH242176   4.404   7.294  10.276 -0.0194  0.2881  0.5146
 5994TIP3    H142177   4.480   7.282  10.334  0.8563  2.1795 -0.1599
 5994TIP3    H242178   4.342   7.344  10.328 -0.7558 -1.0872  0.9972
 5995TIP3   OH242179   0.476   4.143  10.679 -0.6143 -0.2363  0.3340
 5995TIP3    H142180   0.550   4.201  10.698 -1.7193  2.1048 -1.8233
 5995TIP3    H242181   0.510   4.078  10.618 -0.1422  0.3629 -0.0496
 5996TIP3   OH242182   1.279   1.106   8.780  0.3211  0.0971  0.3651
 5996TIP3    H142183   1.208   1.061   8.734  1.1538  0.8910 -1.8195
 5996TIP3    H242184   1.322   1.037   8.831 -0.9809 -0.7181  0.3858
 5997TIP3   OH242185   7.176   7.872   9.107 -0.0513 -0.7046  0.0119
 5997TIP3    H142186   7.088   7.834   9.106  0.3673 -1.7103 -0.1007
 5997TIP3    H242187   7.234   7.799   9.085  0.7363  0.1640 -0.9014
 5998TIP3   OH242188   5.022   1.519   8.825  0.1269 -0.0342 -0.1705
 5998TIP3    H142189   5.041   1.610   8.844  1.7195 -0.4977  0.6362
 5998TIP3    H242190   5.073   1.470   8.889 -1.6713 -1.4908  0.2528
 5999TIP3   OH242191   6.361   3.452  10.505  0.1755  0.1441  0.2898
 5999TIP3    H142192   6.274   3.416  10.485  0.8513 -0.4955 -1.7475
 5999TIP3    H242193   6.368   3.446  10.600 -1.3221 -1.4202  0.3554
 6000TIP3   OH242194   7.666   0.872  10.333 -0.0130  0.0858 -0.5143
 6000TIP3    H142195   7.571   0.863  10.322 -0.0955  1.5197 -1.3066
 6000TIP3    H242196   7.678   0.894  10.425 -0.4176 -0.3588 -0.3506
 6001TIP3   OH242197   5.076   7.505   9.341  0.7747  0.0145 -0.5281
 6001TIP3    H142198   5.111   7.531   9.255  0.1108  2.7967 -0.0529
 6001TIP3    H242199   5.138   7.543   9.404  0.9490 -1.5204  0.2699
 6002TIP3   OH242200   4.112   1.724   9.476 -0.1856 -0.2432 -0.1536
 6002TIP3    H142201   4.173   1.783   9.520 -1.5583  0.3280  1.0735
 6002TIP3    H242202   4.043   1.709   9.541 -0.8257 -1.6874 -1.1301
 6003TIP3   OH242203   3.779   4.412  10.233 -0.4590  0.1282  0.0426
 6003TIP3    H142204   3.849   4.358  10.269  1.3028  1.7441 -0.7612
 6003TIP3    H242205   3.790   4.405  10.138 -0.9502  0.9348 -0.0826
 6004TIP3   OH242206   4.846   1.165  10.611  0.6439  0.2443 -0.2301
 6004TIP3    H142207   4.821   1.076  10.636  0.7317  0.1637 -0.4294
 6004TIP3    H242208   4.783   1.221  10.658  0.4618  0.0693 -0.2638
 6005TIP3   OH242209   7.508   5.085  10.410  0.1946  0.1190 -0.1778
 6005TIP3    H142210   7.588   5.100  10.461  0.2019  1.7395 -0.6035
 6005TIP3    H242211   7.490   5.170  10.369 -1.3383 -0.4213 -0.6790
 6006TIP3   OH242212   2.803   1.296  10.003 -0.3335 -0.2404 -0.0604
 6006TIP3    H142213   2.835   1.281  10.092  1.5343  0.5860 -0.5439
 6006TIP3    H242214   2.715   1.258  10.002  0.9214 -3.5371  1.1084
 6007TIP3   OH242215   7.459   2.257  10.902  0.8462 -0.3795 -0.7188
 6007TIP3    H142216   7.420   2.333  10.859 -2.7341 -0.8586  1.1897
 6007TIP3    H242217   7.472   2.285  10.993  0.6747 -1.6303 -0.2827
 6008TIP3   OH242218   3.239   7.346  10.888  0.1313  0.0656 -0.2640
 6008TIP3    H142219   3.301   7.290  10.842 -0.3565 -0.7380  0.0455
 6008TIP3    H242220   3.291   7.421  10.918  1.0991 -0.8948  0.5369
 6009TIP3   OH242221   7.378   5.921  10.230  0.2346  0.5207  0.2447
 6009TIP3    H142222   7.435   5.976  10.284 -1.8973  1.9531  1.1757
 6009TIP3    H242223   7.299   5.910  10.282 -0.7866 -0.4749 -1.4388
 6010TIP3   OH242224   7.658   4.122   9.666  0.1133 -0.1771 -0.4195
 6010TIP3    H142225   7.705   4.204   9.680  0.9425 -0.3473 -2.0365
 6010TIP3    H242226   7.587   4.145   9.606 -1.2524 -0.1532  1.1346
 6011TIP3   OH242227   7.649   3.927  10.024  0.1027  0.5730 -0.3018
 6011TIP3    H142228   7.711   3.999  10.014  0.2189  0.8685  2.0776
 6011TIP3    H242229   7.703   3.853  10.052 -0.6136  1.0159  2.4927
 6012TIP3   OH242230   4.813   4.211  10.057 -0.2312  0.2237 -0.5333
 6012TIP3    H142231   4.726   4.229  10.022 -0.6413 -0.5010  0.0918
 6012TIP3    H242232   4.853   4.153   9.992 -1.2865 -1.7731  0.5309
 6013TIP3   OH242233   0.183   4.064  10.257 -0.2622  0.8614  0.7506
 6013TIP3    H142234   0.134   3.996  10.304 -0.3816  0.5203  0.1545
 6013TIP3    H242235   0.245   4.015  10.202  0.3625  1.2720  1.0792
 6014TIP3   OH242236   3.108   5.298   9.091 -0.3514  0.2226  0.1624
 6014TIP3    H142237   3.086   5.217   9.136  0.6173  0.8600  1.9100
 6014TIP3    H242238   3.191   5.280   9.046  0.1964  0.4002  1.0782
 6015TIP3   OH242239   1.402   7.706  10.192  0.0866  0.2118  0.6077
 6015TIP3    H142240   1.344   7.739  10.123 -0.0000 -2.0821 -0.5030
 6015TIP3    H242241   1.482   7.680  10.147  0.6688  0.1863  1.6235
 6016TIP3   OH242242   8.373   5.635  10.503 -0.4987  0.0279 -0.0524
 6016TIP3    H142243   8.348   5.712  10.554  1.0764  0.6943 -0.2529
 6016TIP3    H242244   8.293   5.582  10.499 -1.0984  0.7349  1.7011
 6017TIP3   OH242245   2.568   4.399   9.704 -0.4690  0.6759  0.1744
 6017TIP3    H142246   2.513   4.323   9.719 -1.5846  1.4733  0.2493
 6017TIP3    H242247   2.622   4.406   9.783  0.8849 -1.0095 -0.5440
 6018TIP3   OH242248   7.480   5.724  10.070  0.1626 -0.2780  0.3849
 6018TIP3    H142249   7.431   5.793  10.115 -0.7950  0.5400 -1.7509
 6018TIP3    H242250   7.572   5.742  10.089  0.0168  2.3215 -0.9893
 6019TIP3   OH242251   6.128   7.408   9.053  0.4442 -0.0416 -0.0639
 6019TIP3    H142252   6.186   7.387   9.126 -0.9621 -0.0605  1.1109
 6019TIP3    H242253   6.063   7.467   9.090 -0.5624 -0.3944 -1.1903
 6020TIP3   OH242254   3.342   5.181  10.665 -0.5237  0.2926 -0.4303
 6020TIP3    H142255   3.395   5.179  10.744 -1.4276 -0.7013  0.1785
 6020TIP3    H242256   3.260   5.138  10.689 -3.1646  4.7300 -0.2901
 6021TIP3   OH242257   0.564   4.614   9.196 -0.1201 -0.0773  0.4108
 6021TIP3    H142258   0.554   4.630   9.102  0.3095  0.4759  0.4523
 6021TIP3    H242259   0.474   4.615   9.230 -0.2512  0.0977  0.0623
 6022TIP3   OH242260   2.103   6.065   9.876  0.5714 -0.0758 -0.2229
 6022TIP3    H142261   2.122   6.110   9.793 -1.0991 -0.0631 -0.6432
 6022TIP3    H242262   2.086   5.975   9.851  1.0880 -0.3160  0.2617
 6023TIP3   OH242263   6.999   4.918   8.779 -0.5485 -0.2596 -0.2164
 6023TIP3    H142264   7.090   4.912   8.749 -0.8407  0.2220 -1.2548
 6023TIP3    H242265   6.993   5.003   8.821  0.0842 -1.2837  2.1009
 6024TIP3   OH242266   8.411   6.221  10.985  0.6003  0.2584  0.2503
 6024TIP3    H142267   8.486   6.270  10.950  0.4488 -0.1826 -0.7178
 6024TIP3    H242268   8.356   6.288  11.026 -0.4378  1.2163 -2.5218
 6025TIP3   OH242269   4.139   6.205   9.001  0.3558 -0.5749 -0.7852
 6025TIP3    H142270   4.184   6.218   9.085 -1.5922 -1.0597  0.4104
 6025TIP3    H242271   4.150   6.287   8.954  0.6759  0.0525  0.3554
 6026TIP3   OH242272   3.865   7.203   8.940  0.1128 -0.3972  0.3924
 6026TIP3    H142273   3.788   7.252   8.912  0.7392  0.5079  0.2189
 6026TIP3    H242274   3.939   7.246   8.896  0.5654 -2.2995 -0.8537
 6027TIP3   OH242275   0.388   6.607  10.275  0.4512 -0.2287  0.3934
 6027TIP3    H142276   0.395   6.520  10.236  2.8960  0.0763  0.0329
 6027TIP3    H242277   0.378   6.667  10.200  0.3410 -0.0666  0.5367
 6028TIP3   OH242278   4.767   1.695   9.358 -0.0559 -0.3289 -0.2444
 6028TIP3    H142279   4.700   1.708   9.291 -0.1730  1.9008  0.2087
 6028TIP3    H242280   4.735   1.743   9.434 -0.2445 -3.3269  1.7360
 6029TIP3   OH242281   6.607   6.350  10.968 -0.1501  0.4861  0.5549
 6029TIP3    H142282   6.612   6.318  11.058  1.5308 -0.2920  0.2163
 6029TIP3    H242283   6.514   6.346  10.947 -0.7345  1.6950  2.5917
 6030TIP3   OH242284   3.679   3.326   9.459 -0.4258 -0.0667 -0.1212
 6030TIP3    H142285   3.635   3.242   9.450 -0.9144  0.2067 -0.3378
 6030TIP3    H242286   3.609   3.391   9.451  0.1466  0.4284 -1.6571
 6031TIP3   OH242287   0.594   4.978  10.229  0.0329 -0.0085  0.2294
 6031TIP3    H142288   0.664   4.931  10.183 -0.6014  0.0063 -0.7916
 6031TIP3    H242289   0.632   5.002  10.313  1.5260  0.6347 -0.5826
 6032TIP3   OH242290   6.499   7.792   8.995  0.1351 -0.2043 -0.0067
 6032TIP3    H142291   6.580   7.840   9.010 -0.0607  0.0979  0.0821
 6032TIP3    H242292   6.473   7.815   8.905 -0.6914  0.9547  0.5068
 6033TIP3   OH242293   3.683   3.999   9.372  0.5667 -0.3155  0.0831
 6033TIP3    H142294   3.764   4.041   9.346  0.2552 -1.0226 -2.2258
 6033TIP3    H242295   3.636   4.066   9.422  0.5060  1.7967 -2.6179
 6034TIP3   OH242296   3.495   6.702   9.711  0.3623 -0.3056 -0.5166
 6034TIP3    H142297   3.492   6.797   9.720 -2.5974 -0.3934  0.3438
 6034TIP3    H242298   3.562   6.674   9.773  1.2093  1.1648 -0.7107
 6035TIP3   OH242299   4.982   4.873  10.315  0.7725  1.2016 -0.4597
 6035TIP3    H142300   4.932   4.819  10.376 -0.2166  3.3294  0.7418
 6035TIP3    H242301   5.031   4.811  10.261  1.2105 -0.8168  2.0868
 6036TIP3   OH242302   4.680   2.221   9.896 -0.2033 -0.1845 -0.7379
 6036TIP3    H142303   4.744   2.154   9.871  0.3277 -0.4786  1.2642
 6036TIP3    H242304   4.620   2.177   9.955  0.7658  1.2613  1.4790
 6037TIP3   OH242305   0.923   0.731   8.987  0.4021 -0.4112  0.5211
 6037TIP3    H142306   0.976   0.776   9.053  2.0228 -2.3522  0.6365
 6037TIP3    H242307   0.842   0.783   8.981  0.8661  0.6977  2.8701
 6038TIP3   OH242308   7.130   4.371  10.097  0.1270 -0.2411 -0.3196
 6038TIP3    H142309   7.196   4.396  10.162 -0.1160 -0.9091  0.2015
 6038TIP3    H242310   7.103   4.282  10.123 -1.3030  0.1808 -0.2454
 6039TIP3   OH242311   0.741   1.958  10.381  0.1949  0.5640  0.1140
 6039TIP3    H142312   0.693   1.897  10.436  1.1189  1.0688  1.5503
 6039TIP3    H242313   0.797   2.006  10.443  0.2620  2.1179 -1.1005
 6040TIP3   OH242314   5.325   1.797  10.376  0.6151  0.1743  0.2059
 6040TIP3    H142315   5.406   1.780  10.425  1.1216 -0.2551 -0.7553
 6040TIP3    H242316   5.311   1.891  10.384  0.5381  0.0778  1.3913
 6041TIP3   OH242317   6.493   6.813   9.165  0.2886 -0.8509 -0.4101
 6041TIP3    H142318   6.576   6.802   9.212 -0.5732 -0.1349  1.3538
 6041TIP3    H242319   6.465   6.902   9.186 -0.8469 -1.0319 -1.1167
 6042TIP3   OH242320   3.693   5.922   8.829 -0.1391  0.0654  0.6826
 6042TIP3    H142321   3.673   5.968   8.748 -0.9856 -1.6772 -0.1409
 6042TIP3    H242322   3.773   5.963   8.861 -0.7139  1.9126 -0.1155
 6043TIP3   OH242323   7.795   5.074   9.965 -0.4420 -0.4015 -0.5361
 6043TIP3    H142324   7.762   5.153  10.008 -1.2382 -0.2492 -1.3951
 6043TIP3    H242325   7.843   5.106   9.889 -0.3656 -0.7223 -0.6229
 6044TIP3   OH242326   0.019   3.419   9.543 -0.1617 -0.5380 -0.6140
 6044TIP3    H142327  -0.029   3.337   9.532 -0.6843 -0.0908 -1.7804
 6044TIP3    H242328  -0.034   3.485   9.498  0.2045  0.4680  0.3771
 6045TIP3   OH242329   3.104   2.979  10.124  0.1016 -0.3064  0.0092
 6045TIP3    H142330   3.015   2.951  10.099  0.5397 -0.7304 -1.1799
 6045TIP3    H242331   3.143   2.901  10.165 -0.3037  0.1038  1.2087
 6046TIP3   OH242332   0.775   1.985   9.695  0.2157  0.4155 -0.7274
 6046TIP3    H142333   0.756   1.976   9.601  2.3643  0.0106 -1.1649
 6046TIP3    H242334   0.703   1.939   9.738 -0.2093 -0.3817 -2.2164
 6047TIP3   OH242335   1.168   6.782  10.122 -0.4995 -0.1337  0.1125
 6047TIP3    H142336   1.132   6.775  10.033 -0.5894 -0.1831  0.1522
 6047TIP3    H242337   1.115   6.720  10.173 -0.1393 -0.4500  0.1030
 6048TIP3   OH242338   0.494   3.265  10.281 -0.4408 -0.0433  0.0296
 6048TIP3    H142339   0.490   3.206  10.205 -0.8741  0.1862 -0.1302
 6048TIP3    H242340   0.421   3.326  10.268 -0.9127 -0.3946  0.9640
 6049TIP3   OH242341   2.474   8.297   9.213  0.5030  0.4496  0.6484
 6049TIP3    H142342   2.546   8.343   9.170  0.1517 -0.6412 -1.2015
 6049TIP3    H242343   2.429   8.366   9.263  0.7155  1.9004 -1.0377
 6050TIP3   OH242344   1.913   0.776   8.569  0.2459  0.9493 -0.5173
 6050TIP3    H142345   1.983   0.796   8.632  0.8375 -0.5071 -0.6623
 6050TIP3    H242346   1.913   0.851   8.509  2.7373  0.3626 -1.3976
 6051TIP3   OH242347   7.486   4.595   9.560  0.6106 -0.1023 -0.0606
 6051TIP3    H142348   7.519   4.540   9.631  3.2623  1.9511  0.4623
 6051TIP3    H242349   7.449   4.672   9.605  0.5640  0.3415 -0.8400
 6052TIP3   OH242350   3.375   2.237  11.080  0.0154 -0.1779  0.1439
 6052TIP3    H142351   3.387   2.271  11.169  1.1068  0.2782 -0.1731
 6052TIP3    H242352   3.462   2.212  11.051 -0.4822 -1.3579 -0.4045
 6053TIP3   OH242353   0.645   3.919   9.291  0.2241 -0.1359  0.2781
 6053TIP3    H142354   0.561   3.956   9.318  0.7236  1.0945  0.2113
 6053TIP3    H242355   0.640   3.915   9.196  0.0601 -0.5168  0.3024
 6054TIP3   OH242356   3.514   0.150  10.078 -0.1605 -0.1754 -0.1944
 6054TIP3    H142357   3.430   0.147  10.032 -0.0035  0.8666 -0.5894
 6054TIP3    H242358   3.491   0.167  10.169 -0.3881 -0.1392 -0.2583
 6055TIP3   OH242359   0.387   4.753  10.162  0.2660 -0.8328 -0.5586
 6055TIP3    H142360   0.418   4.794  10.080  0.9302 -0.2420 -0.0293
 6055TIP3    H242361   0.441   4.794  10.230 -0.6741 -0.8964  0.2375
 6056TIP3   OH242362   2.955   1.248  10.239 -0.1421 -0.2572  1.3093
 6056TIP3    H142363   3.003   1.198  10.305  0.9368 -0.1426  0.6512
 6056TIP3    H242364   2.989   1.216  10.155  1.2518  2.1256  0.8617
 6057TIP3   OH242365   1.753   4.850   9.489 -0.4778 -0.5141  0.0061
 6057TIP3    H142366   1.794   4.778   9.537 -0.0417 -0.0866  0.2852
 6057TIP3    H242367   1.698   4.807   9.424  2.4452 -1.2117 -2.2334
 6058TIP3   OH242368   6.879   3.476   9.062 -0.0837  0.2555 -0.2456
 6058TIP3    H142369   6.858   3.566   9.036  2.4952  0.1514 -3.4851
 6058TIP3    H242370   6.809   3.423   9.023  0.0322  0.6797 -1.0653
 6059TIP3   OH242371   6.855   6.473  10.360 -0.5905  0.2599  0.0171
 6059TIP3    H142372   6.822   6.470  10.270 -1.3972  0.5708  0.2932
 6059TIP3    H242373   6.776   6.477  10.414 -0.2274 -2.1514  0.8614
 6060TIP3   OH242374   1.447   1.670   9.714  0.6640 -0.2207  0.0135
 6060TIP3    H142375   1.441   1.744   9.654 -0.6719  0.1668  0.5862
 6060TIP3    H242376   1.379   1.686   9.779  1.2128 -1.2986  0.8890
 6061TIP3   OH242377   0.707   7.012   9.442 -0.0083  0.3562 -0.1573
 6061TIP3    H142378   0.778   7.067   9.475  1.1206 -1.5019  0.6928
 6061TIP3    H242379   0.662   6.981   9.520  0.4269 -1.2146 -0.4935
 6062TIP3   OH242380   6.580   1.819   9.750  0.0717  0.3089 -0.3183
 6062TIP3    H142381   6.508   1.796   9.691 -0.4399  0.2848  0.3112
 6062TIP3    H242382   6.564   1.768   9.829 -0.1794  1.6016  0.4870
 6063TIP3   OH242383   0.358   6.087   9.188 -0.5406  0.0490  0.2254
 6063TIP3    H142384   0.437   6.131   9.157  0.3801 -1.4549  0.3984
 6063TIP3    H242385   0.289   6.120   9.129  0.2467  1.1149 -0.1444
 6064TIP3   OH242386   3.160   5.013  10.781  0.3492  0.1563 -0.0793
 6064TIP3    H142387   3.140   5.084  10.842  1.3018 -0.1342  0.5947
 6064TIP3    H242388   3.075   4.989  10.744 -0.3565 -0.0154  1.5441
 6065TIP3   OH242389   2.555   0.369   9.294 -0.3820  0.3758  0.3284
 6065TIP3    H142390   2.533   0.385   9.203 -1.4350  1.4281  0.7429
 6065TIP3    H242391   2.472   0.380   9.341  0.5879  2.4171  1.7156
 6066TIP3   OH242392   7.945   5.926  10.876  0.2324  0.0282  0.8755
 6066TIP3    H142393   8.028   5.878  10.871  0.1297 -0.1013  0.4050
 6066TIP3    H242394   7.971   6.017  10.885  0.4291  0.0100  0.5208
 6067TIP3   OH242395   4.695   1.093  10.199 -0.2896  0.3013 -0.7528
 6067TIP3    H142396   4.658   1.034  10.264  0.2602  1.0997  0.3054
 6067TIP3    H242397   4.634   1.167  10.196 -0.4601  0.1441 -1.3586
 6068TIP3   OH242398   6.164   7.698   9.360 -0.3349 -0.2330  0.2610
 6068TIP3    H142399   6.112   7.758   9.413  0.3635 -0.0798  0.7860
 6068TIP3    H242400   6.252   7.735   9.360  0.2737 -1.5739  1.1409
 6069TIP3   OH242401   8.265   1.180  10.291  0.3069  0.1101  0.0803
 6069TIP3    H142402   8.299   1.125  10.221 -3.2186  0.5360 -2.2058
 6069TIP3    H242403   8.311   1.264  10.280  0.7503 -0.2443 -0.8934
 6070TIP3   OH242404   4.396   5.921   9.956  0.4035  0.2074 -0.5390
 6070TIP3    H142405   4.349   5.841   9.979 -0.8528  0.9223 -0.5257
 6070TIP3    H242406   4.356   5.948   9.873 -0.5584  1.8539  0.4208
 6071TIP3   OH242407   0.037   1.580   9.598 -0.1494  0.0635 -0.3096
 6071TIP3    H142408  -0.025   1.513   9.570 -0.8512  0.1745  0.8731
 6071TIP3    H242409   0.012   1.658   9.549  1.4883 -0.7800 -2.6768
 6072TIP3   OH242410   4.753   1.634   8.903 -0.9618  0.0321 -0.5820
 6072TIP3    H142411   4.758   1.654   8.996 -0.5660 -0.1844 -0.5546
 6072TIP3    H242412   4.843   1.615   8.877 -1.2449 -1.3202 -0.6811
 6073TIP3   OH242413   8.086   2.318   9.031  0.8913 -0.0562 -0.3797
 6073TIP3    H142414   8.022   2.360   9.088  1.3698 -0.1566  0.2438
 6073TIP3    H242415   8.096   2.378   8.957 -1.8909 -1.2202 -1.8802
 6074TIP3   OH242416   6.721   3.918  10.420  0.1508 -0.1179 -0.3603
 6074TIP3    H142417   6.745   3.825  10.415  0.5319  0.0434 -2.3695
 6074TIP3    H242418   6.645   3.919  10.478  0.4200 -1.6108  0.0853
 6075TIP3   OH242419   1.388   1.096   9.270 -0.3309 -0.1793 -0.2436
 6075TIP3    H142420   1.459   1.138   9.221 -0.3365  0.1837  0.0543
 6075TIP3    H242421   1.421   1.092   9.360 -0.7604  0.1559 -0.0700
 6076TIP3   OH242422   6.128   5.227  10.315 -0.0932 -0.1898  0.0207
 6076TIP3    H142423   6.193   5.221  10.385  0.4816 -0.9777 -0.5754
 6076TIP3    H242424   6.089   5.140  10.311 -0.1599 -0.1361 -0.5986
 6077TIP3   OH242425   7.838   2.801   9.656  0.2196 -0.3733  0.4355
 6077TIP3    H142426   7.785   2.721   9.659 -1.3527  0.4637 -1.9798
 6077TIP3    H242427   7.928   2.770   9.664 -0.4672 -2.0429  2.6384
 6078TIP3   OH242428   2.658   4.515   9.349 -0.3980  0.0494  0.2339
 6078TIP3    H142429   2.582   4.571   9.364 -0.3207  0.3112 -0.3502
 6078TIP3    H242430   2.657   4.454   9.423 -0.6280  0.6523  0.7355
 6079TIP3   OH242431   6.923   3.949   9.366 -0.1292  0.1259  0.3482
 6079TIP3    H142432   6.852   3.985   9.313  2.0961  2.1576 -1.5011
 6079TIP3    H242433   6.915   3.854   9.357 -2.0949  0.3177 -0.4349
 6080TIP3   OH242434   0.239   8.010   9.280  0.2335 -0.2660  0.0377
 6080TIP3    H142435   0.313   8.019   9.219  0.8179  0.5670  0.8555
 6080TIP3    H242436   0.265   8.060   9.357 -0.6253 -1.0585  0.8679
 6081TIP3   OH242437   2.985   7.553   8.506  0.2215  0.0457  0.6487
 6081TIP3    H142438   3.058   7.492   8.507 -1.0275 -1.5212  1.9296
 6081TIP3    H242439   3.005   7.615   8.576  0.4148 -0.2797  0.8848
 6082TIP3   OH242440   3.617   4.920   9.966 -0.1128 -0.3209  0.2477
 6082TIP3    H142441   3.617   4.851  10.031  0.7173 -0.5063  0.0668
 6082TIP3    H242442   3.525   4.935   9.946 -0.3712 -0.3369  1.3725
 6083TIP3   OH242443   5.232   0.520   9.621  0.2138 -0.1403 -0.0962
 6083TIP3    H142444   5.172   0.555   9.688 -3.1974 -2.0099 -1.9252
 6083TIP3    H242445   5.277   0.597   9.587 -1.8731  1.5411  0.7312
 6084TIP3   OH242446   7.147   4.045   9.980 -0.2749  0.0457  0.2981
 6084TIP3    H142447   7.066   4.039   9.930 -0.8428 -0.7897  1.2779
 6084TIP3    H242448   7.213   4.073   9.916 -1.2856  0.5225 -0.5525
 6085TIP3   OH242449   5.089   1.261   9.700 -0.6314  0.0730  0.4618
 6085TIP3    H142450   5.172   1.308   9.695  0.6707 -2.1636 -1.6447
 6085TIP3    H242451   5.083   1.232   9.790  0.9497  0.2154  0.6464
 6086TIP3   OH242452   7.935   2.454   9.224  0.7247 -0.3948  0.0799
 6086TIP3    H142453   7.989   2.512   9.277  0.0527 -0.2019  0.5621
 6086TIP3    H242454   7.900   2.389   9.285  0.9604 -0.9333 -0.3444
 6087TIP3   OH242455   3.727   0.204   9.172 -0.4751 -0.6410 -0.2699
 6087TIP3    H142456   3.656   0.256   9.210  0.8485  1.0407  0.0487
 6087TIP3    H242457   3.764   0.157   9.246 -0.8517 -1.0262 -0.3242
 6088TIP3   OH242458   5.339   1.367   8.626 -0.0459  0.4001  0.1807
 6088TIP3    H142459   5.344   1.384   8.532 -1.1115  0.9256  0.2022
 6088TIP3    H242460   5.257   1.407   8.653  0.1496  0.0769  1.3065
 6089TIP3   OH242461   5.390   7.361   9.357  0.1152 -0.5071 -0.1221
 6089TIP3    H142462   5.404   7.268   9.375 -1.1343 -0.4003  1.6007
 6089TIP3    H242463   5.364   7.399   9.441 -0.4051  1.2112 -1.0069
 6090TIP3   OH242464   7.735   1.579  10.775  0.0626  0.0488  0.0090
 6090TIP3    H142465   7.780   1.495  10.786  0.7878  0.4752  0.3552
 6090TIP3    H242466   7.718   1.585  10.681 -0.5589 -0.7664  0.0514
 6091TIP3   OH242467   0.847   5.527   8.785  0.6228  0.1009 -0.8522
 6091TIP3    H142468   0.869   5.619   8.773  1.4224 -0.3067 -2.9485
 6091TIP3    H242469   0.774   5.511   8.725 -1.0526 -0.1603  1.1394
 6092TIP3   OH242470   7.232   3.806  10.106 -0.0943 -0.4038  0.6286
 6092TIP3    H142471   7.326   3.792  10.094 -0.2142  0.5366 -1.9512
 6092TIP3    H242472   7.221   3.901  10.102 -1.2541 -0.5530 -0.1623
 6093TIP3   OH242473   6.719   5.628  10.234  0.3470  0.7377  0.3524
 6093TIP3    H142474   6.703   5.722  10.223  0.3673  0.5718 -1.3272
 6093TIP3    H242475   6.801   5.612  10.188 -0.0064 -0.2180  0.0296
 6094TIP3   OH242476   2.470   2.027   9.893  0.2773 -0.3094  0.6109
 6094TIP3    H142477   2.399   1.978   9.934  0.6762 -0.6074  0.9582
 6094TIP3    H242478   2.435   2.052   9.807 -0.1098 -0.7859  0.6209
 6095TIP3   OH242479   6.823   6.118  11.423  0.1185  0.0194  0.0797
 6095TIP3    H142480   6.777   6.167  11.355 -1.7313 -2.1222 -0.3221
 6095TIP3    H242481   6.880   6.058  11.374 -0.3398 -0.7059  0.4146
 6096TIP3   OH242482   2.420   5.206   8.885  0.1914 -0.1325  0.3921
 6096TIP3    H142483   2.387   5.182   8.798  1.5572  0.0954 -0.2191
 6096TIP3    H242484   2.442   5.122   8.926 -2.2634 -0.3871  1.3173
 6097TIP3   OH242485   1.303   1.544   9.948  0.8013 -0.1916  0.4206
 6097TIP3    H142486   1.216   1.503   9.944  0.3983  0.5007  1.8032
 6097TIP3    H242487   1.364   1.470   9.938  0.0907 -0.5971 -1.3485
 6098TIP3   OH242488   4.684   6.412   9.616 -0.3413 -0.4480 -0.6286
 6098TIP3    H142489   4.778   6.394   9.605  0.2127  0.8675  1.3226
 6098TIP3    H242490   4.653   6.343   9.675 -0.1148  0.2276  0.3030
 6099TIP3   OH242491   0.197   4.893   9.885 -0.6159  0.2952 -0.3554
 6099TIP3    H142492   0.245   4.931   9.959 -0.3742  0.2839 -0.5027
 6099TIP3    H242493   0.173   4.968   9.831 -0.3040  0.2582 -0.5494
 6100TIP3   OH242494   6.134   2.604  10.429 -0.3880  0.0759 -0.2224
 6100TIP3    H142495   6.227   2.588  10.446 -0.6867  0.2353  1.9127
 6100TIP3    H242496   6.118   2.693  10.459 -1.0101  0.4966 -1.7071
 6101TIP3   OH242497   0.689   5.635  10.464 -0.1942  0.2540  0.3932
 6101TIP3    H142498   0.670   5.551  10.506 -0.6194  0.2761  0.2488
 6101TIP3    H242499   0.731   5.612  10.381 -1.0499  0.1634 -0.0169
 6102TIP3   OH242500   4.247   7.816  10.327  0.1578  0.3590 -0.4309
 6102TIP3    H142501   4.210   7.864  10.401 -2.2712 -0.3159 -1.0923
 6102TIP3    H242502   4.212   7.727  10.337  2.9826 -0.8345 -0.2779
 6103TIP3   OH242503   6.397   4.461  10.909  0.1006 -0.3174 -0.1078
 6103TIP3    H142504   6.368   4.529  10.970  1.3727  1.2308 -1.1345
 6103TIP3    H242505   6.492   4.460  10.918  0.2475 -0.6326 -1.4598
 6104TIP3   OH242506   2.059   3.451   8.828  0.2570  0.1440 -0.0086
 6104TIP3    H142507   2.104   3.367   8.823 -0.4106 -0.2499  0.4392
 6104TIP3    H242508   2.120   3.509   8.873 -0.5998 -1.0600  2.9317
 6105TIP3   OH242509   6.851   5.600   8.858  0.6278 -0.2909  0.3057
 6105TIP3    H142510   6.783   5.645   8.810  0.9446  0.7984  0.8464
 6105TIP3    H242511   6.929   5.654   8.847  1.0595 -0.7814  0.8430
 6106TIP3   OH242512   3.826   3.941   9.983  0.0367 -0.0217 -0.2492
 6106TIP3    H142513   3.815   3.965  10.075 -1.5314  0.6370 -0.5731
 6106TIP3    H242514   3.806   3.848   9.979 -0.4583  0.0731 -0.0019
 6107TIP3   OH242515   3.343   2.913   9.562  0.6640 -0.6900  0.1545
 6107TIP3    H142516   3.268   2.855   9.547  0.5497 -0.9716  1.6405
 6107TIP3    H242517   3.394   2.869   9.629  1.8486 -0.1892 -0.3886
 6108TIP3   OH242518   7.494   3.707  10.214  0.1312 -0.0976 -0.2811
 6108TIP3    H142519   7.588   3.692  10.218  0.0345 -0.4389  1.0038
 6108TIP3    H242520   7.464   3.654  10.140  0.7769 -0.9159  0.0341
 6109TIP3   OH242521   0.290   4.355   8.713 -0.0135  0.7308 -0.1563
 6109TIP3    H142522   0.238   4.435   8.714  0.3667  0.9793  0.3036
 6109TIP3    H242523   0.229   4.287   8.685 -0.5664  1.0309  0.3080
 6110TIP3   OH242524   1.711   4.307   8.658 -0.4325  0.0108  0.0057
 6110TIP3    H142525   1.653   4.266   8.594  0.5893 -1.8400  0.1841
 6110TIP3    H242526   1.678   4.396   8.667 -2.4609 -0.6001 -0.8058
 6111TIP3   OH242527   7.308   7.603  10.313 -0.5825 -0.5460  0.0124
 6111TIP3    H142528   7.320   7.593  10.219 -1.4905  0.3640 -0.2130
 6111TIP3    H242529   7.396   7.620  10.347 -0.3426 -0.2515 -0.7470
 6112TIP3   OH242530   2.085   5.411   8.714  0.1894 -0.3134  0.0485
 6112TIP3    H142531   1.999   5.440   8.684 -1.4590 -2.0038  2.7252
 6112TIP3    H242532   2.096   5.324   8.676 -0.6363 -1.2663  1.8502
 6113TIP3   OH242533   8.413   0.179   9.402 -0.2680 -0.1731  0.6082
 6113TIP3    H142534   8.322   0.148   9.396  0.0004 -0.6920 -2.6266
 6113TIP3    H242535   8.457   0.113   9.455 -1.1242 -1.7894 -0.5953
 6114TIP3   OH242536   8.085   6.752   9.847 -0.3575 -0.8104  0.0670
 6114TIP3    H142537   7.991   6.738   9.860 -0.1747 -1.4761  0.7295
 6114TIP3    H242538   8.100   6.843   9.873 -0.7503 -0.8282  0.3650
 6115TIP3   OH242539   7.310   5.799   9.643  0.9063  0.1992  0.0910
 6115TIP3    H142540   7.288   5.707   9.657 -0.8517  0.4648 -0.6793
 6115TIP3    H242541   7.312   5.838   9.730 -0.3530 -0.1593  0.2876
 6116TIP3   OH242542   5.995   7.625   9.149  0.6853 -0.0195 -0.8174
 6116TIP3    H142543   6.074   7.658   9.191 -0.1439  1.4621 -0.3541
 6116TIP3    H242544   5.923   7.671   9.193 -0.5521 -2.2495 -0.3393
 6117TIP3   OH242545   8.259   6.319   9.838 -0.6068 -0.2551 -0.1627
 6117TIP3    H142546   8.269   6.226   9.861  1.4561  0.2174  1.1012
 6117TIP3    H242547   8.180   6.346   9.883 -1.1877 -1.3619 -0.4718
 6118TIP3   OH242548   3.358   2.849  11.143  0.0424 -0.2862  0.0700
 6118TIP3    H142549   3.282   2.835  11.086 -0.5627  1.7754  0.2741
 6118TIP3    H242550   3.369   2.944  11.144  1.7490 -0.4629  1.2085
 6119TIP3   OH242551   1.073   6.499  11.088 -0.3251 -0.5331  0.1375
 6119TIP3    H142552   1.101   6.551  11.163 -0.8168  1.0376 -0.7226
 6119TIP3    H242553   1.019   6.559  11.036 -1.3474 -2.0762 -0.6345
 6120TIP3   OH242554   5.564   4.365   9.261  0.5232 -0.0958  0.3422
 6120TIP3    H142555   5.504   4.436   9.287  0.8547  0.4603 -0.3676
 6120TIP3    H242556   5.634   4.410   9.214  1.8429 -0.6624  1.7125
 6121TIP3   OH242557   8.326   4.634   8.681  0.1916  0.0934 -0.3911
 6121TIP3    H142558   8.335   4.632   8.586  0.8408 -3.1167 -0.3893
 6121TIP3    H242559   8.238   4.599   8.697  0.7710 -1.1841  0.1633
 6122TIP3   OH242560   4.338   3.401   8.822  0.2069 -0.0727  0.7933
 6122TIP3    H142561   4.260   3.451   8.797  0.7813  0.4281 -0.0432
 6122TIP3    H242562   4.398   3.466   8.857  0.8576 -0.1929 -0.0575
 6123TIP3   OH242563   0.653   0.498  10.417 -0.4055  0.4511  0.3153
 6123TIP3    H142564   0.742   0.478  10.390  0.1782  0.0237  2.4202
 6123TIP3    H242565   0.654   0.492  10.512 -2.1984  2.4385  0.5409
 6124TIP3   OH242566   8.287   4.651  10.267 -0.1130  0.4821  0.5491
 6124TIP3    H142567   8.297   4.566  10.311  0.8767 -0.0328 -0.5923
 6124TIP3    H242568   8.261   4.628  10.178  1.8085  1.2563 -0.2593
 6125TIP3   OH242569   5.654   1.205   9.033  0.2939 -0.1702  0.4384
 6125TIP3    H142570   5.628   1.237   8.946 -0.7683 -2.1781 -0.0565
 6125TIP3    H242571   5.749   1.196   9.027  0.1876 -0.7044 -0.6955
 6126TIP3   OH242572   2.919   4.492  10.181  0.3445 -0.3339 -0.1945
 6126TIP3    H142573   2.992   4.507  10.121 -0.2849 -3.2469 -1.8995
 6126TIP3    H242574   2.959   4.461  10.262  1.0338 -0.7672 -0.6948
 6127TIP3   OH242575   7.440   6.188   9.065  0.1466  0.1233  0.0448
 6127TIP3    H142576   7.404   6.257   9.009 -1.3557 -1.6456 -1.3091
 6127TIP3    H242577   7.478   6.234   9.139  1.7707  2.5729 -2.1470
 6128TIP3   OH242578   7.773   7.656  10.447  0.4613 -0.3895 -0.0617
 6128TIP3    H142579   7.743   7.573  10.484  1.5415 -1.1240 -0.7788
 6128TIP3    H242580   7.856   7.673  10.490 -0.1800  0.8240  0.7551
 6129TIP3   OH242581   2.278   5.973   8.749  0.1697  0.3773  0.7460
 6129TIP3    H142582   2.275   5.889   8.702  0.6196  0.9043 -0.2760
 6129TIP3    H242583   2.203   5.970   8.809 -0.1637 -0.5143  0.3075
 6130TIP3   OH242584   1.186   4.255   9.921 -0.3442 -0.6196 -0.1291
 6130TIP3    H142585   1.267   4.213   9.950 -0.1590  0.6937  1.3440
 6130TIP3    H242586   1.117   4.192   9.944  0.1373 -1.1801 -0.1981
 6131TIP3   OH242587   4.272   7.274   9.519 -0.4683 -0.3856 -0.3301
 6131TIP3    H142588   4.338   7.233   9.463  0.1855 -0.0202  0.1426
 6131TIP3    H242589   4.289   7.368   9.511 -1.0490 -0.2793 -0.3338
 6132TIP3   OH242590   7.960   3.756   9.637  0.6722  0.7521 -0.1258
 6132TIP3    H142591   7.935   3.690   9.572 -0.3994 -0.1100  1.1096
 6132TIP3    H242592   8.056   3.753   9.638  0.7834  1.6722 -2.5054
 6133TIP3   OH242593   3.443   6.191   8.972 -0.2662  0.6099 -0.5683
 6133TIP3    H142594   3.499   6.125   8.932  0.8228  1.6076 -0.7299
 6133TIP3    H242595   3.446   6.171   9.066  0.0465  0.4328 -0.6148
 6134TIP3   OH242596   6.880   7.853   9.201 -0.8367  0.6412 -0.1869
 6134TIP3    H142597   6.816   7.905   9.152 -0.5526  0.8986 -0.2861
 6134TIP3    H242598   6.932   7.917   9.249 -0.7987  0.4191  0.0754
 6135TIP3   OH242599   4.323   2.266   9.121  0.1490  0.7143  0.3807
 6135TIP3    H142600   4.242   2.314   9.106 -0.2112  1.7013  4.2700
 6135TIP3    H242601   4.314   2.230   9.209  2.5296 -2.3025 -0.4007
 6136TIP3   OH242602   1.934   5.663  10.313 -0.0303 -0.3341  0.1115
 6136TIP3    H142603   1.932   5.757  10.300  0.9768  0.0736  2.4775
 6136TIP3    H242604   1.851   5.632  10.276 -0.6250  1.5173 -0.2067
 6137TIP3   OH242605   7.143   0.180   9.631 -0.1249  0.2085  0.1240
 6137TIP3    H142606   7.075   0.132   9.585 -0.3270 -0.6994  1.3190
 6137TIP3    H242607   7.221   0.170   9.577 -1.1773  2.4600 -2.0187
 6138TIP3   OH242608   5.791   6.079   8.652 -0.7190 -0.6202 -0.3004
 6138TIP3    H142609   5.843   6.022   8.596 -0.8878 -0.7705 -0.3060
 6138TIP3    H242610   5.826   6.064   8.740 -1.3962 -1.4576 -0.1607
 6139TIP3   OH242611   0.908   3.980   8.668  0.7675 -0.2315 -0.0752
 6139TIP3    H142612   0.865   3.925   8.733  0.5689 -0.5141 -0.4429
 6139TIP3    H242613   0.873   3.950   8.584  0.9678  0.1765 -0.3078
 6140TIP3   OH242614   7.554   7.399   8.687 -0.4670  0.1645 -1.0103
 6140TIP3    H142615   7.605   7.480   8.681 -0.2138 -0.0351 -1.6489
 6140TIP3    H242616   7.464   7.427   8.674 -0.7312  0.7198  1.5262
 6141TIP3   OH242617   4.009   2.026  11.045  0.3390 -0.2571  0.2037
 6141TIP3    H142618   4.001   2.087  11.118  0.5798  0.9781 -0.7736
 6141TIP3    H242619   4.008   2.081  10.967 -0.7573 -1.6116 -0.7876
 6142TIP3   OH242620   7.138   5.894  10.351  0.5570 -0.3791  0.0522
 6142TIP3    H142621   7.187   5.932  10.424  2.6874 -0.5810 -1.1660
 6142TIP3    H242622   7.077   5.833  10.392  1.4171 -0.2109  1.6861
 6143TIP3   OH242623   0.810   1.197  10.326  0.1784  0.4443 -0.4735
 6143TIP3    H142624   0.832   1.161  10.412  0.1055 -1.4717 -1.2219
 6143TIP3    H242625   0.721   1.231  10.337 -0.9480 -2.2422 -0.4208
 6144TIP3   OH242626   4.188   6.913   8.773 -0.2536 -0.4392  0.0272
 6144TIP3    H142627   4.252   6.949   8.835  0.0436 -1.5522  0.3923
 6144TIP3    H242628   4.117   6.977   8.771  0.9990  1.0088 -0.6427
 6145TIP3   OH242629   4.968   4.046  10.763 -0.3688 -0.2612 -0.6535
 6145TIP3    H142630   4.962   4.138  10.789  1.6201 -0.8761  2.5717
 6145TIP3    H242631   4.880   4.010  10.779 -0.3865  0.4563  0.9736
 6146TIP3   OH242632   6.545   8.192   8.891  0.0976  0.4721 -0.0796
 6146TIP3    H142633   6.506   8.156   8.970 -0.0193  1.5042  0.3502
 6146TIP3    H242634   6.551   8.286   8.908 -0.0191  0.7219 -1.3314
 6147TIP3   OH242635   5.537   0.949   8.721 -0.0927  0.5592  0.1178
 6147TIP3    H142636   5.623   0.985   8.698 -0.3381  0.2922 -1.3445
 6147TIP3    H242637   5.474   1.003   8.673 -0.4907 -1.4642 -1.8683
 6148TIP3   OH242638   4.719   0.301   9.160 -0.1911 -0.5204 -0.5224
 6148TIP3    H142639   4.703   0.206   9.160  0.5000 -0.6607  0.5885
 6148TIP3    H242640   4.635   0.340   9.184  0.0072 -1.0034  1.1313
 6149TIP3   OH242641   1.612   6.498  10.784 -0.3114 -0.0263 -0.1314
 6149TIP3    H142642   1.540   6.544  10.742 -1.1256 -2.3326 -1.4647
 6149TIP3    H242643   1.569   6.434  10.841  0.7690  0.6209  1.4772
 6150TIP3   OH242644   3.543   0.392   9.238 -0.2260 -0.0229  0.4869
 6150TIP3    H142645   3.494   0.438   9.169  2.1001  0.3420 -1.0502
 6150TIP3    H242646   3.477   0.342   9.286 -2.0222 -0.0558 -1.8505
 6151TIP3   OH242647   3.253   0.853  10.195 -0.1826  0.2995  0.1695
 6151TIP3    H142648   3.345   0.878  10.202 -0.0643 -0.3808  1.3396
 6151TIP3    H242649   3.253   0.768  10.152 -0.1329 -0.3370  1.3694
 6152TIP3   OH242650   2.013   2.968   9.962  0.6022  0.0328  0.2084
 6152TIP3    H142651   1.945   2.954   9.895  1.5440 -0.1557 -0.7387
 6152TIP3    H242652   2.053   3.052   9.937  2.5802 -1.1845 -0.9621
 6153TIP3   OH242653   0.769   1.013   9.751  0.4266 -0.8118 -0.1518
 6153TIP3    H142654   0.676   0.999   9.769  0.0882 -0.1646 -1.3145
 6153TIP3    H242655   0.770   1.066   9.672  1.8232 -2.4760 -1.3185
 6154TIP3   OH242656   7.397   5.105   9.957 -0.0420  0.0274  0.7197
 6154TIP3    H142657   7.451   5.162  10.012 -0.8353  0.9009  0.6138
 6154TIP3    H242658   7.328   5.162   9.923 -1.2470 -1.1336  1.1399
 6155TIP3   OH242659   8.177   4.095  10.741 -0.3718 -0.2427  0.4118
 6155TIP3    H142660   8.167   4.071  10.833  0.1553 -1.7043  0.1105
 6155TIP3    H242661   8.269   4.077  10.721 -1.1208 -2.8607 -1.1613
 6156TIP3   OH242662   1.766   6.997   9.526 -0.6799 -0.0856 -0.1164
 6156TIP3    H142663   1.841   7.003   9.466 -0.2791 -1.2597  0.2373
 6156TIP3    H242664   1.696   6.960   9.473 -0.4479 -0.7357  0.0218
 6157TIP3   OH242665   5.409   6.545   9.070  0.6262 -0.6502 -0.5055
 6157TIP3    H142666   5.449   6.460   9.087 -0.0543 -1.0349 -0.8052
 6157TIP3    H242667   5.363   6.534   8.987 -1.1399 -0.6115  0.4189
 6158TIP3   OH242668   5.850   2.876  10.049  0.2915  0.3247 -0.0760
 6158TIP3    H142669   5.819   2.786  10.056  0.4001  0.2096 -0.9739
 6158TIP3    H242670   5.920   2.882  10.115 -0.7124  0.2053  1.0298
 6159TIP3   OH242671   1.517   1.528  10.203  0.0587  0.7541 -0.3855
 6159TIP3    H142672   1.530   1.480  10.120  0.2743  0.5566 -0.2413
 6159TIP3    H242673   1.516   1.459  10.270  2.0647  1.0358  0.0215
 6160TIP3   OH242674   5.253   3.640   8.804  0.3783 -0.3636 -0.3038
 6160TIP3    H142675   5.236   3.629   8.898  2.0317 -2.3783 -0.1590
 6160TIP3    H242676   5.318   3.711   8.800  0.4256 -0.3787  0.0918
 6161TIP3   OH242677   0.737   2.507   9.441 -0.0758  1.3541 -0.1959
 6161TIP3    H142678   0.642   2.520   9.442  0.0808  3.0243  2.0456
 6161TIP3    H242679   0.757   2.477   9.530  1.6746  2.8270 -0.0534
 6162TIP3   OH242680   5.500   7.588   9.092  0.1123  0.4316 -0.5955
 6162TIP3    H142681   5.534   7.655   9.034  1.2111  0.7117  0.3333
 6162TIP3    H242682   5.576   7.532   9.111 -0.5701 -0.5225 -0.6075
 6163TIP3   OH242683   4.422   1.595  10.720 -0.2031 -0.1268  0.2099
 6163TIP3    H142684   4.484   1.664  10.743  0.5156  0.1084 -2.2375
 6163TIP3    H242685   4.344   1.615  10.772  0.5526  1.5758  0.7616
 6164TIP3   OH242686   4.904   6.466   9.251  0.2683 -0.4079 -0.6269
 6164TIP3    H142687   4.818   6.434   9.278  1.3348 -2.8092  0.1682
 6164TIP3    H242688   4.966   6.410   9.297  2.3177  1.8877 -0.3840
 6165TIP3   OH242689   4.954   2.998  10.588 -0.2151 -0.5637 -0.1447
 6165TIP3    H142690   4.971   3.043  10.671 -0.1852  1.7386 -1.3042
 6165TIP3    H242691   5.039   2.994  10.544 -0.5795  0.2973 -0.9762
 6166TIP3   OH242692   7.902   3.413   9.673  0.1011  0.2919  0.2917
 6166TIP3    H142693   7.943   3.391   9.756 -1.4639 -0.0587  1.0005
 6166TIP3    H242694   7.822   3.459   9.697 -0.7777 -0.5164 -0.9864
 6167TIP3   OH242695   5.130   2.302  10.457 -0.2808 -0.3006  0.1801
 6167TIP3    H142696   5.051   2.353  10.476  0.2495  0.4379  0.4128
 6167TIP3    H242697   5.172   2.289  10.542  0.3684  0.1623 -0.0695
 6168TIP3   OH242698   3.078   5.387  10.754 -0.5929  0.0640 -0.0431
 6168TIP3    H142699   3.135   5.393  10.831 -1.2173  1.9932  0.3146
 6168TIP3    H242700   2.990   5.377  10.791 -0.8432  0.5042 -0.5097
 6169TIP3   OH242701   8.174   6.272  14.482  0.6401  0.0921  0.1423
 6169TIP3    H142702   8.089   6.282  14.440  0.5451  0.0968  0.3332
 6169TIP3    H242703   8.208   6.189  14.448 -1.2108 -2.0806  3.0510
 6170TIP3   OH242704   3.806   6.430  10.710  0.3541  0.4933  0.1662
 6170TIP3    H142705   3.887   6.461  10.671  0.2567  1.8379  0.9952
 6170TIP3    H242706   3.737   6.471  10.657  0.1562 -1.4858 -1.2189
 6171TIP3   OH242707   6.031   6.847  10.579 -0.0140 -0.1030 -0.1348
 6171TIP3    H142708   5.988   6.782  10.523  0.4981 -1.1478  0.6477
 6171TIP3    H242709   6.010   6.819  10.668  1.7495 -0.2995  0.2601
 6172TIP3   OH242710   5.596   4.828   9.316  0.6290  0.2730 -0.8334
 6172TIP3    H142711   5.609   4.740   9.280  0.5146 -0.7099  1.3470
 6172TIP3    H242712   5.512   4.823   9.361  0.7945  1.3988 -0.3693
 6173TIP3   OH242713   5.249   6.059   8.988 -0.5510  0.1811  0.2708
 6173TIP3    H142714   5.232   6.143   9.030  1.1323  0.0593  1.2856
 6173TIP3    H242715   5.341   6.040   9.008 -0.7688 -1.6966 -0.2960
 6174TIP3   OH242716   1.793   5.903  10.506 -0.6335 -0.5218  0.4711
 6174TIP3    H142717   1.885   5.915  10.482 -0.2747 -0.5784  1.7684
 6174TIP3    H242718   1.755   5.990  10.500 -0.9153 -0.7327 -1.6212
 6175TIP3   OH242719   0.536   7.670   9.686 -0.8971 -0.0626 -0.3628
 6175TIP3    H142720   0.565   7.585   9.719 -1.7243 -0.6293 -1.0329
 6175TIP3    H242721   0.596   7.690   9.615 -0.6056 -0.0103 -0.1029
 6176TIP3   OH242722   3.825   3.067  10.006 -0.1665 -0.1827  0.5608
 6176TIP3    H142723   3.819   3.014  10.086 -0.6097 -1.7034 -0.4247
 6176TIP3    H242724   3.810   3.004   9.935  0.7941  1.0190 -0.7557
 6177TIP3   OH242725   4.464   6.538   8.590 -0.4731  0.0903 -0.3322
 6177TIP3    H142726   4.392   6.493   8.546  0.7449 -0.5660 -1.7630
 6177TIP3    H242727   4.425   6.618   8.624 -1.8487 -0.1803 -1.1847
 6178TIP3   OH242728   0.641   2.349   9.951  0.0342 -0.6312 -0.0763
 6178TIP3    H142729   0.677   2.291  10.018  1.2968 -0.5059 -0.6265
 6178TIP3    H242730   0.551   2.318   9.939 -0.3075 -0.5240  1.8107
 6179TIP3   OH242731   2.832   0.317  10.023 -0.3394 -0.1150  0.3387
 6179TIP3    H142732   2.920   0.350  10.004  1.0946 -1.3341  3.8848
 6179TIP3    H242733   2.825   0.236   9.973  0.9288 -0.4176  0.6125
 6180TIP3   OH242734   4.849   4.423   9.253  0.8215 -0.4802 -0.2079
 6180TIP3    H142735   4.828   4.487   9.186  1.8141  0.5113  0.3948
 6180TIP3    H242736   4.942   4.403   9.239  0.3054 -2.6529 -1.0747
 6181TIP3   OH242737   0.503   3.076  10.060  0.5399  0.4073 -0.3286
 6181TIP3    H142738   0.477   3.005  10.002  0.3168  1.3673 -1.4626
 6181TIP3    H242739   0.450   3.151  10.032  2.2246  1.5746 -0.5900
 6182TIP3   OH242740   0.879   6.096   9.816  0.5045  0.2256  0.6998
 6182TIP3    H142741   0.962   6.137   9.791  1.2151 -1.6123 -0.1104
 6182TIP3    H242742   0.904   6.008   9.846 -1.2198 -0.6531 -0.3363
 6183TIP3   OH242743   2.527   8.402   8.449 -0.0740  0.2468 -0.2094
 6183TIP3    H142744   2.552   8.312   8.470  1.7743  0.7611 -0.0117
 6183TIP3    H242745   2.435   8.397   8.425  0.3247 -1.8955 -1.4919
 6184TIP3   OH242746   2.542   2.392   8.952  0.2924  0.2473 -0.0815
 6184TIP3    H142747   2.498   2.309   8.969  0.7186 -0.3655 -1.8265
 6184TIP3    H242748   2.627   2.368   8.916  1.1809  1.4449  1.0690
 6185TIP3   OH242749   4.037   0.258  10.071 -0.6294  0.0652 -0.1610
 6185TIP3    H142750   4.067   0.268  10.161  0.2434  1.2549 -0.5570
 6185TIP3    H242751   3.942   0.262  10.077 -0.5995 -0.2650  0.7410
 6186TIP3   OH242752   3.386   1.010  10.537 -0.2391 -0.0363 -0.6896
 6186TIP3    H142753   3.472   0.992  10.499 -0.5843  1.7489 -2.5283
 6186TIP3    H242754   3.359   1.092  10.495 -1.5758  1.0380  2.0380
 6187TIP3   OH242755   3.923   2.537   8.884  0.2737  0.1373 -0.2164
 6187TIP3    H142756   3.893   2.623   8.914 -0.1335 -0.1467  0.1963
 6187TIP3    H242757   3.882   2.526   8.798 -2.0551 -0.8738  0.9513
 6188TIP3   OH242758   1.449   6.346   9.522 -0.6257  0.4932 -0.3330
 6188TIP3    H142759   1.478   6.412   9.584  0.8648  2.5865 -3.0218
 6188TIP3    H242760   1.526   6.293   9.505 -0.6807  0.6721 -1.1947
 6189TIP3   OH242761   0.172   7.136   9.862  0.2970 -0.6473 -0.5420
 6189TIP3    H142762   0.224   7.163   9.937 -1.6822  0.0334  0.6401
 6189TIP3    H242763   0.137   7.050   9.886 -1.6702  0.2779  0.0735
 6190TIP3   OH242764   0.127   5.483   9.760  0.2498  0.0168  0.2454
 6190TIP3    H142765   0.131   5.389   9.775 -0.7501  0.1308  1.4032
 6190TIP3    H242766   0.058   5.495   9.695 -0.8554  0.0415  1.3811
 6191TIP3   OH242767   3.683   0.647  10.472 -0.1605  0.3978 -0.0029
 6191TIP3    H142768   3.723   0.641  10.559 -1.1290 -0.0510  0.4312
 6191TIP3    H242769   3.730   0.583  10.419 -0.1663  0.0128  0.4445
 6192TIP3   OH242770   1.380   6.832   9.013 -0.1960  0.1163 -0.5327
 6192TIP3    H142771   1.461   6.798   9.053  0.6030  1.8518 -0.6089
 6192TIP3    H242772   1.405   6.852   8.923 -0.5552  1.1483 -0.4106
 6193TIP3   OH242773   3.534   2.551   9.910  0.6511 -0.0742  0.5265
 6193TIP3    H142774   3.589   2.518   9.982 -0.8131 -0.2745  1.6146
 6193TIP3    H242775   3.501   2.472   9.868 -0.8957 -0.0404  1.5829
 6194TIP3   OH242776   7.753   8.062   8.958  0.1476 -0.1325 -0.3644
 6194TIP3    H142777   7.739   8.153   8.932 -1.5916  0.1201  1.2661
 6194TIP3    H242778   7.828   8.066   9.018  0.5423  0.1021 -0.8630
 6195TIP3   OH242779   0.862   2.925   9.998 -0.3178  0.4779  0.5043
 6195TIP3    H142780   0.913   2.852   9.963  0.0701  0.1766  1.6514
 6195TIP3    H242781   0.878   2.997   9.937  0.8734  0.1578  0.4083
 6196TIP3   OH242782   6.314   0.405   8.779  0.2985 -0.2978 -0.4280
 6196TIP3    H142783   6.258   0.332   8.804  0.0849  0.0596  0.1753
 6196TIP3    H242784   6.399   0.366   8.760  0.8092 -0.5026  1.9672
 6197TIP3   OH242785   5.652   8.344  11.079  0.0024 -0.0154 -0.4492
 6197TIP3    H142786   5.737   8.329  11.119 -0.6425 -1.9347  0.3080
 6197TIP3    H242787   5.644   8.275  11.012 -1.3618 -0.5423  0.2164
 6198TIP3   OH242788   5.628   0.754  10.195 -0.8627 -0.0563 -0.2393
 6198TIP3    H142789   5.684   0.798  10.259 -1.4997  0.5856 -0.1121
 6198TIP3    H242790   5.689   0.720  10.129 -0.1650 -1.0117  0.8491
 6199TIP3   OH242791   0.980   0.894   9.860 -0.4997  0.2693  0.8555
 6199TIP3    H142792   0.948   0.817   9.907 -0.8099 -1.0414 -1.3777
 6199TIP3    H242793   0.903   0.925   9.811 -0.1220  1.4036  0.9657
 6200TIP3   OH242794   7.327   8.069   9.216 -0.2234 -0.0396  0.4429
 6200TIP3    H142795   7.263   8.020   9.165 -1.3486  3.6615 -2.0958
 6200TIP3    H242796   7.412   8.034   9.189 -0.9216  0.0159 -2.0589
 6201TIP3   OH242797   3.761   4.245   9.089 -0.0216  0.1257 -0.4930
 6201TIP3    H142798   3.837   4.227   9.144  0.4856 -0.8402 -1.4769
 6201TIP3    H242799   3.779   4.201   9.006 -1.7957 -0.4197 -0.6460
 6202TIP3   OH242800   2.049   7.797  10.013 -0.3588  0.0203  0.2168
 6202TIP3    H142801   2.033   7.772  10.104  1.5529 -1.3015  0.2416
 6202TIP3    H242802   2.111   7.732   9.981  1.2692  2.1344 -1.1592
 6203TIP3   OH242803   2.009   0.497   8.525  0.3370  0.1114 -0.1222
 6203TIP3    H142804   1.982   0.588   8.514  0.2366  0.3676  1.8855
 6203TIP3    H242805   1.929   0.446   8.515  0.4393  0.1851 -1.5259
 6204TIP3   OH242806   4.541   4.434   9.733  0.1751  0.1533  0.2779
 6204TIP3    H142807   4.567   4.468   9.818 -0.0587 -1.7514  1.1674
 6204TIP3    H242808   4.582   4.493   9.670  0.5533  1.4720  1.6863
 6205TIP3   OH242809   6.535   1.658   9.971  0.0010 -0.5415  0.2284
 6205TIP3    H142810   6.587   1.699  10.040  2.5963 -2.3478 -0.5060
 6205TIP3    H242811   6.479   1.596  10.017 -1.5079  1.3012  1.0195
 6206TIP3   OH242812   1.554   1.484   9.347  0.1874 -0.4298 -0.0758
 6206TIP3    H142813   1.593   1.407   9.388  1.3977  1.2267  2.0757
 6206TIP3    H242814   1.598   1.491   9.262  2.1026 -0.6175  0.8407
 6207TIP3   OH242815   6.563   2.528   9.332 -0.4737  0.3257  0.0723
 6207TIP3    H142816   6.637   2.480   9.369 -0.8330  0.0435  0.4367
 6207TIP3    H242817   6.540   2.592   9.399  0.3106  1.3606 -0.6089
 6208TIP3   OH242818   3.825   3.184  10.909 -0.9623  0.1317 -0.2605
 6208TIP3    H142819   3.742   3.211  10.869 -1.2626  1.2578  1.0357
 6208TIP3    H242820   3.801   3.113  10.969 -0.9643  0.3027 -0.0558
 6209TIP3   OH242821   5.672   5.584  10.283  0.0140 -0.4261  0.1223
 6209TIP3    H142822   5.738   5.649  10.259  0.6876 -0.8264  0.8357
 6209TIP3    H242823   5.589   5.628  10.267  0.4511  0.1447 -0.6438
 6210TIP3   OH242824   6.466   1.023  10.823 -0.0437 -0.1884 -0.2375
 6210TIP3    H142825   6.502   1.109  10.805  1.7507 -0.6493  0.8539
 6210TIP3    H242826   6.412   1.002  10.747 -1.1288  2.1802 -0.1856
 6211TIP3   OH242827   1.627   7.645  10.535  0.1089  0.0802 -0.2299
 6211TIP3    H142828   1.701   7.632  10.476  0.0369 -1.5609 -0.0111
 6211TIP3    H242829   1.654   7.716  10.593  1.9617 -1.1578  0.5111
 6212TIP3   OH242830   3.044   2.945   9.358 -0.6331 -0.3214 -0.4061
 6212TIP3    H142831   3.015   2.892   9.283 -1.5508 -1.5621  0.7749
 6212TIP3    H242832   2.983   3.018   9.361 -1.5800 -1.0986  0.0181
 6213TIP3   OH242833   6.041   5.598  10.986  0.0350  0.1340  0.1058
 6213TIP3    H142834   6.007   5.607  10.897 -0.8527 -0.2469  0.3944
 6213TIP3    H242835   6.027   5.506  11.008 -0.2198  0.3388  0.8254
 6214TIP3   OH242836   0.865   3.108   8.810 -0.0369 -0.0431 -0.0205
 6214TIP3    H142837   0.808   3.177   8.843  1.8978  1.3996  0.4959
 6214TIP3    H242838   0.936   3.154   8.765  0.1621 -1.7981 -1.6717
 6215TIP3   OH242839   5.246   2.925   9.126 -0.6687  0.1848 -0.1731
 6215TIP3    H142840   5.178   2.912   9.060 -0.3178  0.2714 -0.5610
 6215TIP3    H242841   5.205   2.977   9.194 -1.1611 -0.2672 -0.1205
 6216TIP3   OH242842   5.992   0.087   9.844  0.5500 -0.4545  0.9566
 6216TIP3    H142843   5.952   0.004   9.868  0.2659 -0.9635 -1.1029
 6216TIP3    H242844   6.074   0.063   9.801  0.6183  0.3380  0.6207
 6217TIP3   OH242845   2.335   6.946   9.288  0.6065  0.1929 -0.8094
 6217TIP3    H142846   2.306   7.034   9.313  0.3575  0.2020 -1.1228
 6217TIP3    H242847   2.284   6.887   9.343  1.1308  0.2599 -0.2487
 6218TIP3   OH242848   0.185   2.399   8.883  0.5031 -0.4404 -0.4684
 6218TIP3    H142849   0.124   2.326   8.878  1.4419 -1.3866  0.8808
 6218TIP3    H242850   0.130   2.476   8.896 -0.4341 -1.1551 -0.1025
 6219TIP3   OH242851   2.732   5.809   9.218 -0.3721 -0.0747  0.6018
 6219TIP3    H142852   2.787   5.802   9.140 -1.0673 -1.2420  0.1942
 6219TIP3    H242853   2.697   5.721   9.231  0.7237 -0.2418  2.9887
 6220TIP3   OH242854   7.727   8.174   8.636  0.0164  0.6982  0.5488
 6220TIP3    H142855   7.806   8.221   8.606 -0.1941  0.9121  0.3266
 6220TIP3    H242856   7.736   8.171   8.731  0.9574 -0.4490  0.4519
 6221TIP3   OH242857   8.368   3.993  10.363  0.3333 -0.2398  0.2908
 6221TIP3    H142858   8.311   4.054  10.411 -0.6076 -2.1301  1.7214
 6221TIP3    H242859   8.322   3.909  10.367  0.6049 -0.7246 -3.2940
 6222TIP3   OH242860   6.366   6.684   8.679  0.4119 -0.6741  0.2354
 6222TIP3    H142861   6.273   6.664   8.677  0.2897 -0.0930 -0.7482
 6222TIP3    H242862   6.408   6.611   8.633  0.1909  0.1463 -1.3499
 6223TIP3   OH242863   5.902   0.679  10.271 -0.0883  0.1527 -0.7717
 6223TIP3    H142864   5.997   0.678  10.281 -0.2479  0.1409  1.1859
 6223TIP3    H242865   5.876   0.587  10.275 -0.3041  0.2552  0.3670
 6224TIP3   OH242866   1.657   6.472  10.069  0.2976  0.1310 -0.3806
 6224TIP3    H142867   1.582   6.477  10.009  0.3889 -0.7349 -0.5688
 6224TIP3    H242868   1.716   6.542  10.039 -0.3319  0.6813 -0.3613
 6225TIP3   OH242869   5.470   8.218  10.083  0.2549 -0.1418 -0.2852
 6225TIP3    H142870   5.400   8.191  10.143  0.0884  0.2360 -0.3026
 6225TIP3    H242871   5.428   8.283  10.026  0.4087 -0.5186 -0.8274
 6226TIP3   OH242872   7.733   8.348   9.190  0.1160 -0.2501  0.3672
 6226TIP3    H142873   7.661   8.292   9.222  2.5408 -2.7355  1.9024
 6226TIP3    H242874   7.719   8.432   9.233 -1.9522 -0.5866  0.4597
 6227TIP3   OH242875   7.828   6.839   8.624 -0.5048 -0.4894 -0.0391
 6227TIP3    H142876   7.752   6.887   8.591 -0.2707 -0.2520 -0.2390
 6227TIP3    H242877   7.904   6.886   8.589 -0.2536 -0.4549  0.5284
 6228TIP3   OH242878   7.128   2.224   9.691 -0.8460  0.0921 -0.2837
 6228TIP3    H142879   7.099   2.211   9.600 -0.0779 -0.6970 -0.4259
 6228TIP3    H242880   7.068   2.290   9.726 -0.8253  0.8033 -1.5319
 6229TIP3   OH242881   8.223   5.846   8.962 -0.2433 -0.3308  0.2207
 6229TIP3    H142882   8.138   5.857   8.919  0.3285  0.4428 -0.7645
 6229TIP3    H242883   8.233   5.752   8.973 -0.3953 -0.5635 -1.4121
 6230TIP3   OH242884   1.542   4.698   9.346  0.5111 -0.0249  0.3730
 6230TIP3    H142885   1.459   4.726   9.309 -0.1410 -0.7530  1.2340
 6230TIP3    H242886   1.523   4.684   9.439  1.3590 -1.0852  0.4065
 6231TIP3   OH242887   5.918   0.385   8.749 -0.1487  0.4153 -0.3210
 6231TIP3    H142888   5.887   0.298   8.725 -0.4653  0.2052  0.7725
 6231TIP3    H242889   5.839   0.431   8.779  0.1700  0.7480  0.0208
 6232TIP3   OH242890   6.741   4.074   8.974  0.2627 -0.0836 -0.7296
 6232TIP3    H142891   6.661   4.039   8.935  1.6943 -3.6276 -0.8592
 6232TIP3    H242892   6.803   4.001   8.971  2.7150  1.6973  1.7189
 6233TIP3   OH242893   5.410   1.525   9.929  0.5421  0.2112  0.0860
 6233TIP3    H142894   5.406   1.610   9.886  0.7812  0.1968  0.0358
 6233TIP3    H242895   5.412   1.461   9.858 -1.7565  0.0410  0.0951
 6234TIP3   OH242896   1.884   8.365  10.455 -0.4991 -0.3961  0.2481
 6234TIP3    H142897   1.836   8.288  10.486  0.1077 -1.3374 -1.0642
 6234TIP3    H242898   1.917   8.406  10.535  0.7554 -2.5598  0.9153
 6235TIP3   OH242899   2.155   7.265   8.830 -0.1901 -0.0894  0.0773
 6235TIP3    H142900   2.060   7.258   8.822 -0.2863  1.2452 -0.1603
 6235TIP3    H242901   2.174   7.239   8.920 -0.6233 -1.6293 -0.2494
 6236TIP3   OH242902   6.910   7.870  10.371 -0.0611 -0.3229 -0.1563
 6236TIP3    H142903   6.973   7.818  10.421 -0.0231 -0.1809 -0.0569
 6236TIP3    H242904   6.963   7.936  10.327 -0.2567  0.4437  0.7381
 6237TIP3   OH242905   6.374   0.385  11.162  0.0777 -0.2168 -0.2066
 6237TIP3    H142906   6.401   0.469  11.123 -0.0448  0.8775  1.9184
 6237TIP3    H242907   6.280   0.382  11.147 -0.1722  0.7979  1.0281
 6238TIP3   OH242908   5.229   4.082  10.086 -0.5688 -0.0420 -0.0687
 6238TIP3    H142909   5.231   4.043   9.999 -2.0484  1.4489 -0.8474
 6238TIP3    H242910   5.321   4.092  10.111 -0.1140 -0.2645 -1.5738
 6239TIP3   OH242911   4.218   3.145   9.284  0.1180 -0.0708 -0.0455
 6239TIP3    H142912   4.257   3.058   9.280 -0.8309 -0.5059  0.0798
 6239TIP3    H242913   4.213   3.174   9.193  0.8194  0.0351 -0.0566
 6240TIP3   OH242914   4.323   7.262   8.999 -0.1753 -0.2449  0.1253
 6240TIP3    H142915   4.385   7.216   8.943 -1.6468 -0.0462 -1.7756
 6240TIP3    H242916   4.317   7.208   9.078  1.1472 -1.1256 -0.3486
 6241TIP3   OH242917   1.329   4.498   8.679  0.2362 -0.5227 -0.7451
 6241TIP3    H142918   1.268   4.571   8.686  1.2658  0.3340 -0.4647
 6241TIP3    H242919   1.282   4.424   8.717 -1.3517 -0.3646 -2.3137
 6242TIP3   OH242920   5.102   6.030   9.325  0.3613  0.0002 -0.2439
 6242TIP3    H142921   5.038   5.996   9.388  0.5073  0.4483  0.1627
 6242TIP3    H242922   5.087   5.980   9.245  1.5524 -2.0275  0.7414
 6243TIP3   OH242923   0.273   5.325  10.190 -0.2920  0.6936 -0.1520
 6243TIP3    H142924   0.301   5.307  10.280  1.8031 -1.0853 -1.0682
 6243TIP3    H242925   0.341   5.382  10.154  1.1853 -1.9089 -1.7677
 6244TIP3   OH242926   0.526   1.943  10.211  0.4053  0.4060 -0.0907
 6244TIP3    H142927   0.459   1.946  10.279 -0.8143  0.4816 -1.2472
 6244TIP3    H242928   0.609   1.945  10.258 -0.3556 -1.8674  1.5085
 6245TIP3   OH242929   3.223   2.594   9.028 -0.4900  0.2777  0.2071
 6245TIP3    H142930   3.301   2.610   8.975 -0.0882 -1.1857  0.3173
 6245TIP3    H242931   3.157   2.655   8.993 -0.0204 -0.1431 -1.5015
 6246TIP3   OH242932   3.418   6.199   8.633  0.5481  0.0742  0.6462
 6246TIP3    H142933   3.364   6.275   8.654 -1.5845 -0.2616 -2.7718
 6246TIP3    H242934   3.355   6.130   8.612  2.3539 -1.3247 -0.4802
 6247TIP3   OH242935   0.158   0.390  10.568 -0.3440  0.5140 -0.2281
 6247TIP3    H142936   0.108   0.460  10.611 -1.1008 -0.5974  0.7594
 6247TIP3    H242937   0.249   0.410  10.591 -0.7089  0.0044  1.9467
 6248TIP3   OH242938   1.377   4.040  10.157  0.0158  0.5143 -0.4276
 6248TIP3    H142939   1.283   4.049  10.176 -0.1506 -2.2102  0.6104
 6248TIP3    H242940   1.382   4.032  10.062 -0.6548  1.7507 -0.5846
 6249TIP3   OH242941   4.474   0.110  10.281 -0.3986  0.1256 -0.0225
 6249TIP3    H142942   4.479   0.193  10.327  1.1583  0.2966 -0.4404
 6249TIP3    H242943   4.411   0.125  10.210 -2.3057  0.0550  1.5541
 6250TIP3   OH242944   5.420   4.363   9.844  0.2952  0.0848 -0.0019
 6250TIP3    H142945   5.503   4.369   9.796  1.4597 -1.5046  1.6596
 6250TIP3    H242946   5.423   4.436   9.906  1.3261 -0.9543  1.2339
 6251TIP3   OH242947   8.196   3.344  10.385 -0.0644  0.7316  0.0233
 6251TIP3    H142948   8.273   3.393  10.414  0.5010 -0.5771  0.7717
 6251TIP3    H242949   8.226   3.294  10.310  0.0529 -0.4071  0.8114
 6252TIP3   OH242950   8.221   7.648   9.066  0.0757 -0.0487  0.2891
 6252TIP3    H142951   8.129   7.647   9.090  0.4448 -0.4292  1.8406
 6252TIP3    H242952   8.251   7.736   9.087  0.0572  0.0794 -0.2255
 6253TIP3   OH242953   7.405   3.545   9.977 -0.0932 -0.3054 -0.2105
 6253TIP3    H142954   7.394   3.566   9.884 -0.2087 -0.5116 -0.2430
 6253TIP3    H242955   7.450   3.461   9.978 -1.4449 -1.0681 -0.0996
 6254TIP3   OH242956   3.314   6.224   9.618 -0.2358 -0.2377 -0.4108
 6254TIP3    H142957   3.398   6.196   9.580  0.9407  0.0286  1.7933
 6254TIP3    H242958   3.288   6.151   9.674 -1.3142 -0.1770 -0.8268
 6255TIP3   OH242959   3.467   5.895   8.988 -0.1177  0.0561  0.1250
 6255TIP3    H142960   3.548   5.895   8.938 -0.2307  1.8343 -0.1334
 6255TIP3    H242961   3.494   5.888   9.080  0.2887  0.0103 -0.0004
 6256TIP3   OH242962   7.404   5.402  10.028 -0.0835 -0.6317 -0.4172
 6256TIP3    H142963   7.317   5.403   9.988  0.0808 -1.1881 -0.7882
 6256TIP3    H242964   7.415   5.491  10.063 -0.5853 -0.4027 -0.8292
 6257TIP3   OH242965   3.367   7.884  10.362  0.1245  0.8707 -0.3773
 6257TIP3    H142966   3.273   7.900  10.363 -0.1126 -0.2700  2.1148
 6257TIP3    H242967   3.378   7.813  10.299 -0.7405  0.7131 -0.3602
 6258TIP3   OH242968   7.716   1.833  10.008 -0.2544  0.1594  0.0372
 6258TIP3    H142969   7.663   1.905   9.974  0.4015  0.7741  0.2818
 6258TIP3    H242970   7.724   1.773   9.934 -0.1732  0.7172 -0.4181
 6259TIP3   OH242971   2.852   3.654  10.406  0.1128  0.5308 -0.2643
 6259TIP3    H142972   2.932   3.669  10.355  0.7192  1.8493  1.0010
 6259TIP3    H242973   2.883   3.605  10.483 -0.7675 -1.3320 -1.0292
 6260TIP3   OH242974   2.876   6.267   9.396 -0.0388  0.1404 -0.3984
 6260TIP3    H142975   2.891   6.206   9.468 -0.7932 -1.3018 -1.4256
 6260TIP3    H242976   2.962   6.309   9.383  0.1692  0.2582  1.1521
 6261TIP3   OH242977   4.696   1.928  10.667  0.1495 -0.1972  0.0060
 6261TIP3    H142978   4.718   1.866  10.736  2.1148  1.1929  0.6991
 6261TIP3    H242979   4.750   2.005  10.684 -0.0379  0.6054 -2.5124
 6262TIP3   OH242980   2.023   3.428   9.483  0.4869 -0.2142 -0.1582
 6262TIP3    H142981   2.117   3.436   9.470  0.9567 -0.5141  2.5313
 6262TIP3    H242982   1.993   3.371   9.412  2.0748  0.9002 -1.8035
 6263TIP3   OH242983   0.875   5.163  10.069  0.1292  0.0536  0.2863
 6263TIP3    H142984   0.797   5.110  10.087  0.1320 -0.0047  0.1232
 6263TIP3    H242985   0.943   5.099  10.048  0.1453  0.1202  0.1367
 6264TIP3   OH242986   7.313   4.921   9.072 -0.6248 -0.0157 -0.2293
 6264TIP3    H142987   7.375   4.864   9.027 -1.0836 -0.7053 -0.0064
 6264TIP3    H242988   7.227   4.884   9.051 -1.1130  1.9272 -1.9608
 6265TIP3   OH242989   3.567   4.221  10.546  0.2717  0.2153  0.1255
 6265TIP3    H142990   3.592   4.292  10.487  0.2227  1.4366  1.5166
 6265TIP3    H242991   3.526   4.265  10.620 -2.0637 -1.4344 -0.0882
 6266TIP3   OH242992   4.664   3.033   9.401 -0.3762  0.0762 -0.6603
 6266TIP3    H142993   4.623   2.965   9.455 -2.2535  1.8440  0.2639
 6266TIP3    H242994   4.715   3.086   9.463 -0.3009  0.5167 -1.0909
 6267TIP3   OH242995   3.014   0.386  10.579 -0.5921 -0.2646 -0.3984
 6267TIP3    H142996   2.948   0.450  10.602 -1.4377 -1.9576  2.3757
 6267TIP3    H242997   2.982   0.303  10.615  2.3932 -1.4286 -0.0525
 6268TIP3   OH242998   8.260   1.376   9.223  0.4542 -0.0579 -0.4516
 6268TIP3    H142999   8.295   1.368   9.134 -0.0101 -1.9108 -0.4942
 6268TIP3    H243000   8.175   1.418   9.211  0.4900 -0.0995 -0.8590
 6269TIP3   OH243001   3.330   4.790   9.368 -0.1043  0.5058  0.2927
 6269TIP3    H143002   3.312   4.735   9.292 -2.2047  2.4173 -0.6999
 6269TIP3    H243003   3.303   4.738   9.444 -1.6370 -0.0287 -0.5853
 6270TIP3   OH243004   6.596   0.459   9.890 -0.1307 -0.3652  0.2600
 6270TIP3    H143005   6.531   0.472   9.821  1.3262  0.1397 -1.0783
 6270TIP3    H243006   6.578   0.528   9.953  0.9811  1.7534 -1.6221
 6271TIP3   OH243007   5.970   5.660  10.722 -0.1253  0.2241  0.4509
 6271TIP3    H143008   5.973   5.687  10.630 -0.1445  1.0426  0.6828
 6271TIP3    H243009   5.905   5.590  10.724 -0.3678  0.4229 -0.1077
 6272TIP3   OH243010   7.779   3.680  10.185 -0.1062 -0.4231  0.2066
 6272TIP3    H143011   7.785   3.624  10.107 -1.3933  2.2045 -1.9454
 6272TIP3    H243012   7.831   3.634  10.251 -0.4564 -3.7229 -1.5860
 6273TIP3   OH243013   0.995   1.718  10.871  0.1264  0.3528  1.1125
 6273TIP3    H143014   1.008   1.659  10.945 -0.3298  0.8380  1.5902
 6273TIP3    H243015   0.922   1.679  10.822  0.0390  0.3435  1.2485
 6274TIP3   OH243016   0.260   1.066   9.630 -0.4013  0.2319  0.5679
 6274TIP3    H143017   0.348   1.077   9.593 -0.8560  1.1815 -0.2673
 6274TIP3    H243018   0.245   1.147   9.679 -0.5982 -0.1606  1.1613
 6275TIP3   OH243019   4.720   4.313  10.325  0.0435  0.1454  0.3717
 6275TIP3    H143020   4.815   4.301  10.331  0.2051  1.7989  2.2847
 6275TIP3    H243021   4.695   4.269  10.244  2.0772 -2.3538  0.9819
 6276TIP3   OH243022   1.233   3.946  10.497  0.1081  0.0855  0.7540
 6276TIP3    H143023   1.168   4.017  10.499 -0.3168 -0.2735  0.0767
 6276TIP3    H243024   1.206   3.890  10.424  0.7404 -0.4943  0.9483
 6277TIP3   OH243025   2.076   5.454  10.441 -0.6513 -0.6779 -0.2996
 6277TIP3    H143026   2.036   5.519  10.383 -2.4398 -2.4251 -1.1536
 6277TIP3    H243027   2.147   5.501  10.485 -1.1005  1.4960 -1.7473
 6278TIP3   OH243028   2.990   6.774   9.038  0.0888  0.1188  0.3247
 6278TIP3    H143029   2.912   6.803   8.992  0.2793 -0.3091 -0.2799
 6278TIP3    H243030   2.982   6.812   9.125 -1.2391 -0.6593  0.5679
 6279TIP3   OH243031   5.979   2.949   9.802  0.6089  0.3028  0.0333
 6279TIP3    H143032   5.901   2.944   9.858  0.5749  0.6465  0.0221
 6279TIP3    H243033   5.956   2.899   9.724 -0.1014  1.4662 -0.5474
 6280TIP3   OH243034   2.917   2.527  10.713  0.8827  0.4722 -0.3175
 6280TIP3    H143035   2.963   2.551  10.632  3.0645  0.6857  0.8907
 6280TIP3    H243036   2.962   2.449  10.744  0.9062  1.0915  1.2928
 6281TIP3   OH243037   2.187   2.608  10.263  0.1002 -0.0045  0.0228
 6281TIP3    H143038   2.192   2.670  10.335  0.8130  0.9388 -0.8189
 6281TIP3    H243039   2.171   2.523  10.306 -0.4561  0.6712  1.2074
 6282TIP3   OH243040   5.981   1.715   9.445 -0.6595  0.0878  0.2506
 6282TIP3    H143041   6.070   1.682   9.455 -0.7021  0.2437  1.1991
 6282TIP3    H243042   5.971   1.778   9.515 -1.8307 -0.6125  0.7368
 6283TIP3   OH243043   7.177   3.931  10.960 -0.4864  0.0045  0.0760
 6283TIP3    H143044   7.271   3.931  10.940 -0.9375 -0.2396 -2.2790
 6283TIP3    H243045   7.173   3.952  11.053  1.9148 -0.2852  0.3107
 6284TIP3   OH243046   1.531   6.002  10.023 -0.1630 -0.2117 -0.2962
 6284TIP3    H143047   1.564   6.088  10.051  0.7477 -0.8301  0.6183
 6284TIP3    H243048   1.599   5.940  10.052 -2.0308 -1.5301  1.5353
 6285TIP3   OH243049   2.793   0.093   9.803 -0.4896 -0.1616 -0.1050
 6285TIP3    H143050   2.838   0.030   9.859 -1.8996  0.2789  1.6415
 6285TIP3    H243051   2.756   0.040   9.732 -1.4639 -1.3256  1.2032
 6286TIP3   OH243052   0.075   1.998   8.973 -0.5679 -0.0833 -0.3977
 6286TIP3    H143053   0.162   1.973   8.942 -0.8977 -3.3016  0.7919
 6286TIP3    H243054   0.015   1.944   8.923 -1.4439 -1.5711  2.0485
 6287TIP3   OH243055   4.936   2.020  10.297 -0.1877 -0.0493  0.3775
 6287TIP3    H143056   4.978   1.956  10.353  1.2068  0.2072 -0.3430
 6287TIP3    H243057   4.869   1.971  10.249  3.0053 -1.8780 -2.6711
 6288TIP3   OH243058   5.450   1.965  11.032  0.3338  0.4179  0.0346
 6288TIP3    H143059   5.389   1.983  11.103 -2.2848 -0.9874 -1.6930
 6288TIP3    H243060   5.477   2.051  11.000 -1.7616  1.1424  0.0787
 6289TIP3   OH243061   4.383   5.291   9.572  0.0434 -0.2818  0.3537
 6289TIP3    H143062   4.295   5.293   9.609 -0.5618 -0.7467 -1.0033
 6289TIP3    H243063   4.374   5.332   9.486  1.1157 -0.4975  0.1239
 6290TIP3   OH243064   2.429   7.267  10.402  0.2780  0.3151 -0.0901
 6290TIP3    H143065   2.502   7.309  10.448  0.9440 -0.1716 -0.6831
 6290TIP3    H243066   2.357   7.269  10.465  0.2625  2.3471 -0.0964
 6291TIP3   OH243067   4.938   0.264  10.101 -0.5455  0.3623 -0.3141
 6291TIP3    H143068   4.930   0.188  10.159 -0.6186 -0.2695 -1.1164
 6291TIP3    H243069   4.967   0.226  10.018 -1.3468  1.1124 -0.9526
 6292TIP3   OH243070   5.054   7.725  10.024 -0.1398 -0.2266 -0.4489
 6292TIP3    H143071   5.121   7.690  10.082  0.3700  1.0458 -0.2374
 6292TIP3    H243072   5.039   7.655   9.960  1.2295 -0.6168 -0.3712
 6293TIP3   OH243073   8.023   1.796   8.989  0.6114  0.2241 -0.1224
 6293TIP3    H143074   8.085   1.723   8.996  0.2155 -0.0600  0.5573
 6293TIP3    H243075   8.052   1.858   9.056 -0.0825 -0.1010  0.4839
 6294TIP3   OH243076   2.202   6.751   8.755  0.2752  0.0291 -0.3363
 6294TIP3    H143077   2.221   6.807   8.680 -2.6826 -0.0656 -1.3157
 6294TIP3    H243078   2.119   6.786   8.789  1.2437 -0.3034  2.5666
 6295TIP3   OH243079   6.177   2.996   9.455  0.1606 -0.2578  0.1228
 6295TIP3    H143080   6.208   2.961   9.539 -0.3163 -1.7751 -0.2980
 6295TIP3    H243081   6.255   3.036   9.416  0.3515  0.6151  1.3446
 6296TIP3   OH243082   4.668   1.842   9.127  0.3316  0.0712  0.2285
 6296TIP3    H143083   4.632   1.885   9.205 -0.5983  0.1923 -0.2592
 6296TIP3    H243084   4.607   1.864   9.057  1.6901  0.8408 -0.7816
 6297TIP3   OH243085   2.300   0.882   8.397  0.5543  0.2046  0.5915
 6297TIP3    H143086   2.280   0.959   8.343 -0.2474 -1.0317 -0.9423
 6297TIP3    H243087   2.375   0.909   8.449  0.1541  2.1072  0.2737
 6298TIP3   OH243088   6.774   8.160  10.347  0.0749 -0.2564 -0.2458
 6298TIP3    H143089   6.705   8.195  10.290 -2.0055 -0.9833  1.6928
 6298TIP3    H243090   6.744   8.180  10.436  4.1515  2.6916  0.7768
 6299TIP3   OH243091   2.998   7.403   9.386 -0.0556  0.1151 -0.7766
 6299TIP3    H143092   2.993   7.498   9.384 -1.8225  0.0808  0.0214
 6299TIP3    H243093   2.907   7.374   9.389  0.4378 -1.5220  1.2137
 6300TIP3   OH243094   3.256   8.279   9.708  0.0519  0.1853 -1.0883
 6300TIP3    H143095   3.265   8.358   9.761  0.2552  0.3545 -1.3742
 6300TIP3    H243096   3.198   8.222   9.760 -0.0051  0.4733 -0.8317
 6301TIP3   OH243097   0.933   6.524   9.351  0.3779 -0.1352 -0.2499
 6301TIP3    H143098   0.877   6.577   9.293  1.6256 -0.7932 -2.1544
 6301TIP3    H243099   0.963   6.452   9.296  1.8872 -0.6332  1.1392
 6302TIP3   OH243100   2.241   3.158   9.305 -0.0075  0.0564 -0.4028
 6302TIP3    H143101   2.237   3.099   9.230  2.4524 -0.1265 -0.4510
 6302TIP3    H243102   2.224   3.102   9.381 -0.8186 -0.0712 -0.6620
 6303TIP3   OH243103   5.775   2.765  10.549  0.3947 -0.7211  0.0950
 6303TIP3    H143104   5.793   2.797  10.637  0.8840  0.6409 -0.4599
 6303TIP3    H243105   5.740   2.677  10.561  1.8241 -1.1273  1.5585
 6304TIP3   OH243106   2.355   4.857  10.406  0.1892 -0.1751  0.2400
 6304TIP3    H143107   2.393   4.876  10.493 -1.2514 -2.2042  1.3862
 6304TIP3    H243108   2.283   4.797  10.424 -0.5846 -0.1258 -2.3438
 6305TIP3   OH243109   7.690   7.040   8.869  0.4278 -0.2394  0.1787
 6305TIP3    H143110   7.687   6.954   8.827  0.3908  0.3311 -1.0330
 6305TIP3    H243111   7.783   7.060   8.877  0.4714 -0.8622  1.5102
 6306TIP3   OH243112   1.608   5.447   8.798  0.2261 -0.0866 -0.2231
 6306TIP3    H143113   1.647   5.366   8.766  1.0495  0.5969 -0.9834
 6306TIP3    H243114   1.681   5.508   8.807 -0.2127  0.2566  1.4246
 6307TIP3   OH243115   3.041   3.935   8.763  0.1585 -0.5532 -0.1351
 6307TIP3    H143116   3.065   3.843   8.749 -1.7042 -0.9672 -0.9665
 6307TIP3    H243117   2.947   3.932   8.780  0.1264  1.1853  0.1275
 6308TIP3   OH243118   7.270   1.583   9.019 -0.7894 -0.0042 -0.0513
 6308TIP3    H143119   7.249   1.549   9.105 -0.8887  0.0831 -0.0415
 6308TIP3    H243120   7.189   1.576   8.969 -0.5598 -0.7011 -0.3503
 6309TIP3   OH243121   1.986   3.714   9.390  0.4648  0.9005 -0.6303
 6309TIP3    H143122   2.051   3.648   9.416 -0.9953  0.5170  2.5202
 6309TIP3    H243123   1.902   3.670   9.403 -0.5228  3.0412  0.6959
 6310TIP3   OH243124   5.744   0.199  10.121 -0.0752 -0.0957  0.4258
 6310TIP3    H143125   5.665   0.242  10.089  1.0518  1.7758  0.0245
 6310TIP3    H243126   5.725   0.105  10.112 -2.2646  0.2786  0.4526
 6311TIP3   OH243127   5.987   0.385   9.938 -0.4444  0.2904  0.0522
 6311TIP3    H143128   5.982   0.350   9.849 -0.3119  0.5158 -0.0445
 6311TIP3    H243129   5.912   0.345   9.983 -0.6472  0.3514 -0.2219
 6312TIP3   OH243130   8.012   3.583   8.951 -0.3737  0.2385 -0.3068
 6312TIP3    H143131   8.068   3.528   9.005 -1.9012  0.9487  2.1242
 6312TIP3    H243132   8.011   3.539   8.866  0.6037 -2.0011  0.7518
 6313TIP3   OH243133   6.446   3.482   9.196 -0.1524 -0.1557  0.2287
 6313TIP3    H143134   6.353   3.483   9.174 -0.0634 -2.3535 -0.5068
 6313TIP3    H243135   6.486   3.426   9.130  1.2835 -1.2664  1.9326
 6314TIP3   OH243136   3.258   1.882   9.170  0.2406 -0.3660  0.1546
 6314TIP3    H143137   3.183   1.842   9.125 -0.6798  0.1088  1.2171
 6314TIP3    H243138   3.284   1.954   9.112 -0.4375 -0.2356 -0.0018
 6315TIP3   OH243139   2.925   6.766  10.478 -0.1663 -0.5547  0.3062
 6315TIP3    H143140   2.931   6.859  10.456 -0.7866 -0.1251  1.8332
 6315TIP3    H243141   3.015   6.739  10.495  0.4555 -1.0566 -3.0448
 6316TIP3   OH243142   0.504   5.200   9.928  0.4724 -0.3312 -0.3877
 6316TIP3    H143143   0.517   5.266   9.996 -0.1222 -0.7189  0.1157
 6316TIP3    H243144   0.526   5.244   9.846 -2.1209  1.2521 -0.3422
 6317TIP3   OH243145   1.231   2.764  10.273 -0.0402  0.5138 -0.2067
 6317TIP3    H143146   1.239   2.681  10.226  1.3236  1.2191 -1.2733
 6317TIP3    H243147   1.205   2.738  10.362 -1.1201 -0.9385 -0.8946
 6318TIP3   OH243148   3.250   4.613   9.639 -0.1650 -0.7143 -0.2222
 6318TIP3    H143149   3.193   4.683   9.605  0.0695 -1.1004 -1.4699
 6318TIP3    H243150   3.233   4.539   9.582  1.9087 -0.7014 -0.9211
 6319TIP3   OH243151   1.016   4.293   9.712 -0.5753  0.7990  0.3235
 6319TIP3    H143152   0.943   4.292   9.773 -0.2789  1.6116  0.7110
 6319TIP3    H243153   1.094   4.296   9.768 -0.2290 -0.3187 -0.0751
 6320TIP3   OH243154   0.541   8.348  10.075 -0.3022 -0.1492 -0.1099
 6320TIP3    H143155   0.495   8.281  10.126  0.8385  0.0477  1.2127
 6320TIP3    H243156   0.493   8.351   9.991  0.8982 -4.1480 -1.1367
 6321TIP3   OH243157   2.658   5.908   9.655  0.1308  0.2891 -0.3253
 6321TIP3    H143158   2.641   5.830   9.602  0.9989 -1.2268  1.5487
 6321TIP3    H243159   2.744   5.939   9.624  0.7633 -0.7482  0.3415
 6322TIP3   OH243160   0.728   1.352   8.425 -0.0741  0.4138 -0.5471
 6322TIP3    H143161   0.675   1.314   8.494 -1.6277  0.7693 -1.4853
 6322TIP3    H243162   0.802   1.292   8.415 -0.8566 -0.6814  0.0755
 6323TIP3   OH243163   8.113   5.173   9.202  0.2493 -0.1363  0.0954
 6323TIP3    H143164   8.150   5.088   9.176 -1.9338 -1.6207  1.5730
 6323TIP3    H243165   8.096   5.217   9.118 -1.4903 -2.4902 -0.8991
 6324TIP3   OH243166   3.718   0.845   9.263 -0.1806 -0.8728 -0.2311
 6324TIP3    H143167   3.737   0.751   9.269 -0.4989 -0.9095  0.1984
 6324TIP3    H243168   3.657   0.852   9.190 -0.8126 -1.1054  0.2604
 6325TIP3   OH243169   6.191   2.027  10.668  0.2381 -0.1689 -0.4126
 6325TIP3    H143170   6.170   1.968  10.740 -1.7494  1.3650  0.3540
 6325TIP3    H243171   6.195   1.970  10.591 -1.1260 -1.4031  0.3706
 6326TIP3   OH243172   2.374   0.263   8.742  0.2295  0.4876  0.0799
 6326TIP3    H143173   2.288   0.222   8.747  0.4442 -0.0861 -0.7926
 6326TIP3    H243174   2.356   0.357   8.746 -0.4062  0.3640  0.2556
 6327TIP3   OH243175   0.124   1.787  11.095  0.3067 -0.0826 -0.0490
 6327TIP3    H143176   0.111   1.711  11.151  0.6174 -0.6683 -0.7520
 6327TIP3    H243177   0.201   1.831  11.132  2.3162 -2.0308 -1.6153
 6328TIP3   OH243178   4.791   4.598   9.537 -0.0694  0.0125 -0.4381
 6328TIP3    H143179   4.867   4.542   9.551  0.4191  0.4377 -1.2694
 6328TIP3    H243180   4.827   4.680   9.502 -0.6472  1.3243  1.8462
 6329TIP3   OH243181   5.790   4.862  10.532  0.1066 -0.9290  0.5785
 6329TIP3    H143182   5.710   4.809  10.534  0.4756 -1.4615  1.8487
 6329TIP3    H243183   5.760   4.950  10.511 -0.9081 -0.9822  1.7148
 6330TIP3   OH243184   3.862   4.617  10.419  0.1550  0.5398 -0.6633
 6330TIP3    H143185   3.838   4.547  10.359  2.1361  0.0329 -0.9538
 6330TIP3    H243186   3.803   4.606  10.494 -1.1137  0.0353 -1.7005
 6331TIP3   OH243187   3.748   0.248   9.489  0.1801  0.1477 -0.5023
 6331TIP3    H143188   3.776   0.157   9.493 -0.6643 -0.0750  1.1154
 6331TIP3    H243189   3.657   0.247   9.519  1.0129  1.8134  2.4839
 6332TIP3   OH243190   6.752   4.376   9.044 -0.0433 -0.4727 -0.2188
 6332TIP3    H143191   6.711   4.377   9.130 -2.2641  0.8283 -1.1947
 6332TIP3    H243192   6.765   4.284   9.024  1.1240 -0.7720  1.7499
 6333TIP3   OH243193   3.837   7.195  10.184 -0.2557 -0.0030 -0.2601
 6333TIP3    H143194   3.874   7.146  10.110  1.3474 -0.8175  1.0039
 6333TIP3    H243195   3.898   7.178  10.256 -2.0510  0.3001  1.4061
 6334TIP3   OH243196   3.938   6.757  10.378 -0.0350 -0.3668 -0.1063
 6334TIP3    H143197   4.002   6.814  10.420  0.7966 -0.7301 -0.8495
 6334TIP3    H243198   3.929   6.683  10.439 -1.7500  0.8824  1.2754
 6335TIP3   OH243199   6.541   4.830   9.796  0.2199 -0.0107  0.4627
 6335TIP3    H143200   6.459   4.843   9.749  0.5068  1.8139  0.4100
 6335TIP3    H243201   6.560   4.737   9.785 -1.2648 -0.2391 -0.4565
 6336TIP3   OH243202   1.960   4.856  10.520  0.3093 -0.4500  0.2458
 6336TIP3    H143203   1.935   4.903  10.440 -1.4859  2.3096  2.2151
 6336TIP3    H243204   1.883   4.806  10.544  1.2623 -2.2650 -0.3250
 6337TIP3   OH243205   3.016   2.259  10.765 -0.0438  0.3506 -0.6751
 6337TIP3    H143206   2.993   2.218  10.682  0.3339  0.2021 -0.7070
 6337TIP3    H243207   3.084   2.202  10.802  0.4874  0.9522 -0.7205
 6338TIP3   OH243208   3.818   4.210   9.553 -0.0949 -0.3110  0.2791
 6338TIP3    H143209   3.782   4.164   9.629  0.4959 -0.0822  0.7052
 6338TIP3    H243210   3.912   4.208   9.567 -0.0350  0.5374  0.0186
 6339TIP3   OH243211   5.710   3.235   9.746  0.3340 -0.4417 -0.1722
 6339TIP3    H143212   5.688   3.145   9.769  1.0383 -0.7919 -0.8114
 6339TIP3    H243213   5.706   3.237   9.650  0.7050  0.1005 -0.1850
 6340TIP3   OH243214   2.832   4.748  10.438 -0.5279 -0.6004  0.4492
 6340TIP3    H143215   2.779   4.798  10.500 -0.2749  1.0673 -0.6097
 6340TIP3    H243216   2.890   4.814  10.398  0.2983 -1.8700 -0.5208
 6341TIP3   OH243217   1.891   6.264   9.166  0.3085 -0.3213 -0.3825
 6341TIP3    H143218   1.971   6.212   9.173  0.8415  0.6361  1.1959
 6341TIP3    H243219   1.920   6.354   9.182 -1.1635 -0.0432  0.9463
 6342TIP3   OH243220   4.041   5.031  10.836 -0.0574  0.5744 -0.4336
 6342TIP3    H143221   3.972   5.030  10.902 -1.8344 -1.0489 -2.1732
 6342TIP3    H243222   3.999   5.069  10.758  0.5433 -1.5627 -1.8999
 6343TIP3   OH243223   7.250   7.103  10.272  0.2265  0.0995  0.2045
 6343TIP3    H143224   7.313   7.174  10.281 -0.9190  1.1952 -0.1307
 6343TIP3    H243225   7.253   7.079  10.180  0.6061 -0.2793  0.3151
 6344TIP3   OH243226   5.506   5.254   9.089 -0.0460 -0.0956  0.5200
 6344TIP3    H143227   5.514   5.347   9.113  1.2873 -0.0590 -0.0019
 6344TIP3    H243228   5.567   5.209   9.147  0.9164 -0.3761 -0.6954
 6345TIP3   OH243229   3.715   4.034   9.740  0.0876  0.1884 -0.1583
 6345TIP3    H143230   3.635   3.984   9.760  1.0303 -1.5092 -0.4486
 6345TIP3    H243231   3.771   4.019   9.815  0.4006  0.8135 -0.2662
 6346TIP3   OH243232   3.613   7.379  10.923 -0.2316  0.3839 -0.0629
 6346TIP3    H143233   3.550   7.443  10.957 -0.9859  0.9106 -2.3210
 6346TIP3    H243234   3.560   7.317  10.873  0.7899 -0.6094  0.0378
 6347TIP3   OH243235   1.839   7.239  10.306  0.0036 -0.4490  0.4682
 6347TIP3    H143236   1.904   7.279  10.364  1.3415  1.2570 -1.9920
 6347TIP3    H243237   1.786   7.313  10.276 -1.1094 -1.3900  0.0520
 6348TIP3   OH243238   2.473   3.824   8.856  0.3603 -0.0905 -0.9344
 6348TIP3    H143239   2.476   3.870   8.939 -1.4016  0.4264 -1.1306
 6348TIP3    H243240   2.462   3.732   8.880 -0.1402  0.0572 -0.5976
 6349TIP3   OH243241   6.320   6.571   9.845 -0.1488  0.6782 -0.0249
 6349TIP3    H143242   6.410   6.540   9.853  0.2714  1.8295 -0.0921
 6349TIP3    H243243   6.326   6.666   9.857 -1.2636  0.8502 -0.6633
 6350TIP3   OH243244   5.285   6.027   9.695  0.3330  0.4009  0.0097
 6350TIP3    H143245   5.287   5.955   9.758 -1.5329 -1.7005 -2.1445
 6350TIP3    H243246   5.356   6.008   9.634 -1.0059 -0.4631 -1.3437
 6351TIP3   OH243247   5.931   3.916  10.424 -0.2337 -0.1188  0.2586
 6351TIP3    H143248   5.908   3.852  10.490 -0.5450  0.2360  0.4949
 6351TIP3    H243249   5.849   3.938  10.381  0.2318 -1.9730 -1.7570
 6352TIP3   OH243250   7.246   5.390   9.195  0.4520  0.0700  0.2089
 6352TIP3    H143251   7.260   5.325   9.263 -0.4589  0.2262  0.5611
 6352TIP3    H243252   7.285   5.352   9.116  0.3839 -0.6682  0.5287
 6353TIP3   OH243253   6.877   3.023   9.838 -0.2766 -0.1191  0.2879
 6353TIP3    H143254   6.968   3.022   9.810 -0.4781  0.8959 -0.5177
 6353TIP3    H243255   6.858   3.116   9.852 -0.6193 -0.4682  2.4629
 6354TIP3   OH243256   0.296   6.665   9.080 -0.1456 -0.4041 -0.2770
 6354TIP3    H143257   0.390   6.663   9.061 -0.3281 -0.2656 -1.2296
 6354TIP3    H243258   0.281   6.587   9.133  0.6854  0.1281  0.7873
 6355TIP3   OH243259   3.236   0.375   9.018 -0.2527 -0.4108  0.0165
 6355TIP3    H143260   3.148   0.397   8.986 -0.1703 -1.6284 -1.0907
 6355TIP3    H243261   3.250   0.284   8.993  0.4768 -0.9626  2.1390
 6356TIP3   OH243262   6.482   7.526   9.004  0.1988  0.0834  0.9154
 6356TIP3    H143263   6.499   7.620   9.012  0.7603  0.1811 -0.8263
 6356TIP3    H243264   6.416   7.519   8.935  0.1009 -0.7960  1.0831
 6357TIP3   OH243265   5.670   7.424   8.721 -0.0366 -0.0824 -0.1752
 6357TIP3    H143266   5.702   7.472   8.644  0.5617 -0.5010 -0.1980
 6357TIP3    H243267   5.575   7.420   8.710 -0.2522  2.1414  0.4342
 6358TIP3   OH243268   5.852   8.402   9.566 -0.3287 -0.4037  0.1482
 6358TIP3    H143269   5.819   8.468   9.627 -1.0609  1.3982 -2.0447
 6358TIP3    H243270   5.935   8.437   9.536 -0.0108 -1.2266  0.0400
 6359TIP3   OH243271   0.938   1.902   8.759  0.0540 -0.2477  0.0236
 6359TIP3    H143272   0.896   1.830   8.711  0.2978 -0.9260  0.8075
 6359TIP3    H243273   0.876   1.925   8.828 -0.0221  0.3019 -0.2241
 6360TIP3   OH243274   7.661   1.794  10.299 -0.2114  0.2816 -0.5000
 6360TIP3    H143275   7.608   1.868  10.330 -1.0860 -0.4333 -0.2461
 6360TIP3    H243276   7.698   1.823  10.216 -2.1762  0.2905 -1.4074
 6361TIP3   OH243277   5.263   4.356  10.174 -0.0214  0.3571 -0.3935
 6361TIP3    H143278   5.230   4.434  10.130  0.1574  0.7061  0.0727
 6361TIP3    H243279   5.203   4.286  10.148 -0.7155  0.8351 -0.1173
 6362TIP3   OH243280   7.178   7.414  10.940  0.8125  0.1147  0.3115
 6362TIP3    H143281   7.171   7.366  11.022  0.8130  1.4023  1.0807
 6362TIP3    H243282   7.261   7.460  10.946  1.2162 -0.4361 -0.7874
 6363TIP3   OH243283   6.773   0.083  10.013  0.1523 -0.1975  0.0738
 6363TIP3    H143284   6.706   0.016  10.023  0.3512 -0.4502 -0.3003
 6363TIP3    H243285   6.833   0.048   9.948  0.1005  0.4652 -0.3401
 6364TIP3   OH243286   7.653   6.274  10.408  0.4167  1.1696  0.0408
 6364TIP3    H143287   7.599   6.197  10.421  1.0287  0.9936  1.8813
 6364TIP3    H243288   7.625   6.310  10.324 -1.1746  0.0064  0.0346
 6365TIP3   OH243289   3.505   8.131  10.375  0.5094 -0.1447 -0.3267
 6365TIP3    H143290   3.511   8.155  10.282  0.6034  1.4383  0.0529
 6365TIP3    H243291   3.436   8.065  10.378  0.2995 -0.0138 -1.4861
 6366TIP3   OH243292   1.549   3.068  10.227  0.2699 -0.5358 -0.4332
 6366TIP3    H143293   1.562   3.031  10.140  0.7386 -0.6691 -0.3065
 6366TIP3    H243294   1.577   2.999  10.287  0.2839 -0.3118 -0.1812
 6367TIP3   OH243295   7.456   0.445  10.252 -0.0428 -0.0978 -0.4721
 6367TIP3    H143296   7.423   0.371  10.303 -0.0191  0.6861  0.7153
 6367TIP3    H243297   7.498   0.502  10.316 -0.6979  1.3044 -1.2477
 6368TIP3   OH243298   4.805   0.588   9.033  0.2414  0.4869  0.1719
 6368TIP3    H143299   4.816   0.674   8.992  0.2087 -0.5137 -2.0714
 6368TIP3    H243300   4.718   0.591   9.073 -1.4913  0.2951 -3.2368
 6369TIP3   OH243301   7.377   6.525   9.953 -0.2536  0.3574 -0.0226
 6369TIP3    H143302   7.453   6.515  10.010 -0.2617 -1.0627 -0.2260
 6369TIP3    H243303   7.310   6.467   9.990 -1.6880  2.4183  0.8161
 6370TIP3   OH243304   0.086   5.816  10.390  0.9409 -0.2910 -0.6168
 6370TIP3    H143305   0.008   5.782  10.434  2.1869 -1.2560  0.9678
 6370TIP3    H243306   0.149   5.830  10.461  3.3678 -2.6910 -2.0984
 6371TIP3   OH243307   1.281   0.598   9.491  0.5327 -0.2543 -0.4812
 6371TIP3    H143308   1.202   0.612   9.544  0.7033  1.0043 -0.5367
 6371TIP3    H243309   1.338   0.544   9.546  0.3371  0.2821  0.2539
 6372TIP3   OH243310   7.023   5.863  10.098 -0.2025 -0.4233  0.3789
 6372TIP3    H143311   7.090   5.864  10.030 -0.9641 -0.2068 -0.3802
 6372TIP3    H243312   7.073   5.870  10.180  0.7002 -0.2874 -0.1615
 6373TIP3   OH243313   1.877   2.374  10.088  1.0420 -0.2065 -0.0748
 6373TIP3    H143314   1.919   2.308  10.143  0.7189  1.2608  2.0374
 6373TIP3    H243315   1.785   2.350  10.087  1.1259 -0.5254 -0.4304
 6374TIP3   OH243316   6.513   4.462  10.342  0.0885  0.0059 -0.2481
 6374TIP3    H143317   6.558   4.458  10.257 -2.4972 -0.2924 -1.7124
 6374TIP3    H243318   6.424   4.492  10.321 -0.1145  1.8393  2.6288
 6375TIP3   OH243319   0.693   5.106   8.799 -0.3160 -0.4960 -0.4835
 6375TIP3    H143320   0.714   5.016   8.822  1.4610 -0.1577 -0.6237
 6375TIP3    H243321   0.669   5.147   8.883 -0.2564 -0.8915 -0.2697
 6376TIP3   OH243322   5.796   1.820   8.625 -0.1514  0.4273  0.4593
 6376TIP3    H143323   5.740   1.777   8.689  1.6927 -0.2933  1.6449
 6376TIP3    H243324   5.749   1.901   8.603 -2.7687 -1.2129 -0.4096
 6377TIP3   OH243325   3.926   5.525  10.412  0.0992  0.4576 -0.1403
 6377TIP3    H143326   3.891   5.448  10.455  2.0676 -0.3315  0.1499
 6377TIP3    H243327   3.866   5.541  10.339 -0.9950 -0.6202  0.4849
 6378TIP3   OH243328   7.897   8.180   9.855  0.0963 -0.3739 -0.1088
 6378TIP3    H143329   7.808   8.146   9.847 -0.3138  0.3758  1.0410
 6378TIP3    H243330   7.939   8.156   9.772 -0.9875 -1.2541 -0.4272
 6379TIP3   OH243331   3.211   0.648  10.499 -0.1506 -0.0234  0.2399
 6379TIP3    H143332   3.180   0.723  10.550  0.7995  0.5249  0.0478
 6379TIP3    H243333   3.157   0.575  10.528  0.3309  0.2783  2.0253
 6380TIP3   OH243334   4.214   6.391   9.491  0.7354 -0.1141 -0.4208
 6380TIP3    H143335   4.222   6.310   9.542  0.2740  0.2058  0.1816
 6380TIP3    H243336   4.293   6.441   9.511  1.0086 -0.3959 -0.7739
 6381TIP3   OH243337   7.027   0.730   9.532  0.4764 -0.1096  0.3787
 6381TIP3    H143338   7.064   0.714   9.445  0.2759 -1.8867  0.5702
 6381TIP3    H243339   7.080   0.675   9.591 -0.8144 -0.7110  1.0239
 6382TIP3   OH243340   6.747   6.112   8.912  0.5075  0.1095 -0.1436
 6382TIP3    H143341   6.667   6.081   8.954  0.4014 -1.0314 -1.1249
 6382TIP3    H243342   6.746   6.207   8.925  0.3312 -0.1370  2.1013
 6383TIP3   OH243343   8.255   4.962   9.108  0.4157  0.0591 -0.6209
 6383TIP3    H143344   8.276   4.926   9.022  1.0885 -0.3145 -0.3079
 6383TIP3    H243345   8.257   4.886   9.167 -0.5438  0.2268 -0.3545
 6384TIP3   OH243346   3.183   4.363   9.532 -0.1518  0.8048  0.0840
 6384TIP3    H143347   3.178   4.394   9.442 -0.3353  1.0342  0.1744
 6384TIP3    H243348   3.272   4.329   9.540  0.3209  2.0279  0.2227
 6385TIP3   OH243349   0.357   1.084  10.563  0.3952  0.0954 -0.0078
 6385TIP3    H143350   0.417   1.013  10.588  0.4398  0.2434  0.3091
 6385TIP3    H243351   0.298   1.093  10.638 -1.4034 -1.4859 -1.1349
 6386TIP3   OH243352   6.652   2.155   9.392 -0.1244 -0.0766 -0.0627
 6386TIP3    H143353   6.630   2.158   9.299  1.8454  0.2913 -0.5572
 6386TIP3    H243354   6.685   2.066   9.406  0.8368  0.2736 -0.0448
 6387TIP3   OH243355   3.776   0.314  10.092 -0.4205  0.4339  0.1178
 6387TIP3    H143356   3.757   0.364  10.171 -0.1219  0.0396  0.4458
 6387TIP3    H243357   3.709   0.246  10.090  0.5330 -0.5868  0.9503
 6388TIP3   OH243358   0.874   4.950   8.589 -0.0656 -0.6873 -0.1779
 6388TIP3    H143359   0.965   4.972   8.570  0.1873 -0.6148  1.0209
 6388TIP3    H243360   0.848   5.012   8.657 -1.6636  0.6076 -1.8506
 6389TIP3   OH243361   4.813   3.851  10.421 -0.6051  0.2889 -0.1619
 6389TIP3    H143362   4.774   3.874  10.505  0.5041  2.3801 -0.1530
 6389TIP3    H243363   4.738   3.834  10.364 -1.3731 -1.1696  1.1996
 6390TIP3   OH243364   3.676   8.378  10.153 -0.0197 -0.4277  0.3518
 6390TIP3    H143365   3.650   8.464  10.121  0.6266 -0.9287 -1.6903
 6390TIP3    H243366   3.594   8.330  10.163 -0.2580 -0.3101 -0.8502
 6391TIP3   OH243367   2.821   7.024  10.906 -0.1577  0.1010  0.2955
 6391TIP3    H143368   2.903   7.028  10.955 -0.2920  1.0051  0.4675
 6391TIP3    H243369   2.844   7.054  10.818  0.2320 -2.1836 -0.4551
 6392TIP3   OH243370   8.091   3.054   9.148  0.0922  0.3139 -0.6593
 6392TIP3    H143371   8.162   3.111   9.178  0.0169 -0.5594  1.3266
 6392TIP3    H243372   8.018   3.114   9.131  0.3629  0.9378  0.2905
 6393TIP3   OH243373   4.315   3.869  10.069 -0.1119 -0.1479 -0.2278
 6393TIP3    H143374   4.371   3.916  10.130  1.1470 -0.7816 -0.8473
 6393TIP3    H243375   4.258   3.815  10.125 -1.2350  1.6522  0.4629
 6394TIP3   OH243376   1.673   5.297   9.702 -0.1206  0.2573 -0.0791
 6394TIP3    H143377   1.742   5.232   9.717 -0.9750 -0.6743 -0.0651
 6394TIP3    H243378   1.601   5.269   9.760  0.2248  2.4117  1.4955
 6395TIP3   OH243379   1.881   7.856  10.601 -0.2974  0.0516  0.1615
 6395TIP3    H143380   1.895   7.763  10.580 -0.7508  0.3519 -1.6417
 6395TIP3    H243381   1.834   7.855  10.685  0.8094 -1.2928  0.7982
 6396TIP3   OH243382   5.445   5.619  14.712  0.2396 -0.3169 -0.2249
 6396TIP3    H143383   5.477   5.541  14.757 -0.9062 -0.9058 -0.3980
 6396TIP3    H243384   5.355   5.629  14.743  0.2406  0.7075 -0.5109
 6397TIP3   OH243385   4.673   6.180   8.863 -0.1759  0.4179  0.0908
 6397TIP3    H143386   4.646   6.260   8.819 -0.5694  0.2409 -0.0002
 6397TIP3    H243387   4.768   6.184   8.865 -0.2091  1.3469  0.9482
 6398TIP3   OH243388   7.976   7.035  10.872  0.5538  0.1347 -0.0909
 6398TIP3    H143389   8.014   7.117  10.904 -0.5687  0.5940  0.1362
 6398TIP3    H243390   7.909   7.063  10.809  0.8850 -0.6607 -0.8026
 6399TIP3   OH243391   2.668   1.187   8.813 -0.0733 -0.8180 -0.4941
 6399TIP3    H143392   2.750   1.235   8.815  0.7350 -2.1422 -0.4898
 6399TIP3    H243393   2.691   1.098   8.842 -1.5186 -1.1951 -0.3970
 6400TIP3   OH243394   0.116   6.736   9.336  0.0494 -0.1611 -0.0729
 6400TIP3    H143395   0.072   6.755   9.253 -0.2803  0.1162  0.1672
 6400TIP3    H243396   0.207   6.763   9.321  0.6824 -2.6435 -1.2893
 6401TIP3   OH243397   5.870   8.436  10.753 -0.3497  0.3481 -0.1900
 6401TIP3    H143398   5.879   8.418  10.847 -1.4616 -0.0345 -0.1442
 6401TIP3    H243399   5.960   8.441  10.721  0.0395  0.0957  0.8274
 6402TIP3   OH243400   5.885   5.510   9.255 -0.6597 -0.1312 -0.6111
 6402TIP3    H143401   5.817   5.531   9.191  0.3607  0.9476 -1.3984
 6402TIP3    H243402   5.954   5.574   9.238 -0.9358  1.1876  2.5586
 6403TIP3   OH243403   2.535   1.388   8.595 -0.4219  0.2235 -0.1988
 6403TIP3    H143404   2.457   1.348   8.557 -1.0046  0.7977  0.3748
 6403TIP3    H243405   2.553   1.336   8.674  0.9969 -1.1936 -1.3887
 6404TIP3   OH243406   1.740   5.028  10.103  0.1094 -0.2809  0.3804
 6404TIP3    H143407   1.796   5.105  10.092  0.5016 -0.8179 -1.7944
 6404TIP3    H243408   1.651   5.061  10.092  0.0592  0.2534  2.0302
 6405TIP3   OH243409   2.119   1.403  10.055 -0.0771 -0.0649 -0.1320
 6405TIP3    H143410   2.177   1.457  10.109 -1.1520  0.4980  0.4802
 6405TIP3    H243411   2.165   1.320  10.047  1.1370  0.5893 -0.2339
 6406TIP3   OH243412   6.669   7.868   9.773  0.1195 -0.0986  0.2583
 6406TIP3    H143413   6.646   7.830   9.688 -1.3943 -0.6346  0.8710
 6406TIP3    H243414   6.651   7.961   9.764  0.8421 -0.0060 -0.2822
 6407TIP3   OH243415   1.122   1.507   8.404  0.4604 -0.0578  0.2400
 6407TIP3    H143416   1.077   1.591   8.414  2.3339  0.9734  0.5839
 6407TIP3    H243417   1.062   1.442   8.439 -0.8685  1.1880  0.3521
 6408TIP3   OH243418   8.153   4.180   9.823  0.8381  0.3233  0.1173
 6408TIP3    H143419   8.157   4.148   9.913  1.4743  0.8834  0.2943
 6408TIP3    H243420   8.088   4.251   9.825  0.4457 -0.0250  0.0106
 6409TIP3   OH243421   5.013   7.396  10.194 -0.0419 -0.0389 -0.2826
 6409TIP3    H143422   5.094   7.347  10.208 -0.3777 -0.8445 -1.1165
 6409TIP3    H243423   4.952   7.333  10.157 -1.0309  0.5878  0.2271
 6410TIP3   OH243424   8.231   4.245   9.112 -0.1386 -0.1558  0.5911
 6410TIP3    H143425   8.222   4.179   9.181 -0.2890  0.1027  0.8228
 6410TIP3    H243426   8.143   4.257   9.079  0.0012 -0.5945  0.0541
 6411TIP3   OH243427   2.045   2.077   9.974 -1.0188  0.5941  0.3184
 6411TIP3    H143428   1.958   2.115   9.969 -0.8399  0.8723 -0.8416
 6411TIP3    H243429   2.063   2.044   9.886  0.5260  1.6222  0.2114
 6412TIP3   OH243430   1.480   1.343   9.947 -0.1827  0.4786 -0.1249
 6412TIP3    H143431   1.479   1.250   9.969 -1.8472  0.7727  1.2958
 6412TIP3    H243432   1.512   1.346   9.858  1.3197 -1.3277  0.2870
 6413TIP3   OH243433   7.275   4.147  10.396 -0.0727 -0.0286  0.4235
 6413TIP3    H143434   7.351   4.122  10.342  1.0611  2.3906  0.7823
 6413TIP3    H243435   7.254   4.068  10.446  3.1488 -0.4366  1.3591
 6414TIP3   OH243436   3.480   3.999   9.180  0.0907 -0.2486  0.5238
 6414TIP3    H143437   3.553   3.968   9.234  1.6115  2.0110 -0.0967
 6414TIP3    H243438   3.494   4.094   9.173 -2.4375  0.1388 -0.3605
 6415TIP3   OH243439   0.093   6.257   9.357  0.0719  0.2794 -1.0679
 6415TIP3    H143440   0.133   6.246   9.443  0.2495 -1.6116 -1.3562
 6415TIP3    H243441   0.005   6.291   9.376  0.2389  0.2332 -0.1657
 6416TIP3   OH243442   4.080   4.745  10.051  0.8047  0.0000  0.5245
 6416TIP3    H143443   4.117   4.661  10.078  1.8699  0.8051  1.6783
 6416TIP3    H243444   4.127   4.767   9.970 -0.4363 -1.1145 -0.5507
 6417TIP3   OH243445   2.537   4.620  10.410  0.5625  0.1295 -0.3141
 6417TIP3    H143446   2.494   4.705  10.398 -0.5453 -0.6980 -2.8053
 6417TIP3    H243447   2.477   4.569  10.464  0.3943  0.3350 -0.3070
 6418TIP3   OH243448   5.740   2.762   9.334  0.0246 -0.2879  0.4476
 6418TIP3    H143449   5.780   2.687   9.379  0.4396 -0.7350 -0.6225
 6418TIP3    H243450   5.811   2.799   9.282 -0.7683 -0.6995 -0.9925
 6419TIP3   OH243451   2.777   3.887   8.860  0.3036 -0.3389 -0.2419
 6419TIP3    H143452   2.793   3.931   8.943  0.9077 -2.0572  0.6206
 6419TIP3    H243453   2.688   3.911   8.836  0.0097 -0.0390  1.0678
 6420TIP3   OH243454   7.350   7.436   9.551  0.3558  0.1775 -0.4376
 6420TIP3    H143455   7.331   7.507   9.491 -0.9772 -0.8428 -1.2820
 6420TIP3    H243456   7.415   7.382   9.505 -1.7783 -1.4421 -1.7441
 6421TIP3   OH243457   1.638   0.312  10.362 -0.6802 -0.0000 -0.5752
 6421TIP3    H143458   1.548   0.295  10.392 -0.8105 -0.2510 -1.0968
 6421TIP3    H243459   1.634   0.400  10.324 -0.0688  1.1801  1.8750
 6422TIP3   OH243460   6.165   2.975   9.082  0.6200 -0.2146 -0.0866
 6422TIP3    H143461   6.093   2.992   9.142 -0.6131 -1.3628 -1.1990
 6422TIP3    H243462   6.156   3.043   9.015  1.2749  0.3196  0.3422
 6423TIP3   OH243463   0.433   1.400  10.696  0.1116  0.1238 -0.2406
 6423TIP3    H143464   0.368   1.392  10.766  2.4549  1.9924  2.3457
 6423TIP3    H243465   0.434   1.493  10.674  0.0229 -0.3015 -2.2585
 6424TIP3   OH243466   3.090   7.282   9.631 -0.1376 -0.1351  0.6771
 6424TIP3    H143467   3.100   7.368   9.672 -1.6397 -0.0633  0.9205
 6424TIP3    H243468   3.036   7.297   9.555  0.4188 -0.7210  0.1521
 6425TIP3   OH243469   0.748   7.732  11.069 -0.6003  0.1697  0.3863
 6425TIP3    H143470   0.656   7.757  11.076 -0.8904 -1.0681  1.1603
 6425TIP3    H243471   0.750   7.639  11.091  0.3345 -0.7506 -2.9864
 6426TIP3   OH243472   5.052   1.761   8.967  0.1660 -0.0847  0.0650
 6426TIP3    H143473   5.036   1.727   9.056  0.8794 -0.0043  0.2271
 6426TIP3    H243474   5.116   1.831   8.979 -1.2492  1.3452 -0.2645
 6427TIP3   OH243475   5.236   5.721   9.349  0.0123 -0.3381 -0.3465
 6427TIP3    H143476   5.256   5.627   9.342 -0.1976 -0.3000 -1.5481
 6427TIP3    H243477   5.251   5.741   9.442 -1.3407 -1.8712  0.2523
 6428TIP3   OH243478   5.630   1.982   9.156 -0.1682  0.5576 -0.4872
 6428TIP3    H143479   5.581   2.064   9.155 -0.0047  0.6499 -1.1298
 6428TIP3    H243480   5.722   2.009   9.147 -0.0612  0.3379 -0.0849
 6429TIP3   OH243481   0.736   5.631  10.131  0.4921 -0.4568  0.1128
 6429TIP3    H143482   0.692   5.622  10.047  0.6994  0.0859 -0.0541
 6429TIP3    H243483   0.790   5.709  10.123  1.8473 -1.3513  0.1597
 6430TIP3   OH243484   3.881   2.004   9.482 -0.2969  0.5101 -0.1830
 6430TIP3    H143485   3.885   1.959   9.566 -0.0974 -0.5201 -0.7207
 6430TIP3    H243486   3.852   1.936   9.420  0.7948  0.9071 -1.1664
 6431TIP3   OH243487   6.066   8.178   8.976 -0.0088 -0.2658  0.4377
 6431TIP3    H143488   6.121   8.105   8.946  0.0937 -0.2244  0.5255
 6431TIP3    H243489   5.981   8.161   8.936  0.4774  0.5200 -0.9956
 6432TIP3   OH243490   7.110   2.553   9.617  0.0758  0.0016  0.0982
 6432TIP3    H143491   7.041   2.540   9.682  1.3118 -0.2202  1.4128
 6432TIP3    H243492   7.070   2.526   9.534 -1.5992  0.4635  0.7178
 6433TIP3   OH243493   6.126   4.507  10.578  0.3124 -0.3825 -0.3836
 6433TIP3    H143494   6.134   4.490  10.672 -0.8579 -1.5231 -0.4572
 6433TIP3    H243495   6.084   4.593  10.572 -0.6861 -0.8095  0.1873
 6434TIP3   OH243496   7.343   5.499  10.303  0.2822  0.0308 -0.3630
 6434TIP3    H143497   7.301   5.450  10.233  0.1337 -0.4732  0.0695
 6434TIP3    H243498   7.360   5.433  10.371  0.0606  0.5795  0.2322
 6435TIP3   OH243499   1.918   0.639   9.384 -0.0739  0.5944 -0.0704
 6435TIP3    H143500   1.868   0.642   9.302  0.2703 -1.7938 -0.4509
 6435TIP3    H243501   1.983   0.708   9.374 -0.7743  1.1169 -1.3115
 6436TIP3   OH243502   8.052   6.334  10.849  0.4763 -0.0478 -0.1831
 6436TIP3    H143503   8.084   6.252  10.812  0.1787 -0.3045  0.1231
 6436TIP3    H243504   7.958   6.320  10.861  0.7417 -0.4032  1.7518
 6437TIP3   OH243505   5.228   2.946  11.136 -0.3765 -0.0695 -0.5897
 6437TIP3    H143506   5.311   2.898  11.137 -0.4561 -0.1961  0.6503
 6437TIP3    H243507   5.240   3.012  11.068  1.2210  0.7333  0.4113
 6438TIP3   OH243508   4.651   6.991   9.428  0.1594  0.1604  0.2192
 6438TIP3    H143509   4.740   6.956   9.434  0.8559  2.0963  2.5007
 6438TIP3    H243510   4.631   7.022   9.516 -2.5670  0.3729 -0.3822
 6439TIP3   OH243511   0.305   0.487   9.720  0.4475  0.1659  0.0525
 6439TIP3    H143512   0.313   0.581   9.737  1.4107  0.6021 -2.3814
 6439TIP3    H243513   0.395   0.455   9.724  0.0397 -0.9261  1.8652
 6440TIP3   OH243514   0.393   0.988   9.226 -0.7673  0.4233 -0.0583
 6440TIP3    H143515   0.453   1.038   9.171 -0.6932  0.8659  0.4144
 6440TIP3    H243516   0.368   0.912   9.173  2.0839 -1.0996  0.5792
 6441TIP3   OH243517   2.276   5.642   9.678 -0.3262  0.4970 -0.4879
 6441TIP3    H143518   2.239   5.613   9.761 -0.8611 -1.2462 -1.2980
 6441TIP3    H243519   2.323   5.723   9.700 -3.5690  2.2264  0.8449
 6442TIP3   OH243520   8.368   1.161   8.671  0.0023 -0.0600 -0.1058
 6442TIP3    H143521   8.355   1.252   8.698  0.2534  0.0991 -0.5127
 6442TIP3    H243522   8.279   1.124   8.669 -0.3790  0.7860 -2.0395
 6443TIP3   OH243523   7.839   5.355   9.460  0.2402  0.4715 -0.3379
 6443TIP3    H143524   7.756   5.309   9.471  0.7938 -1.0186 -1.9557
 6443TIP3    H243525   7.845   5.372   9.366  2.7375 -1.5072 -0.6590
 6444TIP3   OH243526   3.303   5.961  10.391  0.7888  0.1870  0.2767
 6444TIP3    H143527   3.317   5.973  10.485  0.0896 -0.0640  0.4147
 6444TIP3    H243528   3.307   6.049  10.355 -0.6458  0.4728  0.7811
 6445TIP3   OH243529   3.074   0.630   9.147  0.9867  0.2331 -0.3698
 6445TIP3    H143530   3.069   0.535   9.160  1.6097 -0.1434 -2.4417
 6445TIP3    H243531   3.133   0.661   9.216 -0.1082 -0.6881  1.0273
 6446TIP3   OH243532   6.921   0.323   9.136  0.0867 -0.9223 -0.1672
 6446TIP3    H143533   6.945   0.372   9.057 -3.1266 -0.6833 -1.1658
 6446TIP3    H243534   6.879   0.244   9.103 -1.6095 -0.6794  1.2509
 6447TIP3   OH243535   6.083   7.417  10.293  0.0083  0.3269  0.5311
 6447TIP3    H143536   6.136   7.380  10.223 -0.2332  2.4886 -0.8867
 6447TIP3    H243537   6.047   7.341  10.339  1.7754 -1.1604 -0.4100
 6448TIP3   OH243538   5.099   8.040   9.096  0.0496 -0.1260 -0.3004
 6448TIP3    H143539   5.083   8.049   9.190 -1.8512  0.0793 -0.6166
 6448TIP3    H243540   5.097   8.130   9.063 -0.6763 -0.3027 -0.7451
 6449TIP3   OH243541   6.809   2.187   9.711  0.2209  0.2125  0.2939
 6449TIP3    H143542   6.713   2.180   9.707  0.3464 -1.8018 -0.1708
 6449TIP3    H243543   6.825   2.275   9.747 -1.8122  0.1024  1.6415
 6450TIP3   OH243544   3.867   4.608   9.870 -0.1166 -0.0058 -0.6716
 6450TIP3    H143545   3.839   4.698   9.853 -0.6024  0.3173  1.5837
 6450TIP3    H243546   3.954   4.617   9.909  0.0237 -0.5584 -0.8423
 6451TIP3   OH243547   5.196   3.926   9.485 -0.8647  0.3843  0.8309
 6451TIP3    H143548   5.134   3.951   9.417 -3.1310  0.4661  2.8000
 6451TIP3    H243549   5.280   3.962   9.456 -1.4124 -0.7001 -2.4918
 6452TIP3   OH243550   3.931   1.539   9.902 -0.0649 -0.1109  0.4937
 6452TIP3    H143551   3.884   1.590   9.968 -0.5939  0.4802 -0.3103
 6452TIP3    H243552   3.875   1.463   9.886  0.9161 -1.1947  1.9840
 6453TIP3   OH243553   7.700   3.098  10.591  0.7878 -0.1727 -0.4186
 6453TIP3    H143554   7.645   3.051  10.528 -0.8664  1.0494  0.0263
 6453TIP3    H243555   7.786   3.103  10.550  0.3668 -1.4692 -1.5127
 6454TIP3   OH243556   0.666   8.063  10.636 -0.0854  0.3251  0.3190
 6454TIP3    H143557   0.726   7.989  10.623 -2.0449 -1.4612  0.8381
 6454TIP3    H243558   0.703   8.110  10.711  1.1395 -0.1739  0.0617
 6455TIP3   OH243559   1.796   2.099   9.885 -0.3083 -0.0366 -0.1893
 6455TIP3    H143560   1.715   2.048   9.885  0.3225 -1.1237  1.4594
 6455TIP3    H243561   1.784   2.163   9.814 -2.4031 -0.4392 -0.2680
 6456TIP3   OH243562   4.848   0.661   9.653  1.0667  0.5131  0.7853
 6456TIP3    H143563   4.761   0.623   9.667  1.1576  0.6293  1.7223
 6456TIP3    H243564   4.840   0.752   9.682  1.1999  0.8575 -0.2229
 6457TIP3   OH243565   4.464   1.169   9.815 -0.4604 -0.1859  0.0748
 6457TIP3    H143566   4.546   1.120   9.812 -0.5483 -0.2832 -0.9663
 6457TIP3    H243567   4.408   1.126   9.750 -1.1431  0.2253  0.3786
 6458TIP3   OH243568   3.180   2.328  10.480 -0.2002 -0.2233  0.3679
 6458TIP3    H143569   3.162   2.235  10.491  1.4025 -0.2493  3.8303
 6458TIP3    H243570   3.263   2.331  10.432 -0.4906 -0.5246 -0.1659
 6459TIP3   OH243571   8.098   0.664  10.047  0.3789 -0.3631  0.2275
 6459TIP3    H143572   8.053   0.745  10.069  1.4560  0.6223 -1.0073
 6459TIP3    H243573   8.181   0.668  10.094  0.1674 -1.0913  0.6924
 6460TIP3   OH243574   2.945   7.012  10.355  0.4622  0.2968 -0.0710
 6460TIP3    H143575   3.030   7.022  10.312 -0.3245 -2.3969 -2.6078
 6460TIP3    H243576   2.882   7.021  10.284 -1.3033  0.6118  1.4746
 6461TIP3   OH243577   4.002   6.693  10.075  0.3391 -0.0959  0.2194
 6461TIP3    H143578   4.008   6.598  10.079  0.6923 -0.0551  0.7001
 6461TIP3    H243579   3.986   6.720  10.165  0.8110  0.3411  0.1771
 6462TIP3   OH243580   4.080   7.582  10.344  0.2237  0.3775  0.1630
 6462TIP3    H143581   4.046   7.550  10.261 -2.1276  1.0776  0.7759
 6462TIP3    H243582   4.007   7.574  10.405  1.4065  1.2993  1.7989
 6463TIP3   OH243583   6.964   6.925  10.117  0.2676 -0.7704  0.3245
 6463TIP3    H143584   7.055   6.920  10.087 -0.4542 -2.1763 -1.8795
 6463TIP3    H243585   6.966   6.888  10.205  1.6142 -2.2908 -0.2985
 6464TIP3   OH243586   1.113   4.077  10.256 -0.4499 -0.3774 -0.1568
 6464TIP3    H143587   1.055   4.002  10.247 -1.1107  0.1851 -0.7466
 6464TIP3    H243588   1.058   4.153  10.235  0.4147  0.1952 -0.4404
 6465TIP3   OH243589   2.351   3.200  10.307 -0.2603  0.1611  0.2510
 6465TIP3    H143590   2.426   3.209  10.248 -0.0837 -0.8054  0.3131
 6465TIP3    H243591   2.354   3.109  10.336 -0.0140  0.7433  2.2073
 6466TIP3   OH243592   0.172   7.271   8.746  0.2754  0.1984  0.0129
 6466TIP3    H143593   0.198   7.194   8.696  0.9637  0.8857 -0.7142
 6466TIP3    H243594   0.236   7.276   8.817 -0.5136 -0.5975  0.8002
 6467TIP3   OH243595   6.954   0.033   9.801  0.0525 -0.4718 -0.0821
 6467TIP3    H143596   7.031   0.080   9.833  0.9111  0.6823 -3.4602
 6467TIP3    H243597   6.987  -0.054   9.779  0.2586 -0.2012 -0.8714
 6468TIP3   OH243598   3.861   4.413   9.322  0.8504 -0.7323 -0.1955
 6468TIP3    H143599   3.793   4.399   9.388  1.3968 -0.6225  0.3935
 6468TIP3    H243600   3.917   4.481   9.359 -0.2363  1.1566 -1.8422
 6469TIP3   OH243601   2.743   5.028   9.278  0.8185  0.0271 -0.0379
 6469TIP3    H143602   2.671   5.042   9.339  0.1758  0.0687 -0.7883
 6469TIP3    H243603   2.731   4.938   9.247  1.3484 -0.1156  0.1639
 6470TIP3   OH243604   4.440   8.399  10.526  0.1164  0.2787  0.0910
 6470TIP3    H143605   4.461   8.437  10.441  0.2088  0.2034  0.0814
 6470TIP3    H243606   4.368   8.453  10.559 -0.6130 -0.3102 -0.4829
 6471TIP3   OH243607   3.301   8.150   8.435 -0.2733 -0.5480  0.3810
 6471TIP3    H143608   3.359   8.102   8.495  0.4944 -1.2697 -0.8792
 6471TIP3    H243609   3.215   8.144   8.475 -0.1503 -2.7671  0.4275
 6472TIP3   OH243610   5.116   3.798  10.708 -0.3687 -0.7017  0.1288
 6472TIP3    H143611   5.090   3.745  10.783  1.5280 -1.5681  0.2400
 6472TIP3    H243612   5.072   3.882  10.721 -2.8591 -1.9705  0.3221
 6473TIP3   OH243613   0.973   4.946   8.898 -0.3591 -0.1875  0.7442
 6473TIP3    H143614   0.939   4.966   8.985 -1.8727  0.4882  0.0423
 6473TIP3    H243615   1.004   5.030   8.864 -1.4652 -0.0599 -0.0345
 6474TIP3   OH243616   7.651   6.815   9.234 -0.1156 -0.8016  0.8386
 6474TIP3    H143617   7.558   6.829   9.253 -0.2420 -0.7194  0.1785
 6474TIP3    H243618   7.658   6.722   9.215 -0.1123 -0.7576  0.6223
 6475TIP3   OH243619   0.955   0.672  10.579 -0.2281  0.6937 -0.4569
 6475TIP3    H143620   1.050   0.658  10.569 -0.4242 -2.4743  1.1130
 6475TIP3    H243621   0.944   0.702  10.669 -0.8273 -1.1199  0.1139
 6476TIP3   OH243622   0.506   1.037   9.477 -0.5143  0.4073  0.0787
 6476TIP3    H143623   0.473   1.054   9.389 -0.0369  1.9748  0.1772
 6476TIP3    H243624   0.556   0.956   9.468  0.5726  1.1872 -1.3932
 6477TIP3   OH243625   0.352   6.366  10.144 -0.0385  0.3602  0.3124
 6477TIP3    H143626   0.263   6.391  10.119  0.4495  0.7101 -1.2131
 6477TIP3    H243627   0.355   6.272  10.127  0.1792  0.5327 -0.7258
 6478TIP3   OH243628   7.452   7.497   9.085  0.4040  0.2536 -0.2040
 6478TIP3    H143629   7.393   7.565   9.052  0.3062 -0.5035 -1.6550
 6478TIP3    H243630   7.456   7.433   9.015  2.1483 -0.2259  0.3013
 6479TIP3   OH243631   2.705   1.725   9.068 -0.4198 -0.6767  0.0095
 6479TIP3    H143632   2.687   1.779   8.992 -0.1342  1.4805  1.3866
 6479TIP3    H243633   2.621   1.684   9.089 -0.9103  0.0493 -0.4789
 6480TIP3   OH243634   6.989   5.005   9.613  0.0956  0.1128 -0.1780
 6480TIP3    H143635   6.985   4.982   9.706  1.0995  0.9915  0.1087
 6480TIP3    H243636   6.966   5.098   9.610 -1.4521 -0.2639 -1.0098
 6481TIP3   OH243637   2.882   4.759   9.274 -0.4500  0.0149  0.1342
 6481TIP3    H143638   2.961   4.719   9.236 -0.6133 -0.0070 -0.1842
 6481TIP3    H243639   2.911   4.792   9.359  0.1937  1.0242 -0.4472
 6482TIP3   OH243640   2.210   6.453   9.006  0.2528 -0.0066  0.2438
 6482TIP3    H143641   2.260   6.372   8.994 -0.6755 -0.4431 -0.9107
 6482TIP3    H243642   2.186   6.479   8.917 -0.8239  0.6653  0.7165
 6483TIP3   OH243643   3.475   1.881   8.442 -0.0244 -0.7543  0.1332
 6483TIP3    H143644   3.543   1.942   8.470  0.7598 -1.4776 -0.1420
 6483TIP3    H243645   3.508   1.795   8.467  0.7585 -1.4755 -2.9091
 6484TIP3   OH243646   1.991   0.728   9.016  0.1227 -0.2327  0.1824
 6484TIP3    H143647   2.076   0.720   9.059  0.2949  0.3814 -0.0313
 6484TIP3    H243648   1.952   0.641   9.023  0.4007 -0.3011  1.0476
 6485TIP3   OH243649   8.001   5.879  10.544  0.1714 -0.1030 -0.1083
 6485TIP3    H143650   7.988   5.955  10.601  2.6280  0.1632  0.2281
 6485TIP3    H243651   8.096   5.876  10.529 -0.0042 -2.2719 -1.2851
 6486TIP3   OH243652   7.004   6.500   9.696  0.4024 -0.5241  0.0174
 6486TIP3    H143653   7.045   6.456   9.770  2.7632 -0.9844 -1.4479
 6486TIP3    H243654   6.937   6.439   9.666 -0.1778 -0.5909  1.3753
 6487TIP3   OH243655   5.002   0.444  10.681 -0.4056  0.4367  0.0871
 6487TIP3    H143656   4.986   0.352  10.703 -1.8873 -0.1949 -3.1063
 6487TIP3    H243657   5.089   0.461  10.715 -0.3345 -1.9389  1.3614
 6488TIP3   OH243658   2.826   4.049   9.076 -0.1206 -0.0119 -0.7579
 6488TIP3    H143659   2.738   4.040   9.112 -0.6488 -0.1212 -2.0093
 6488TIP3    H243660   2.847   4.142   9.088 -0.3694 -0.0007 -0.3919
 6489TIP3   OH243661   1.876   6.836   9.760 -0.3927 -0.0056  0.4015
 6489TIP3    H143662   1.863   6.889   9.681 -0.4582 -1.3267 -0.5000
 6489TIP3    H243663   1.954   6.874   9.801  0.0917  0.2461 -0.7005
 6490TIP3   OH243664   0.365   0.107   9.150  0.0657 -0.0659  0.7030
 6490TIP3    H143665   0.431   0.038   9.141  0.1900  0.1981 -0.9009
 6490TIP3    H243666   0.341   0.127   9.059  0.9971  2.8762  1.0036
 6491TIP3   OH243667   7.705   0.330  10.328  0.2987  0.3173  0.0974
 6491TIP3    H143668   7.661   0.305  10.246  0.1678  0.2465  0.1880
 6491TIP3    H243669   7.661   0.410  10.356  0.8813  0.7947 -0.3212
 6492TIP3   OH243670   0.543   2.962  11.253 -0.1353  0.2528  0.1750
 6492TIP3    H143671   0.604   3.003  11.192  0.6527  0.0313  0.7839
 6492TIP3    H243672   0.574   2.871  11.259 -1.7046 -0.3992 -0.9779
 6493TIP3   OH243673   4.619   8.249  10.711  0.5499 -0.0253  0.6034
 6493TIP3    H143674   4.589   8.301  10.636 -1.1522 -0.7694  0.7310
 6493TIP3    H243675   4.691   8.300  10.748 -0.2173  1.6009 -0.0442
 6494TIP3   OH243676   3.270   6.299  10.563  0.3678 -0.5317  0.7146
 6494TIP3    H143677   3.179   6.323  10.544  0.0980 -0.7846  1.6479
 6494TIP3    H243678   3.273   6.204  10.546 -0.7966 -1.5390  5.0085
 6495TIP3   OH243679   6.710   4.320   9.632 -0.6107 -0.1936  0.2149
 6495TIP3    H143680   6.660   4.395   9.664  0.9037  0.8118  0.2870
 6495TIP3    H243681   6.678   4.246   9.684 -1.8173  0.4620  0.4371
 6496TIP3   OH243682   3.360   5.557   9.056 -0.0361 -0.1177  0.1807
 6496TIP3    H143683   3.327   5.540   9.144  1.7962  0.6305  1.0587
 6496TIP3    H243684   3.325   5.644   9.034 -0.2445 -0.1716  0.3010
 6497TIP3   OH243685   3.047   0.968   9.093  0.3439  0.6533  0.0319
 6497TIP3    H143686   3.138   0.942   9.111 -0.1082 -1.0982 -0.0425
 6497TIP3    H243687   3.033   1.045   9.148  1.5787  0.3792  0.7736
 6498TIP3   OH243688   6.313   5.548   9.282  0.3338 -0.0606  0.2075
 6498TIP3    H143689   6.392   5.515   9.326  0.3590  0.2669  0.4137
 6498TIP3    H243690   6.309   5.500   9.200  1.2868  0.6083 -0.2543
 6499TIP3   OH243691   8.365   7.486   9.270 -0.0368 -0.0235  0.0465
 6499TIP3    H143692   8.458   7.467   9.269 -0.0883 -0.2873  0.2227
 6499TIP3    H243693   8.358   7.573   9.233  0.0856 -0.8992 -2.2033
 6500TIP3   OH243694   2.751   6.133  10.042 -0.1684 -0.1638 -0.3355
 6500TIP3    H143695   2.700   6.132  10.124 -0.7677 -0.6317 -0.7033
 6500TIP3    H243696   2.768   6.041  10.024  0.4528 -0.0287 -0.4414
 6501TIP3   OH243697   4.919   6.028  10.211 -0.3496  0.7816  0.1229
 6501TIP3    H143698   4.881   6.105  10.253 -0.8977  0.1708  0.7830
 6501TIP3    H243699   4.875   5.954  10.253  1.0592  0.0669  0.3973
 6502TIP3   OH243700   0.443   4.574   8.938 -0.6174 -0.1314  0.0046
 6502TIP3    H143701   0.457   4.504   8.875  1.1187  0.6390 -0.5218
 6502TIP3    H243702   0.378   4.538   8.999 -1.8255 -1.1441 -1.7756
 6503TIP3   OH243703   4.721   2.803   8.804  0.1954 -0.2770 -0.0012
 6503TIP3    H143704   4.656   2.787   8.736  1.6025 -0.7203 -1.2936
 6503TIP3    H243705   4.669   2.811   8.884 -1.4133 -1.0822 -0.8937
 6504TIP3   OH243706   4.681   0.941   8.682 -0.3900  0.4525  0.1151
 6504TIP3    H143707   4.733   0.903   8.611  0.3381  1.6764 -0.0393
 6504TIP3    H243708   4.742   0.945   8.756 -1.0423 -0.4892  0.7202
 6505TIP3   OH243709   7.259   0.156  10.214 -0.1080  0.2340  0.4630
 6505TIP3    H143710   7.264   0.204  10.131  2.7866 -0.9368 -0.1632
 6505TIP3    H243711   7.300   0.215  10.278  1.7688 -0.5924  0.0725
 6506TIP3   OH243712   5.295   0.745  10.835  0.1800  0.4279 -0.1904
 6506TIP3    H143713   5.388   0.764  10.851 -0.1625  1.1023  1.2416
 6506TIP3    H243714   5.272   0.799  10.760  0.3301  2.3851  1.0851
 6507TIP3   OH243715   4.286   3.045   8.460 -0.9387  0.1275 -0.4466
 6507TIP3    H143716   4.234   3.023   8.538  0.9014 -1.1316  0.4820
 6507TIP3    H243717   4.233   3.014   8.387 -0.2098 -4.2493  0.6043
 6508TIP3   OH243718   2.235   3.319  10.052 -0.4854 -0.3128 -0.5021
 6508TIP3    H143719   2.291   3.255  10.095 -1.1664 -0.8933 -0.4543
 6508TIP3    H243720   2.243   3.398  10.105  0.6995 -0.2084 -0.8082
 6509TIP3   OH243721   4.963   3.384  10.269  1.0389  0.3367 -0.4146
 6509TIP3    H143722   4.971   3.381  10.174 -0.6455 -0.7111 -0.5612
 6509TIP3    H243723   5.034   3.327  10.300  2.3131  1.5800 -0.9519
 6510TIP3   OH243724   3.671   7.344  10.626 -0.1236  0.9857 -0.0631
 6510TIP3    H143725   3.580   7.367  10.609 -1.2816 -1.2371  2.5314
 6510TIP3    H243726   3.694   7.390  10.707  0.9396  1.1820 -0.4516
 6511TIP3   OH243727   6.467   7.373  10.903 -0.2991 -0.3606 -0.3468
 6511TIP3    H143728   6.412   7.299  10.876 -0.1122 -1.1031  1.1900
 6511TIP3    H243729   6.549   7.360  10.855 -1.1839  0.3976 -2.1609
 6512TIP3   OH243730   6.904   6.976  10.959  0.1895  0.1799  0.1696
 6512TIP3    H143731   6.961   7.036  11.007  0.5986  0.9340 -1.1990
 6512TIP3    H243732   6.816   7.005  10.980  0.3843  1.5966 -0.8209
 6513TIP3   OH243733   0.217   7.204   9.549 -0.2566 -0.0812 -0.2326
 6513TIP3    H143734   0.268   7.258   9.609 -0.2917 -0.4499  0.1334
 6513TIP3    H243735   0.128   7.239   9.556 -0.2177  0.0223 -0.2456
 6514TIP3   OH243736   3.063   2.578  10.479  0.5739  0.2541  0.4087
 6514TIP3    H143737   2.992   2.580  10.415  0.8538  2.9434  0.0731
 6514TIP3    H243738   3.102   2.491  10.469 -2.5012 -1.2944  0.5162
 6515TIP3   OH243739   2.145   5.303   9.759  0.0945 -0.4083 -0.9527
 6515TIP3    H143740   2.114   5.237   9.820  1.6136  0.0071  0.3352
 6515TIP3    H243741   2.193   5.365   9.813 -1.4437  1.9191 -2.0749
 6516TIP3   OH243742   7.795   4.604   9.742  0.2419  0.4288 -0.2249
 6516TIP3    H143743   7.808   4.686   9.791 -0.5651  0.1810  0.4309
 6516TIP3    H243744   7.703   4.581   9.758 -0.2478  0.6772 -2.4076
 6517TIP3   OH243745   3.564   7.299   9.754 -0.0292 -0.3629  0.1832
 6517TIP3    H143746   3.474   7.274   9.734  0.3006 -0.0908 -1.7844
 6517TIP3    H243747   3.600   7.223   9.801 -1.3886 -0.2913  1.4036
 6518TIP3   OH243748   0.869   5.847   8.808  0.3181 -0.2275 -0.1005
 6518TIP3    H143749   0.913   5.932   8.803  0.2228 -0.0608  1.4749
 6518TIP3    H243750   0.776   5.868   8.804 -0.2035  0.5553  6.1526
 6519TIP3   OH243751   2.155   8.442   9.568 -0.1184 -0.0932 -0.4656
 6519TIP3    H143752   2.131   8.535   9.558  0.4813  0.0887 -0.2637
 6519TIP3    H243753   2.073   8.399   9.590 -0.5093  0.2992 -1.1272
 6520TIP3   OH243754   2.329   2.174   9.022 -0.1948  0.8533 -0.3254
 6520TIP3    H143755   2.309   2.193   9.114 -1.0425  0.4273 -0.4134
 6520TIP3    H243756   2.287   2.245   8.973 -0.0516  0.8789 -0.4133
 6521TIP3   OH243757   2.033   0.905  10.409  0.1344 -0.1263  0.0028
 6521TIP3    H143758   2.100   0.965  10.442 -0.0719 -0.4687  1.0812
 6521TIP3    H243759   1.968   0.963  10.368  1.2013  0.1865 -1.3064
 6522TIP3   OH243760   3.094   5.818   9.203  0.9115  0.1506 -0.2561
 6522TIP3    H143761   3.003   5.826   9.173  1.1574  1.6921 -0.6606
 6522TIP3    H243762   3.145   5.813   9.123  1.3298  1.2990 -0.0778
 6523TIP3   OH243763   2.668   0.499   9.894 -0.0093 -0.2238  0.3505
 6523TIP3    H143764   2.712   0.425   9.936 -0.2776 -0.5657  0.0413
 6523TIP3    H243765   2.688   0.488   9.801  0.8762  0.7269  0.4134
 6524TIP3   OH243766   2.073   7.097   8.366 -0.1026 -0.0556  0.2377
 6524TIP3    H143767   2.096   7.133   8.452 -1.4268  1.1900  0.1255
 6524TIP3    H243768   1.985   7.062   8.378  0.4058 -1.5396 -0.1744
 6525TIP3   OH243769   2.290   7.523   9.440  0.0366 -0.5198  0.2820
 6525TIP3    H143770   2.281   7.534   9.346 -0.0259  1.0117  0.4395
 6525TIP3    H243771   2.362   7.581   9.465 -1.4719  0.9719  1.4631
 6526TIP3   OH243772   3.678   1.641  10.371 -0.0165 -0.0730  0.0703
 6526TIP3    H143773   3.632   1.581  10.312  0.3011  0.2517 -0.5181
 6526TIP3    H243774   3.731   1.584  10.427  0.1031 -0.3546 -0.3274
 6527TIP3   OH243775   2.922   1.596   8.939 -0.0879  0.0373  0.4968
 6527TIP3    H143776   2.848   1.638   8.983  0.9169  0.6056  1.7041
 6527TIP3    H243777   2.964   1.543   9.006  0.9333  0.1804 -0.0048
 6528TIP3   OH243778   6.275   1.950   9.268  0.4920  0.2899 -0.5615
 6528TIP3    H143779   6.320   2.025   9.230 -0.7823  0.9140 -0.9179
 6528TIP3    H243780   6.196   1.988   9.307 -0.1952 -0.8642 -0.7837
 6529TIP3   OH243781   3.195   5.387  10.986  0.7278  0.0845  0.0493
 6529TIP3    H143782   3.184   5.298  11.019  1.5489  0.9593  2.8946
 6529TIP3    H243783   3.131   5.439  11.035  0.9319  1.2351 -0.8631
 6530TIP3   OH243784   0.808   2.443   9.696  0.3949 -0.1445  0.5175
 6530TIP3    H143785   0.885   2.393   9.672  0.1841 -0.1260 -0.2204
 6530TIP3    H243786   0.757   2.385   9.752 -0.8594 -1.5736 -1.9610
 6531TIP3   OH243787   4.513   6.000   9.569 -0.5882 -0.0236 -0.3612
 6531TIP3    H143788   4.578   5.980   9.635  0.1536  2.8863 -0.0773
 6531TIP3    H243789   4.541   5.950   9.492  1.9216  0.9425 -0.1812
 6532TIP3   OH243790   7.034   7.707  10.004  0.2300 -0.0147  0.0263
 6532TIP3    H143791   6.944   7.737  10.019  0.6017 -0.1899  3.3404
 6532TIP3    H243792   7.033   7.616  10.033  1.5026  0.0290  0.2573
 6533TIP3   OH243793   6.081   1.942  10.137 -0.0033 -0.3346  0.0523
 6533TIP3    H143794   6.090   1.905  10.225  0.2423  0.2501  0.2772
 6533TIP3    H243795   6.153   1.902  10.088  0.5917  0.2305  0.4359
 6534TIP3   OH243796   3.738   1.180  10.501 -0.4908  0.2096  0.2446
 6534TIP3    H143797   3.725   1.119  10.573 -1.2111  1.1780  0.9493
 6534TIP3    H243798   3.833   1.197  10.501 -0.0547 -1.9337 -0.8440
 6535TIP3   OH243799   1.334   5.297  10.645  0.1931  0.2906 -0.0824
 6535TIP3    H143800   1.332   5.268  10.554  1.1604 -0.5266  0.1351
 6535TIP3    H243801   1.245   5.283  10.678 -0.4116  1.4820 -1.1546
 6536TIP3   OH243802   0.780   4.018   9.825 -0.3243  0.2011  0.2259
 6536TIP3    H143803   0.787   4.024   9.729 -0.9107 -1.8429  0.0064
 6536TIP3    H243804   0.687   4.008   9.842 -0.5752  3.2644  1.2949
 6537TIP3   OH243805   7.001   5.552   9.167 -0.0637  0.0205  0.4253
 6537TIP3    H143806   7.085   5.511   9.145 -1.0301 -1.0067 -1.5378
 6537TIP3    H243807   6.966   5.499   9.239  1.0991  0.7133  1.5633
 6538TIP3   OH243808   0.701   0.654   9.265  0.2040 -0.0147 -0.3109
 6538TIP3    H143809   0.779   0.687   9.221 -0.4242  2.0053  0.0156
 6538TIP3    H243810   0.640   0.634   9.194 -0.2955  1.8941 -0.4543
 6539TIP3   OH243811   2.810   6.171   8.763 -0.6395 -0.2068 -0.6835
 6539TIP3    H143812   2.839   6.256   8.730  2.3325 -0.7450  0.1900
 6539TIP3    H243813   2.720   6.163   8.734 -1.8665  4.2282  1.1128
 6540TIP3   OH243814   5.493   1.217   9.520  0.1684  0.2375 -0.8292
 6540TIP3    H143815   5.575   1.168   9.513 -0.2254 -0.5833  0.0518
 6540TIP3    H243816   5.428   1.162   9.476 -0.3418 -0.2191  0.4562
 6541TIP3   OH243817   3.549   4.272   9.310  0.2077  0.1365  0.7015
 6541TIP3    H143818   3.481   4.330   9.274  0.7624 -0.4619 -1.4636
 6541TIP3    H243819   3.623   4.281   9.250  1.0598 -1.2759  1.4776
 6542TIP3   OH243820   8.076   6.079  10.217  0.8798  0.2973  0.3460
 6542TIP3    H143821   8.022   6.010  10.178  0.7648  0.7580 -0.3383
 6542TIP3    H243822   8.037   6.161  10.185  1.1292  0.6761  0.9861
 6543TIP3   OH243823   7.720   3.629  11.075  0.3592 -0.2000 -0.4482
 6543TIP3    H143824   7.676   3.713  11.057 -0.5508 -0.2520  1.2933
 6543TIP3    H243825   7.791   3.652  11.134  0.4978 -0.5817 -0.4670
 6544TIP3   OH243826   5.484   2.995  10.842  0.3970  0.7377 -0.4438
 6544TIP3    H143827   5.453   3.060  10.779 -0.0774  1.7395  0.7815
 6544TIP3    H243828   5.570   3.028  10.870  1.2896 -0.4772 -1.6241
 6545TIP3   OH243829   3.096   3.917  10.113 -0.0071  0.3534  0.3633
 6545TIP3    H143830   3.047   3.887  10.036 -0.0333  0.4031  0.3605
 6545TIP3    H243831   3.074   4.010  10.120  1.5769  0.8358 -0.7509
 6546TIP3   OH243832   0.187   7.554   9.552 -0.1887 -0.2507 -0.2743
 6546TIP3    H143833   0.163   7.518   9.638 -1.4625 -1.3199 -1.0335
 6546TIP3    H243834   0.134   7.504   9.490  2.7083 -1.5013 -1.9691
 6547TIP3   OH243835   4.482   0.574  10.064 -0.2482  0.0657 -0.0738
 6547TIP3    H143836   4.420   0.536  10.126  0.5688 -1.7408 -0.2971
 6547TIP3    H243837   4.543   0.624  10.118  1.5368 -2.9363  0.9387
 6548TIP3   OH243838   6.204   4.235   9.406  0.3521 -0.2785 -0.0858
 6548TIP3    H143839   6.178   4.184   9.329 -1.4416  0.8617 -0.3113
 6548TIP3    H243840   6.275   4.185   9.445  0.2102 -1.7386 -1.5677
 6549TIP3   OH243841   6.975   7.452  10.758 -0.0811 -0.1583  0.9573
 6549TIP3    H143842   7.049   7.440  10.817  0.6061  0.0589  0.1610
 6549TIP3    H243843   6.960   7.546  10.757  0.5455 -0.0487  0.0590
 6550TIP3   OH243844   8.163   7.235  10.901  0.3196 -0.1315  0.4110
 6550TIP3    H143845   8.251   7.219  10.867  0.6772  0.3475  1.0837
 6550TIP3    H243846   8.128   7.305  10.845 -0.2714 -1.4294 -0.8940
 6551TIP3   OH243847   8.292   0.090  10.135  0.1243 -0.2532  0.4569
 6551TIP3    H143848   8.377   0.113  10.172 -0.1226 -1.8030  2.1485
 6551TIP3    H243849   8.296  -0.005  10.121 -1.4113 -0.4108  0.8673
 6552TIP3   OH243850   4.449   3.197   8.684  0.1265  0.1111 -0.6235
 6552TIP3    H143851   4.404   3.278   8.706  1.2361  0.5008  0.3043
 6552TIP3    H243852   4.389   3.151   8.625 -0.7178  1.3826 -0.7847
 6553TIP3   OH243853   0.425   8.423   9.823  0.1169 -0.1345  0.3150
 6553TIP3    H143854   0.367   8.371   9.768  0.5884 -1.2573  0.8457
 6553TIP3    H243855   0.474   8.478   9.761 -0.6210 -0.0857 -0.2311
 6554TIP3   OH243856   4.249   1.932   9.575  0.0847  0.4987 -0.1672
 6554TIP3    H143857   4.231   1.924   9.669  0.3041  2.5540  0.1055
 6554TIP3    H243858   4.338   1.966   9.571  0.3736 -0.3361 -1.1741
 6555TIP3   OH243859   4.985   4.914   8.773 -0.7448 -0.4684  0.4570
 6555TIP3    H143860   5.048   4.967   8.723 -1.2055 -0.3573 -0.0086
 6555TIP3    H243861   4.905   4.966   8.773 -1.2349 -1.2051 -0.0944
 6556TIP3   OH243862   7.275   0.331  10.929  0.0227  0.3069 -0.4628
 6556TIP3    H143863   7.215   0.286  10.989 -0.7039  0.0025 -1.3879
 6556TIP3    H243864   7.356   0.340  10.978 -0.6437  0.3192  0.6663
 6557TIP3   OH243865   1.797   8.112  10.542  0.0894  0.2697  0.7955
 6557TIP3    H143866   1.727   8.076  10.487  0.7735 -0.9681  0.6870
 6557TIP3    H243867   1.846   8.035  10.570  1.1680  1.0869  1.1977
 6558TIP3   OH243868   1.584   1.363   8.801 -0.1547  0.0968 -0.2981
 6558TIP3    H143869   1.515   1.427   8.815  0.2661  0.0824  2.3483
 6558TIP3    H243870   1.549   1.304   8.734 -1.8958  1.1546 -0.3725
 6559TIP3   OH243871   8.308   3.540   9.363  0.1998 -0.4873  0.0829
 6559TIP3    H143872   8.379   3.532   9.300  0.3197 -0.8229  0.2590
 6559TIP3    H243873   8.254   3.611   9.330 -0.7389 -1.8100 -1.3712
 6560TIP3   OH243874   0.867   5.126   9.160  0.4301 -0.1099 -0.4687
 6560TIP3    H143875   0.845   5.212   9.125 -0.0910 -0.2275 -0.4353
 6560TIP3    H243876   0.786   5.075   9.153  0.2976 -0.1360  0.8842
 6561TIP3   OH243877   7.396   0.050  10.573 -0.2100  0.2005  0.4854
 6561TIP3    H143878   7.339  -0.005  10.627  0.2758  0.0472  0.8518
 6561TIP3    H243879   7.437  -0.012  10.513 -0.9606  0.4077 -0.2635
 6562TIP3   OH243880   6.888   4.127   9.879 -0.0291 -0.9370 -0.8395
 6562TIP3    H143881   6.916   4.121   9.788 -3.4585 -1.6164 -2.0195
 6562TIP3    H243882   6.850   4.041   9.899 -0.0319 -0.5636  0.9899
 6563TIP3   OH243883   5.612   1.687   8.809  0.0033  0.3906 -0.5010
 6563TIP3    H143884   5.520   1.715   8.806  0.1119  1.1997  1.8419
 6563TIP3    H243885   5.625   1.658   8.899  1.5980 -1.4558 -1.2680
 6564TIP3   OH243886   0.016   7.510  10.007 -0.3078 -0.1164 -0.0060
 6564TIP3    H143887   0.035   7.464   9.925 -0.3116  0.7424 -0.5013
 6564TIP3    H243888  -0.041   7.451  10.056 -1.6098  0.0323 -1.3065
 6565TIP3   OH243889   8.183   7.631  10.120 -0.3142 -0.0339 -0.8102
 6565TIP3    H143890   8.113   7.574  10.088 -0.6220  0.2171 -0.5890
 6565TIP3    H243891   8.232   7.656  10.042 -1.6732  1.4141 -1.2528
 6566TIP3   OH243892   5.137   7.033   9.828 -0.2499  0.0794  0.1360
 6566TIP3    H143893   5.216   7.013   9.878  0.4978  0.2729 -0.9237
 6566TIP3    H243894   5.167   7.093   9.759 -1.2211 -0.2223 -0.5729
 6567TIP3   OH243895   0.174   5.531  10.564  0.4290  0.0718 -0.2465
 6567TIP3    H143896   0.088   5.567  10.546  0.7258  0.4414 -0.9679
 6567TIP3    H243897   0.234   5.604  10.551  0.7490  0.1562  1.5165
 6568TIP3   OH243898   7.096   4.739  10.151  0.1579  0.2675 -0.3545
 6568TIP3    H143899   7.117   4.663  10.206  0.3137  1.3406  1.1377
 6568TIP3    H243900   7.000   4.744  10.153  0.1779  0.5561  0.2124
 6569TIP3   OH243901   7.876   6.411   8.712 -0.0808  0.2973  0.2709
 6569TIP3    H143902   7.790   6.372   8.727  0.4193 -0.6210  0.8582
 6569TIP3    H243903   7.869   6.500   8.748  0.2402 -0.9172  3.7349
 6570TIP3   OH243904   5.880   1.197  10.432  0.2468 -0.1825 -0.0939
 6570TIP3    H143905   5.850   1.140  10.504  0.4475 -0.2932 -0.0980
 6570TIP3    H243906   5.894   1.137  10.359 -0.6179  0.0144 -0.4364
 6571TIP3   OH243907   5.921   6.033  10.363  0.4568 -0.0952 -0.0712
 6571TIP3    H143908   5.856   6.098  10.338  0.5799  0.8798  1.9099
 6571TIP3    H243909   5.984   6.082  10.416  1.1125 -1.6257  0.6118
 6572TIP3   OH243910   3.828   8.036   9.542 -0.0019  0.1174  0.1323
 6572TIP3    H143911   3.834   7.950   9.502  0.0672  0.0757  0.2330
 6572TIP3    H243912   3.832   8.097   9.468  1.6933  0.1058  0.1740
 6573TIP3   OH243913   1.245   2.863   9.128  0.0443 -0.2073 -0.0034
 6573TIP3    H143914   1.170   2.817   9.164 -1.3843  0.2114 -2.2150
 6573TIP3    H243915   1.264   2.818   9.046 -1.0174  2.5764 -1.9469
 6574TIP3   OH243916   7.012   1.843   8.978  0.2195 -0.0250 -0.1272
 6574TIP3    H143917   6.976   1.813   9.061 -1.9385  2.3510 -0.0560
 6574TIP3    H243918   7.034   1.763   8.930 -0.9694 -1.5144  1.6945
 6575TIP3   OH243919   3.078   7.512   9.765  0.6570  0.4572 -0.1578
 6575TIP3    H143920   3.049   7.524   9.856 -0.8683  1.4312 -0.7479
 6575TIP3    H243921   3.172   7.526   9.768  0.4247  1.9518  1.0355
 6576TIP3   OH243922   5.545   6.337  10.156  0.1836 -0.4231 -0.1148
 6576TIP3    H143923   5.487   6.262  10.144 -0.7049  0.2770 -0.3213
 6576TIP3    H243924   5.546   6.380  10.070 -0.9774  0.9424  0.5025
 6577TIP3   OH243925   1.867   5.330   9.471 -0.5786  0.0504 -0.5324
 6577TIP3    H143926   1.957   5.296   9.471 -0.6343 -0.1071 -1.0711
 6577TIP3    H243927   1.824   5.283   9.541  0.4196  1.9364  1.4679
 6578TIP3   OH243928   2.469   5.481   8.907 -0.0592  0.3303  0.2087
 6578TIP3    H143929   2.474   5.481   9.003 -1.6002  0.6891  0.3232
 6578TIP3    H243930   2.461   5.389   8.883  0.9897  0.1878  0.3617
 6579TIP3   OH243931   5.584   6.953   9.515  0.0541  0.2659 -0.3820
 6579TIP3    H143932   5.654   6.981   9.574 -0.2448 -2.0251  1.1750
 6579TIP3    H243933   5.613   6.870   9.479 -0.8173  0.4770 -1.6436
 6580TIP3   OH243934   7.771   3.419  10.058 -0.4695 -0.1479  0.0015
 6580TIP3    H143935   7.728   3.355  10.115  0.1237 -1.4827 -0.9759
 6580TIP3    H243936   7.720   3.415   9.977 -1.0777  1.4478  0.2758
 6581TIP3   OH243937   5.006   0.219  10.828  0.3621 -0.2452  0.2038
 6581TIP3    H143938   4.928   0.173  10.796 -0.5804  2.7094 -2.2473
 6581TIP3    H243939   5.077   0.155  10.817 -0.9018 -1.3514 -2.5953
 6582TIP3   OH243940   6.762   0.569   9.188 -0.5703 -0.2884 -0.2033
 6582TIP3    H143941   6.770   0.597   9.097  0.4309  2.1357  0.5476
 6582TIP3    H243942   6.832   0.505   9.201 -0.6580 -0.5669 -1.0807
 6583TIP3   OH243943   1.381   5.487   9.990  0.2567  0.2398  0.2016
 6583TIP3    H143944   1.299   5.466  10.035 -0.0499  0.3166 -0.3021
 6583TIP3    H243945   1.449   5.477  10.056 -0.0942 -0.4127  0.4696
 6584TIP3   OH243946   6.363   1.118   9.103 -0.2491 -0.5268 -0.6548
 6584TIP3    H143947   6.294   1.154   9.047  0.4928 -0.8590 -1.8184
 6584TIP3    H243948   6.406   1.195   9.141 -1.0035 -0.3099 -0.2301
 6585TIP3   OH243949   5.281   3.885   9.092 -0.0946 -0.0055  0.0398
 6585TIP3    H143950   5.293   3.980   9.096 -2.5123  0.3212  1.3800
 6585TIP3    H243951   5.190   3.873   9.065  0.2651 -1.9654 -0.4494
 6586TIP3   OH243952   6.780   5.480  10.523 -0.0650 -0.8857  0.9102
 6586TIP3    H143953   6.805   5.388  10.511 -1.7325 -1.5041  1.8856
 6586TIP3    H243954   6.720   5.499  10.451 -0.9047 -1.0308  1.5657
 6587TIP3   OH243955   4.202   2.697  11.163 -0.4144 -0.2508 -0.2542
 6587TIP3    H143956   4.264   2.758  11.124 -0.3719 -0.0741  0.0857
 6587TIP3    H243957   4.141   2.676  11.092 -0.3225  0.0447 -0.4204
 6588TIP3   OH243958   1.574   2.299   9.704  0.4621  0.4291  0.3995
 6588TIP3    H143959   1.596   2.294   9.797  0.9493 -1.0799  0.2303
 6588TIP3    H243960   1.656   2.281   9.659 -0.2369 -1.2525 -0.2722
 6589TIP3   OH243961   6.805   3.288   9.945  0.0693 -0.0741 -0.1205
 6589TIP3    H143962   6.719   3.321   9.920  0.0023  0.7476  1.0900
 6589TIP3    H243963   6.789   3.237  10.025  0.7540  0.4966  0.4030
 6590TIP3   OH243964   7.759   7.090  10.730  0.1986  0.2662  0.1616
 6590TIP3    H143965   7.689   7.040  10.688  0.2078  0.8753 -0.6097
 6590TIP3    H243966   7.755   7.176  10.688  0.2439  0.8886  1.3935
 6591TIP3   OH243967   2.742   7.388   8.493  0.5262  0.6448  0.3092
 6591TIP3    H143968   2.744   7.299   8.528 -0.8224  1.3647  2.3752
 6591TIP3    H243969   2.823   7.428   8.524  1.0170  0.2411 -0.4163
 6592TIP3   OH243970   0.993   3.191  10.165 -0.2195  0.2350 -0.2213
 6592TIP3    H143971   0.923   3.169  10.103  0.7970 -0.5979 -1.1080
 6592TIP3    H243972   1.064   3.225  10.110  0.8121 -0.7833  0.4360
 6593TIP3   OH243973   6.863   4.361  10.006  0.2335  0.3368  0.2161
 6593TIP3    H143974   6.860   4.283   9.951 -1.6668  0.7355 -0.3084
 6593TIP3    H243975   6.955   4.368  10.032  1.1650 -0.0898 -2.5989
 6594TIP3   OH243976   3.207   4.700   9.113 -0.1300  0.4856 -0.3243
 6594TIP3    H143977   3.128   4.725   9.065 -0.2329  1.6337  0.4237
 6594TIP3    H243978   3.194   4.607   9.134 -0.6488  0.3016 -1.3830
 6595TIP3   OH243979   4.937   6.336   9.553  0.2752  0.4373  0.1120
 6595TIP3    H143980   4.967   6.334   9.644 -0.9820 -0.2243  0.5362
 6595TIP3    H243981   5.017   6.341   9.502  1.0562 -0.0406  1.2336
 6596TIP3   OH243982   4.303   5.587   9.714  0.0717 -0.1599 -0.4786
 6596TIP3    H143983   4.344   5.645   9.649 -0.0717 -0.1140 -0.5284
 6596TIP3    H243984   4.209   5.597   9.699 -0.0262  1.1044  0.8088
 6597TIP3   OH243985   8.255   4.685  10.546 -0.3582  0.0619 -0.5796
 6597TIP3    H143986   8.258   4.594  10.517  0.4463 -0.1307  0.0681
 6597TIP3    H243987   8.179   4.689  10.605  1.7289 -1.1723  2.4157
 6598TIP3   OH243988   2.571   7.511   8.989 -0.2247 -0.2315 -0.2004
 6598TIP3    H143989   2.581   7.509   8.894 -1.7984  1.0385 -0.4334
 6598TIP3    H243990   2.658   7.533   9.022  0.1554  0.1054 -1.3943
 6599TIP3   OH243991   6.639   7.497  11.095 -0.0078  0.0183 -0.1119
 6599TIP3    H143992   6.671   7.539  11.014  1.3962 -1.3379 -0.3059
 6599TIP3    H243993   6.565   7.444  11.067  0.8407 -0.9151 -0.6521
 6600TIP3   OH243994   4.481   3.239  10.230 -0.0264  0.1550  0.1151
 6600TIP3    H143995   4.458   3.325  10.195 -2.0539 -0.6531 -0.6521
 6600TIP3    H243996   4.399   3.190  10.231  0.4888 -0.8974  3.2061
 6601TIP3   OH243997   4.568   4.935   9.654  0.0038  1.0357  0.3529
 6601TIP3    H143998   4.606   4.859   9.697 -2.2347 -0.5701 -0.3616
 6601TIP3    H243999   4.558   5.000   9.724 -1.5977 -0.7482  1.8895
 6602TIP3   OH244000   6.469   0.852  10.585  0.0078  0.7417 -0.1396
 6602TIP3    H144001   6.557   0.889  10.590  0.5700 -0.3169 -1.4361
 6602TIP3    H244002   6.484   0.758  10.569 -1.3547  0.1822  1.5652
 6603TIP3   OH244003   7.977   7.710   9.229  0.1775 -0.2654 -0.2306
 6603TIP3    H144004   7.929   7.781   9.273  1.6374 -0.2561  1.4553
 6603TIP3    H244005   7.958   7.633   9.281  0.1759 -0.7279 -0.9073
 6604TIP3   OH244006   3.303   5.484   9.347 -0.8525 -0.3072 -0.0343
 6604TIP3    H144007   3.247   5.437   9.408 -0.6075  0.0203  0.4518
 6604TIP3    H244008   3.374   5.422   9.327  0.0626  0.2024  1.4509
 6605TIP3   OH244009   1.622   6.525   9.305 -0.2382 -0.1692 -0.2888
 6605TIP3    H144010   1.646   6.433   9.310  1.3296  0.2507  0.5437
 6605TIP3    H244011   1.675   6.568   9.372 -1.4107  1.2576 -0.2062
 6606TIP3   OH244012   2.642   7.022   9.710  0.4898  0.5634  0.7307
 6606TIP3    H144013   2.648   7.015   9.806  2.8625 -1.8451  0.5444
 6606TIP3    H244014   2.632   6.932   9.680  2.0616  0.9982 -1.3452
 6607TIP3   OH244015   7.496   4.974  10.940  0.4885 -0.5351 -0.0639
 6607TIP3    H144016   7.456   4.887  10.941 -0.1344 -0.2733 -0.9523
 6607TIP3    H244017   7.546   4.978  11.022 -0.0540 -1.4528  0.3350
 6608TIP3   OH244018   6.179   0.762  10.203  0.0681 -0.2165  0.0381
 6608TIP3    H144019   6.228   0.735  10.281 -0.8428  1.5140  1.2801
 6608TIP3    H244020   6.200   0.855  10.194  0.3708 -0.4402 -1.9876
 6609TIP3   OH244021   2.142   7.543   8.690 -0.9122 -0.1459 -0.0717
 6609TIP3    H144022   2.192   7.473   8.649 -1.1844 -1.0393  1.0757
 6609TIP3    H244023   2.056   7.504   8.707 -1.4158  0.8034 -0.3642
 6610TIP3   OH244024   1.551   7.868  14.725  0.4541  0.5842 -0.2832
 6610TIP3    H144025   1.583   7.781  14.751  2.1216  1.2412  0.0033
 6610TIP3    H244026   1.605   7.929  14.775 -0.7375  1.7926 -0.4349
 6611TIP3   OH244027   1.664   5.755   9.592 -0.1533  0.0594 -0.4217
 6611TIP3    H144028   1.583   5.791   9.628  0.2822 -1.0419  1.8449
 6611TIP3    H244029   1.645   5.662   9.577  0.5282 -0.1074 -0.3229
 6612TIP3   OH244030   0.443   5.810   9.480 -0.0197  0.1633  0.4988
 6612TIP3    H144031   0.478   5.744   9.420 -0.3697  0.6570 -0.2620
 6612TIP3    H244032   0.360   5.773   9.509 -0.0983  0.1502  0.2665
 6613TIP3   OH244033   5.778   6.496   9.173 -0.4184  0.4542 -0.3346
 6613TIP3    H144034   5.799   6.406   9.199  2.3461  1.3657  1.0301
 6613TIP3    H244035   5.688   6.509   9.202 -0.1207 -1.1753  1.5724
 6614TIP3   OH244036   5.840   5.796  10.194 -0.5557  0.8859 -0.1658
 6614TIP3    H144037   5.932   5.769  10.197 -0.7762  0.0983 -0.3380
 6614TIP3    H244038   5.827   5.828  10.105 -0.8481 -0.4890 -0.6350
 6615TIP3   OH244039   0.207   1.885   9.584 -0.1576  0.2965 -0.5702
 6615TIP3    H144040   0.194   1.947   9.655 -1.3283 -1.4062  0.8005
 6615TIP3    H244041   0.119   1.871   9.548 -0.2647 -1.9593  0.4337
 6616TIP3   OH244042   1.439   1.085   9.998  0.4987 -0.0678  0.0955
 6616TIP3    H144043   1.387   1.028   9.942 -1.2766 -0.7889  2.3130
 6616TIP3    H244044   1.379   1.110  10.069  2.4240  1.2509  1.3613
 6617TIP3   OH244045   2.748   6.849   8.929  0.3319  0.1035  0.6211
 6617TIP3    H144046   2.698   6.901   8.991 -0.6381  0.5392 -0.4722
 6617TIP3    H244047   2.701   6.859   8.846  1.3756 -0.7360 -0.1102
 6618TIP3   OH244048   0.591   1.182   8.616  0.0742 -0.0798  0.5916
 6618TIP3    H144049   0.558   1.148   8.699 -0.3298 -2.4010 -0.4502
 6618TIP3    H244050   0.536   1.140   8.550  1.5263  0.3413 -0.9358
 6619TIP3   OH244051   7.191   6.718  10.175  0.2121 -0.2840  0.0718
 6619TIP3    H144052   7.258   6.716  10.107  0.0829 -0.9648 -0.0474
 6619TIP3    H244053   7.239   6.725  10.257  0.5871 -2.7545  0.1492
 6620TIP3   OH244054   1.682   7.228   9.636  0.9584  0.3307 -0.1396
 6620TIP3    H144055   1.701   7.134   9.629  2.5894  0.5355  0.9301
 6620TIP3    H244056   1.767   7.269   9.650  0.3078  2.0246 -0.8915
 6621TIP3   OH244057   3.566   5.901   9.235 -0.2754 -0.0009  0.0468
 6621TIP3    H144058   3.568   5.821   9.287 -0.0192  1.2337  2.0502
 6621TIP3    H244059   3.658   5.921   9.217 -0.2463  0.4858  0.6676
 6622TIP3   OH244060   1.809   7.114   9.208  0.5525 -0.2027 -0.1405
 6622TIP3    H144061   1.775   7.132   9.120 -0.5794  1.1050  0.5251
 6622TIP3    H244062   1.742   7.149   9.267  1.1896 -1.2413  1.2585
 6623TIP3   OH244063   4.301   4.910   9.064 -0.2710  0.0774  0.1315
 6623TIP3    H144064   4.303   4.824   9.105  0.3009  0.0383  0.0252
 6623TIP3    H244065   4.322   4.971   9.135 -0.2188  0.0933  0.1018
 6624TIP3   OH244066   5.619   5.574   9.207  0.2121 -0.7543 -0.7432
 6624TIP3    H144067   5.574   5.629   9.143 -1.6163 -0.3053  0.8059
 6624TIP3    H244068   5.569   5.587   9.288  2.1850 -1.5683  0.6940
 6625TIP3   OH244069   6.150   0.508   9.078 -0.4337  0.2928 -0.5415
 6625TIP3    H144070   6.153   0.491   8.984 -1.1808  0.8619 -0.6669
 6625TIP3    H244071   6.106   0.432   9.115 -4.8269  2.2191 -1.2266
 6626TIP3   OH244072   3.467   3.973  10.498 -0.1714 -0.1375 -0.1475
 6626TIP3    H144073   3.488   4.060  10.533 -3.0834  0.8766 -0.6794
 6626TIP3    H244074   3.547   3.947  10.451  0.9327  2.0500  0.3691
 6627TIP3   OH244075   3.299   6.879  10.210 -0.5159  0.0074 -0.0896
 6627TIP3    H144076   3.240   6.945  10.173 -0.8785  0.0531  0.5614
 6627TIP3    H244077   3.332   6.919  10.290 -0.9940 -0.7259  0.4870
 6628TIP3   OH244078   5.161   0.729  10.455  0.3384 -0.2670 -0.3086
 6628TIP3    H144079   5.225   0.726  10.384 -0.1031  1.2839 -0.7991
 6628TIP3    H244080   5.196   0.793  10.517 -1.0615  1.1859 -0.9490
 6629TIP3   OH244081   4.474   5.289  10.622  0.2416 -0.2525  0.3662
 6629TIP3    H144082   4.512   5.304  10.708  2.3803  0.4078 -0.6240
 6629TIP3    H244083   4.494   5.198  10.602  1.2776  0.0733 -0.1229
 6630TIP3   OH244084   2.866   2.647   8.879 -1.0276 -0.1053  0.4920
 6630TIP3    H144085   2.831   2.578   8.822 -1.1955  0.4747 -0.1182
 6630TIP3    H244086   2.863   2.609   8.967  2.7182 -2.4570 -0.1740
 6631TIP3   OH244087   7.570   7.873  10.758  0.4138  0.0314  0.2324
 6631TIP3    H144088   7.591   7.935  10.688 -0.1909 -1.1705 -1.0634
 6631TIP3    H244089   7.621   7.794  10.736 -0.0700 -0.4864  0.9342
 6632TIP3   OH244090   4.843   8.104  10.159 -0.0474 -0.1228 -0.6128
 6632TIP3    H144091   4.886   8.105  10.244  0.4009  2.5155 -0.7870
 6632TIP3    H244092   4.766   8.160  10.170 -0.3938 -0.3514 -1.7373
 6633TIP3   OH244093   4.526   6.222   9.393 -0.2735 -0.0968  0.8491
 6633TIP3    H144094   4.599   6.182   9.345 -2.0373 -2.1788 -0.2967
 6633TIP3    H244095   4.529   6.182   9.480  0.7776  0.9535  1.3248
 6634TIP3   OH244096   5.618   3.306   9.489  0.3194  0.1788 -0.0761
 6634TIP3    H144097   5.551   3.283   9.425 -2.5563 -2.6337  3.4848
 6634TIP3    H244098   5.608   3.400   9.502 -1.3366  0.2182 -1.3541
 6635TIP3   OH244099   1.623   5.101  10.816 -0.4494  0.0007  0.3550
 6635TIP3    H144100   1.657   5.016  10.846 -1.8298 -0.3294  1.0236
 6635TIP3    H244101   1.547   5.118  10.870 -0.7468  1.2404 -0.4054
 6636TIP3   OH244102   3.902   2.072  10.636 -0.1796 -0.1708 -0.4408
 6636TIP3    H144103   3.884   2.118  10.718  0.8740  0.8332 -0.7275
 6636TIP3    H244104   3.995   2.051  10.640 -0.2123 -0.5102 -1.1786
 6637TIP3   OH244105   2.277   2.539  10.569  0.3221  0.4186 -0.6869
 6637TIP3    H144106   2.229   2.475  10.515  0.7070 -0.2767 -0.2258
 6637TIP3    H244107   2.252   2.624  10.533 -1.7092  0.1252 -0.1377
 6638TIP3   OH244108   3.269   2.870  10.725 -0.1785 -0.1110  0.4227
 6638TIP3    H144109   3.359   2.903  10.718  0.9760 -2.7650  1.4238
 6638TIP3    H244110   3.235   2.876  10.636  0.1234  3.0063  0.4105
 6639TIP3   OH244111   0.978   4.361  10.784  0.2599 -0.1957 -0.4517
 6639TIP3    H144112   1.060   4.353  10.834  0.4136  0.4289 -0.5912
 6639TIP3    H244113   0.957   4.454  10.787  0.6121 -0.0300 -2.0794
 6640TIP3   OH244114   1.364   7.253  10.835  0.5149  0.1549  0.6219
 6640TIP3    H144115   1.417   7.329  10.811 -1.5782  1.6433  0.4135
 6640TIP3    H244116   1.411   7.211  10.907  0.7756  2.8352  2.1252
 6641TIP3   OH244117   6.278   0.940   8.911  0.4721 -0.3198 -0.4917
 6641TIP3    H144118   6.238   0.862   8.948  1.0961 -0.4972 -0.1810
 6641TIP3    H244119   6.312   0.988   8.987 -1.7430  1.3335 -0.4411
 6642TIP3   OH244120   7.458   7.296  10.231 -0.2075 -0.0012  0.8194
 6642TIP3    H144121   7.484   7.300  10.323 -2.0268 -0.0070  1.3865
 6642TIP3    H244122   7.413   7.379  10.215 -2.1612 -1.0126  0.7262
 6643TIP3   OH244123   0.310   3.438   9.519  0.0097  0.4054  0.7545
 6643TIP3    H144124   0.214   3.443   9.514 -0.2337 -3.2004 -2.0650
 6643TIP3    H244125   0.327   3.403   9.607 -1.3048  0.3574  1.0217
 6644TIP3   OH244126   7.376   6.609  10.783 -0.1340  0.0772  0.8105
 6644TIP3    H144127   7.471   6.605  10.788 -0.1672 -0.5829  1.0175
 6644TIP3    H244128   7.357   6.690  10.736  0.5306  0.1552  0.6786
 6645TIP3   OH244129   8.246   3.796   9.708  0.1494  0.1946  0.0371
 6645TIP3    H144130   8.188   3.802   9.784 -0.6022 -2.4871 -0.2485
 6645TIP3    H244131   8.309   3.728   9.731  0.7675  0.3139 -1.2271
 6646TIP3   OH244132   5.575   7.613   9.770 -0.3789  0.1946  0.6074
 6646TIP3    H144133   5.611   7.695   9.738  0.1820  0.5027  1.9490
 6646TIP3    H244134   5.484   7.633   9.791  0.1563  0.9634  2.4345
 6647TIP3   OH244135   1.846   5.225  10.712 -0.7871 -0.2676 -0.2929
 6647TIP3    H144136   1.815   5.310  10.741 -0.8948 -0.7728  1.1413
 6647TIP3    H244137   1.771   5.186  10.668 -0.4345  0.7584 -1.8722
 6648TIP3   OH244138   3.053   4.826   8.718 -0.2083  0.2861  0.3536
 6648TIP3    H144139   3.045   4.841   8.624 -1.6916  3.5531  0.8332
 6648TIP3    H244140   3.103   4.901   8.750  0.6360 -0.9820  2.1380
 6649TIP3   OH244141   1.320   4.467   9.709  0.1334  0.0887 -0.4841
 6649TIP3    H144142   1.372   4.390   9.730 -1.7698 -1.1734 -0.1246
 6649TIP3    H244143   1.289   4.499   9.794  2.1628  2.2798 -0.4603
 6650TIP3   OH244144   1.798   5.225   9.054 -0.2365  0.1673 -0.0003
 6650TIP3    H144145   1.858   5.164   9.098  0.5143  1.6764  1.1751
 6650TIP3    H244146   1.852   5.302   9.036 -0.7332 -0.0622 -2.9273
 6651TIP3   OH244147   4.324   1.425   9.727 -0.1625 -0.2674 -0.3198
 6651TIP3    H144148   4.294   1.343   9.689  0.1871 -1.0907  1.0899
 6651TIP3    H244149   4.395   1.399   9.786  2.1918  1.4025 -2.2292
 6652TIP3   OH244150   0.041   6.103   9.586 -0.0706 -0.3163 -0.0574
 6652TIP3    H144151   0.106   6.054   9.535  0.2386  0.1433 -0.1081
 6652TIP3    H244152   0.019   6.044   9.658 -0.5441 -0.9913 -0.7336
 6653TIP3   OH244153   6.617   7.162  10.380  0.3330  0.1240  0.5806
 6653TIP3    H144154   6.707   7.190  10.362 -0.0894  0.9090 -0.4494
 6653TIP3    H244155   6.615   7.144  10.474  1.3372  0.9750  0.7810
 6654TIP3   OH244156   3.362   4.616   9.906  0.0329 -0.5241 -0.2576
 6654TIP3    H144157   3.306   4.683   9.946  1.1272  0.4159 -0.2732
 6654TIP3    H244158   3.329   4.609   9.816 -0.2528 -0.1813 -0.1847
 6655TIP3   OH244159   1.763   3.903   8.728 -0.4015 -0.3186  0.1166
 6655TIP3    H144160   1.809   3.827   8.765 -0.5901  0.0421  1.1331
 6655TIP3    H244161   1.792   3.907   8.637  0.5681 -0.8841  0.3849
 6656TIP3   OH244162   4.011   2.358  10.193  0.4035 -0.6599  0.0624
 6656TIP3    H144163   3.996   2.266  10.215 -1.0248 -1.0338 -2.1653
 6656TIP3    H244164   3.924   2.393  10.174  1.2364  0.1035 -2.8152
 6657TIP3   OH244165   2.536   2.521  10.700  0.1594  0.1537 -0.0756
 6657TIP3    H144166   2.449   2.527  10.660  1.0672 -0.6897 -2.3185
 6657TIP3    H244167   2.532   2.582  10.773 -1.5593  1.9856 -1.5760
 6658TIP3   OH244168   2.262   5.232  10.179 -0.6695  0.4185 -0.2085
 6658TIP3    H144169   2.351   5.207  10.201 -0.8155  0.4922  0.4794
 6658TIP3    H244170   2.263   5.241  10.083  0.1107  0.6285 -0.1888
 6659TIP3   OH244171   6.288   6.425   9.447 -0.0378 -0.7329 -0.4520
 6659TIP3    H144172   6.285   6.520   9.455  0.4795 -0.7082 -0.5152
 6659TIP3    H244173   6.370   6.400   9.490 -1.9832 -1.5322  3.2407
 6660TIP3   OH244174   4.856   4.967   9.092 -0.0854 -0.1065 -0.5155
 6660TIP3    H144175   4.767   4.953   9.059  0.1146 -1.2124 -0.6338
 6660TIP3    H244176   4.845   5.009   9.177 -0.7400 -0.6442 -0.3297
 6661TIP3   OH244177   5.023   1.365  10.747 -0.1774 -0.1949 -0.0715
 6661TIP3    H144178   4.978   1.293  10.703 -0.7612 -0.1879  0.4979
 6661TIP3    H244179   4.953   1.413  10.791  0.3102  0.2311  0.2452
 6662TIP3   OH244180   1.487   1.388   9.674 -0.8303  0.1458  0.6232
 6662TIP3    H144181   1.450   1.355   9.591 -0.9196 -0.0115  0.7250
 6662TIP3    H244182   1.457   1.479   9.678 -0.6458  0.2206  0.3769
 6663TIP3   OH244183   5.742   7.668   9.268  0.1923 -0.8460 -0.0165
 6663TIP3    H144184   5.706   7.580   9.277  1.3877 -1.5350 -1.4854
 6663TIP3    H244185   5.688   7.710   9.201 -1.2684  0.0978  1.6596
 6664TIP3   OH244186   0.722   1.640   8.398 -0.2851  0.2709  0.1919
 6664TIP3    H144187   0.727   1.671   8.307 -2.5850  2.0366  0.5767
 6664TIP3    H244188   0.735   1.545   8.391  0.1911  0.4316 -1.9140
 6665TIP3   OH244189   4.728   0.504   9.900 -0.5103  0.3671 -0.1796
 6665TIP3    H144190   4.757   0.444   9.831 -1.7417  0.0135 -0.4186
 6665TIP3    H244191   4.798   0.502   9.965  1.1631  1.4743 -1.8450
 6666TIP3   OH244192   0.076   4.133   9.532  0.4588  0.2081  0.1953
 6666TIP3    H144193   0.054   4.196   9.464  1.4333  0.8037  0.4077
 6666TIP3    H244194   0.051   4.175   9.614  0.0644 -0.1603  0.2710
 6667TIP3   OH244195   5.765   8.209  10.651 -0.0030  0.8317  0.3547
 6667TIP3    H144196   5.808   8.294  10.653 -0.8091  1.2429  0.5404
 6667TIP3    H244197   5.704   8.210  10.725  0.0587  0.0549  0.4263
 6668TIP3   OH244198   1.422   0.087  10.220 -0.0628  0.0929  0.2762
 6668TIP3    H144199   1.415   0.142  10.298  0.2835  2.0079 -0.9873
 6668TIP3    H244200   1.336   0.093  10.178  0.4206  0.9023 -0.6351
 6669TIP3   OH244201   6.965   5.705  10.484  0.1535 -0.5487  0.6643
 6669TIP3    H144202   6.911   5.640  10.530 -1.6750  1.8740  2.1892
 6669TIP3    H244203   7.049   5.704  10.531  0.2193 -1.8766  0.5594
 6670TIP3   OH244204   4.058   8.097   9.200 -0.1541  0.4020 -0.0994
 6670TIP3    H144205   4.045   8.116   9.108  0.0419  1.7557  0.1317
 6670TIP3    H244206   4.145   8.057   9.205 -0.6866 -0.8910 -0.6284
 6671TIP3   OH244207   2.810   5.148  10.892 -0.2024 -0.0854 -0.0017
 6671TIP3    H144208   2.795   5.226  10.838 -0.6303 -0.5300 -0.5305
 6671TIP3    H244209   2.723   5.112  10.907  0.1824 -2.3940 -2.6546
 6672TIP3   OH244210   7.367   5.790   8.999 -0.4956 -0.2488 -0.2064
 6672TIP3    H144211   7.424   5.826   8.930  2.2519 -1.9036  1.0526
 6672TIP3    H244212   7.327   5.868   9.039 -1.0757  0.8362 -2.6723
 6673TIP3   OH244213   2.453   5.015  10.190 -0.0428 -0.8125 -0.7356
 6673TIP3    H144214   2.394   5.019  10.115 -1.0888  0.4854  0.1099
 6673TIP3    H244215   2.404   4.965  10.256  0.3404 -0.8519 -0.4807
 6674TIP3   OH244216   2.640   6.502   8.486  0.1124 -0.1811 -0.6259
 6674TIP3    H144217   2.716   6.456   8.523 -0.1851 -1.0483 -1.0605
 6674TIP3    H244218   2.608   6.443   8.418 -1.4487 -0.2024  0.0928
 6675TIP3   OH244219   8.116   1.923  10.273  0.6555  0.3178  0.2241
 6675TIP3    H144220   8.115   1.848  10.214  2.3384 -0.3605  0.9913
 6675TIP3    H244221   8.125   1.885  10.361 -1.0920  1.3284  0.8944
 6676TIP3   OH244222   1.174   3.983  10.855  0.3431  0.4334 -0.0586
 6676TIP3    H144223   1.086   3.977  10.893 -0.6010 -1.1727 -2.2549
 6676TIP3    H244224   1.232   3.946  10.922 -1.1543 -1.7468  0.1469
 6677TIP3   OH244225   4.293   3.553   9.258  0.2431  0.4646 -0.4934
 6677TIP3    H144226   4.330   3.493   9.193 -0.9882 -1.2570  0.3216
 6677TIP3    H244227   4.272   3.632   9.208 -0.3381 -0.6660 -2.1332
 6678TIP3   OH244228   8.298   3.734  10.326  0.1328  0.3208 -0.0272
 6678TIP3    H144229   8.326   3.684  10.250  1.8923  1.4726 -0.2015
 6678TIP3    H244230   8.310   3.675  10.400 -1.0146 -0.6029 -0.5544
 6679TIP3   OH244231   0.845   3.258  10.593 -0.2704  0.3272  0.0422
 6679TIP3    H144232   0.793   3.180  10.615 -1.7707  0.6029 -2.1495
 6679TIP3    H244233   0.823   3.322  10.661 -0.7738 -0.4350  0.6118
 6680TIP3   OH244234   6.119   5.853   9.713  0.0851  0.4367  0.5081
 6680TIP3    H144235   6.069   5.930   9.685 -0.2776 -0.3947 -1.3073
 6680TIP3    H244236   6.175   5.833   9.638 -0.0422 -1.2244  0.8065
 6681TIP3   OH244237   1.143   5.379  10.104 -0.1304  0.6085  0.4485
 6681TIP3    H144238   1.060   5.407  10.065 -0.4098 -1.0703 -0.2510
 6681TIP3    H244239   1.167   5.300  10.055  1.4695  0.5854  1.1928
 6682TIP3   OH244240   8.167   5.150  10.074 -0.1743 -0.1811 -0.1858
 6682TIP3    H144241   8.149   5.186   9.987  1.3793 -0.4810 -0.6510
 6682TIP3    H244242   8.196   5.225  10.126 -0.1937 -0.1694 -0.1923
 6683TIP3   OH244243   2.425   7.268   8.989 -0.1313 -0.4391  0.4890
 6683TIP3    H144244   2.450   7.360   8.998 -2.3139  0.3849 -1.0534
 6683TIP3    H244245   2.495   7.220   9.034  1.9715  1.8543 -0.0797
 6684TIP3   OH244246   5.395   7.028  10.160 -0.2326 -0.3883 -0.3835
 6684TIP3    H144247   5.373   6.953  10.215 -0.7045 -0.0142 -0.0495
 6684TIP3    H244248   5.414   6.990  10.074  0.1035 -0.9403 -0.0730
 6685TIP3   OH244249   6.263   5.139   9.876 -0.2236  0.1239  0.3955
 6685TIP3    H144250   6.240   5.151   9.784 -0.2302  0.6827  0.4694
 6685TIP3    H244251   6.241   5.222   9.917 -1.6122 -0.5903  1.1890
 6686TIP3   OH244252   5.057   7.540   9.769 -0.2225  0.4301  0.7885
 6686TIP3    H144253   4.971   7.527   9.731  0.6579 -1.2348 -0.7625
 6686TIP3    H244254   5.075   7.460   9.818  0.8981  0.2759  0.1477
 6687TIP3   OH244255   3.677   7.111   9.179 -0.2335 -0.6188  0.2112
 6687TIP3    H144256   3.750   7.142   9.126 -0.6981 -0.6239 -0.4526
 6687TIP3    H244257   3.697   7.019   9.196  0.6076 -0.2610  1.2529
 6688TIP3   OH244258   2.234   0.113  10.124 -0.3998  0.4534 -0.4180
 6688TIP3    H144259   2.142   0.138  10.126 -0.4919  0.1099  1.3992
 6688TIP3    H244260   2.281   0.192  10.153 -0.4346 -0.4034  2.1217
 6689TIP3   OH244261   0.564   3.663  10.093 -0.0917  0.9002  0.0155
 6689TIP3    H144262   0.580   3.724  10.165 -3.7367 -0.4387  2.2152
 6689TIP3    H244263   0.598   3.579  10.124 -1.6787  0.3170  0.2715
 6690TIP3   OH244264   6.987   5.642   9.923 -0.6118  0.0348 -0.0057
 6690TIP3    H144265   7.010   5.550   9.937 -0.5476  0.1178  0.4620
 6690TIP3    H244266   6.997   5.682  10.009 -0.7297  0.4615 -0.1886
 6691TIP3   OH244267   3.101   1.372   9.091  0.2617  0.7118  0.4398
 6691TIP3    H144268   3.123   1.336   9.005 -1.4694 -0.0080  0.2631
 6691TIP3    H244269   3.045   1.306   9.131  0.1604  1.5314  1.6946
 6692TIP3   OH244270   5.340   7.720   9.782  0.2178  0.1493 -0.0059
 6692TIP3    H144271   5.350   7.813   9.799 -1.2904  0.8197 -2.3091
 6692TIP3    H244272   5.247   7.703   9.793  0.7157 -1.6413  2.4500
 6693TIP3   OH244273   3.200   2.126   8.735 -0.0112 -0.0220  0.0724
 6693TIP3    H144274   3.247   2.093   8.658  0.3926 -0.0923  0.3448
 6693TIP3    H244275   3.171   2.048   8.781  0.5000  0.0035  0.4463
 6694TIP3   OH244276   1.076   0.461   9.266 -0.4533 -0.5531 -0.1445
 6694TIP3    H144277   1.044   0.467   9.176  1.3709 -0.6808 -0.8399
 6694TIP3    H244278   1.160   0.505   9.264 -1.2852  1.3187  2.0131
 6695TIP3   OH244279   5.827   3.737  10.581  0.1864 -0.0539 -0.3788
 6695TIP3    H144280   5.784   3.795  10.644 -1.3154 -0.6391 -0.8258
 6695TIP3    H244281   5.758   3.713  10.519  1.0894 -1.2792 -0.9539
 6696TIP3   OH244282   4.492   5.718  10.560  0.3274  0.6878 -0.4519
 6696TIP3    H144283   4.451   5.789  10.510 -0.0386  0.2169 -0.8294
 6696TIP3    H244284   4.418   5.667  10.594  0.3839  2.6689  3.1338
 6697TIP3   OH244285   3.064   5.126  11.038  0.1055 -0.0825  0.2940
 6697TIP3    H144286   3.066   5.038  11.076  2.2862  0.0561  0.6131
 6697TIP3    H244287   2.981   5.130  10.991  0.1099 -2.4304 -0.0143
 6698TIP3   OH244288   8.308   6.289   9.529  0.3005 -0.0960  0.2691
 6698TIP3    H144289   8.248   6.318   9.597 -0.0406  0.7709 -0.3889
 6698TIP3    H244290   8.376   6.240   9.576 -0.2583 -0.0381  1.1522
 6699TIP3   OH244291   3.778   1.519   8.288  0.4926  0.0217 -0.0352
 6699TIP3    H144292   3.848   1.484   8.233 -0.3342  0.4313 -1.3950
 6699TIP3    H244293   3.747   1.444   8.338  0.4741 -0.6297 -1.0010
 6700TIP3   OH244294   0.888   7.460   9.739  0.2390  0.2846  0.0693
 6700TIP3    H144295   0.948   7.528   9.709  0.5909 -0.4814 -1.0416
 6700TIP3    H244296   0.930   7.378   9.712  0.0864 -0.4301  1.8169
 6701TIP3   OH244297   0.273   4.675   9.728  0.3858  0.1068  0.6687
 6701TIP3    H144298   0.267   4.700   9.636 -2.9278 -3.1158 -0.1932
 6701TIP3    H244299   0.236   4.749   9.775 -3.1002 -0.2398 -1.1860
 6702TIP3   OH244300   0.752   0.341  11.105  0.0165 -0.3396 -0.2666
 6702TIP3    H144301   0.665   0.311  11.131  0.1010 -0.4097 -0.0632
 6702TIP3    H244302   0.779   0.279  11.037 -2.2839  2.6494 -4.3241
 6703TIP3   OH244303   0.100   7.858  10.495  0.4641  0.3410  0.0621
 6703TIP3    H144304   0.035   7.928  10.505 -2.4989 -2.1884 -0.1488
 6703TIP3    H244305   0.148   7.880  10.415 -2.1639  0.8550 -1.4704
 6704TIP3   OH244306   3.564   3.016   8.502  0.5155  0.2092  1.0133
 6704TIP3    H144307   3.555   3.074   8.426  1.3485 -0.5187  0.3451
 6704TIP3    H244308   3.517   3.062   8.572 -0.4490  0.7991  0.0165
 6705TIP3   OH244309   3.160   1.341   8.512 -0.0619 -0.1226 -0.2783
 6705TIP3    H144310   3.232   1.397   8.482 -0.2901  0.2133 -0.1996
 6705TIP3    H244311   3.154   1.360   8.606  0.1569 -0.6145 -0.1603
 6706TIP3   OH244312   4.761   5.563   8.906 -0.1628  0.4806 -0.3957
 6706TIP3    H144313   4.704   5.529   8.837 -0.6821  0.6293 -0.0506
 6706TIP3    H244314   4.740   5.510   8.983 -0.4834  1.1112 -0.0351
 6707TIP3   OH244315   7.656   2.271   9.169  0.2194  0.3007 -0.0127
 6707TIP3    H144316   7.563   2.290   9.181 -0.3927 -2.0511 -0.6237
 6707TIP3    H244317   7.669   2.273   9.074  0.9978  1.3099  0.0902
 6708TIP3   OH244318   5.122   3.578   9.255  0.4198  0.0497 -0.4623
 6708TIP3    H144319   5.068   3.504   9.284 -0.2406  0.6022 -0.2457
 6708TIP3    H244320   5.174   3.543   9.183  0.8859 -0.9003  0.3121
 6709TIP3   OH244321   0.817   0.162   9.928 -0.2350 -0.2958  0.0830
 6709TIP3    H144322   0.788   0.239   9.880  1.2018  0.9439  1.1239
 6709TIP3    H244323   0.759   0.157  10.004 -0.4921 -0.4041 -0.1188
 6710TIP3   OH244324   6.335   5.545  10.211 -0.3677  0.0085 -0.6873
 6710TIP3    H144325   6.324   5.639  10.196 -0.4326 -0.0025 -0.7103
 6710TIP3    H244326   6.293   5.504  10.135  0.5505 -0.0155 -1.1886
 6711TIP3   OH244327   6.592   3.211  10.461 -0.3506  0.0377  0.7876
 6711TIP3    H144328   6.688   3.218  10.467 -0.2763  0.3774 -0.5594
 6711TIP3    H244329   6.560   3.293  10.500 -0.0090  0.7698 -0.4080
 6712TIP3   OH244330   5.948   0.024   8.819 -1.1047 -1.0408 -0.3575
 6712TIP3    H144331   5.938  -0.051   8.878 -0.2608  0.0215  1.1959
 6712TIP3    H244332   5.866   0.072   8.828 -0.9700 -0.8717 -0.0426
 6713TIP3   OH244333   7.690   7.546  10.780 -0.3058 -0.3222  0.2893
 6713TIP3    H144334   7.735   7.495  10.712 -0.0282  1.0072 -0.5600
 6713TIP3    H244335   7.757   7.605  10.815 -1.5216  2.5108 -1.8015
 6714TIP3   OH244336   1.453   6.840   9.666 -0.4026  0.4806 -0.4449
 6714TIP3    H144337   1.481   6.767   9.722 -0.7047  0.0042 -0.9041
 6714TIP3    H244338   1.491   6.820   9.580 -3.1339 -0.8994 -1.4686
 6715TIP3   OH244339   7.988   6.498   9.075  0.7292  0.0111 -0.0354
 6715TIP3    H144340   7.942   6.514   9.157 -0.5301 -0.3596 -0.6460
 6715TIP3    H244341   7.926   6.524   9.007  2.3144  1.8055 -0.8869
 6716TIP3   OH244342   1.634   8.062  10.116 -0.4724  0.0350  0.6934
 6716TIP3    H144343   1.632   7.972  10.084 -2.0305  0.3427 -0.1180
 6716TIP3    H244344   1.566   8.107  10.067 -0.3649  1.4356  1.7783
 6717TIP3   OH244345   0.714   6.521   8.864 -0.7026 -0.1693 -0.4209
 6717TIP3    H144346   0.792   6.474   8.894 -0.9507  0.0999  0.6854
 6717TIP3    H244347   0.726   6.530   8.769 -0.2557 -1.7326 -0.5369
 6718TIP3   OH244348   6.814   4.784   9.520  0.0523  0.0118 -0.1495
 6718TIP3    H144349   6.854   4.867   9.547 -2.0657  0.8826  0.5070
 6718TIP3    H244350   6.825   4.726   9.596 -0.0842  0.3041  0.0951
 6719TIP3   OH244351   6.720   4.841   8.766  0.1383  0.1137 -0.1414
 6719TIP3    H144352   6.796   4.789   8.790  0.2274 -0.1548 -0.9626
 6719TIP3    H244353   6.755   4.912   8.713 -0.1275  0.2690 -0.1131
 6720TIP3   OH244354   5.872   0.256  10.930 -0.1959  0.6969 -0.0100
 6720TIP3    H144355   5.908   0.178  10.972 -0.3759 -0.1501 -1.3739
 6720TIP3    H244356   5.932   0.275  10.859 -0.7127  1.1803 -0.3270
 6721TIP3   OH244357   4.829   7.511  10.492 -0.3880 -0.3785 -0.0710
 6721TIP3    H144358   4.900   7.552  10.542 -1.1282  0.3251  0.4257
 6721TIP3    H244359   4.784   7.455  10.555  0.0833 -1.3132 -0.5384
 6722TIP3   OH244360   8.243   4.963  10.285 -0.8532 -0.3483  0.1740
 6722TIP3    H144361   8.197   4.982  10.203 -1.5600 -1.0063  0.3999
 6722TIP3    H244362   8.200   5.019  10.349 -0.3521  0.1097  0.1080
 6723TIP3   OH244363   1.490   6.099  11.134  0.5639 -0.3898 -0.0520
 6723TIP3    H144364   1.444   6.046  11.198 -3.4228 -1.3674 -3.2781
 6723TIP3    H244365   1.574   6.055  11.122  0.5908 -1.3101  2.8507
 6724TIP3   OH244366   3.643   7.053   9.557 -0.0262  0.0510  0.6329
 6724TIP3    H144367   3.560   7.099   9.566 -0.5920 -1.1184  1.6268
 6724TIP3    H244368   3.691   7.072   9.638  1.8593  2.8481 -0.9575
 6725TIP3   OH244369   3.514   5.080   9.614 -0.0712 -0.3892 -0.2360
 6725TIP3    H144370   3.433   5.089   9.564  0.4671  3.4017 -0.7142
 6725TIP3    H244371   3.495   5.120   9.698  1.4073  1.1918 -0.5900
 6726TIP3   OH244372   6.140   8.399  10.698  0.2211 -0.4554  0.2123
 6726TIP3    H144373   6.143   8.419  10.605 -0.2038 -1.2650  0.0087
 6726TIP3    H244374   6.209   8.452  10.738 -0.5199  0.9655 -0.3559
 6727TIP3   OH244375   4.827   1.854  11.288 -0.1540  0.7180  0.3183
 6727TIP3    H144376   4.747   1.890  11.249 -0.5056  0.6087  0.9118
 6727TIP3    H244377   4.848   1.778  11.234  0.5696  1.7634 -0.9171
 6728TIP3   OH244378   6.488   6.772   8.895  0.8219 -0.0972  0.4788
 6728TIP3    H144379   6.451   6.856   8.922  2.4773  0.7813  0.1482
 6728TIP3    H244380   6.442   6.750   8.814  0.3798  0.4750  0.5722
 6729TIP3   OH244381   8.134   1.043   8.764 -0.0283  0.4298 -0.1004
 6729TIP3    H144382   8.174   1.001   8.840  0.8130  2.5505  0.6919
 6729TIP3    H244383   8.063   1.095   8.800 -0.7107  0.1350 -0.9922
 6730TIP3   OH244384   5.765   7.175   8.841  0.1514  0.3707  0.0773
 6730TIP3    H144385   5.851   7.203   8.812 -0.0289  0.2711 -0.5603
 6730TIP3    H244386   5.711   7.254   8.837  0.2888  0.5166  0.8187
 6731TIP3   OH244387   1.511   3.009   8.810 -0.3407 -1.1525  0.0885
 6731TIP3    H144388   1.417   3.008   8.825 -0.1876 -2.5617  1.1752
 6731TIP3    H244389   1.541   3.091   8.850 -1.1583 -0.3445 -0.8887
 6732TIP3   OH244390   4.340   4.895   9.499  0.3131 -0.7461  0.2685
 6732TIP3    H144391   4.363   4.815   9.453 -0.4843 -2.1042  2.1316
 6732TIP3    H244392   4.420   4.922   9.543  0.5991 -0.4719 -0.4143
 6733TIP3   OH244393   1.104   1.582   9.163 -0.0662  0.0117  0.7419
 6733TIP3    H144394   1.025   1.568   9.215 -1.1323  1.6201 -0.3590
 6733TIP3    H244395   1.110   1.678   9.155 -0.3812 -0.1585 -2.6733
 6734TIP3   OH244396   6.215   0.783   9.116  0.2163  0.1327 -0.4072
 6734TIP3    H144397   6.228   0.815   9.205  0.0630  2.0337 -1.0145
 6734TIP3    H244398   6.226   0.688   9.122  0.3217  0.2367  1.5984
 6735TIP3   OH244399   1.882   7.625  10.443 -0.1117  0.0056 -0.5255
 6735TIP3    H144400   1.935   7.682  10.388  1.8262 -0.2969  0.9017
 6735TIP3    H244401   1.942   7.555  10.469 -0.9217  0.1032  1.8849
 6736TIP3   OH244402   5.921   5.376  10.071 -0.2834 -0.6949  0.4280
 6736TIP3    H144403   5.983   5.430  10.022 -0.2271 -1.4990 -0.4125
 6736TIP3    H244404   5.939   5.396  10.163  0.6077 -0.2512  0.1674
 6737TIP3   OH244405   7.096   0.394   9.778 -0.0389 -0.2224  0.4725
 6737TIP3    H144406   7.004   0.398   9.804  0.1810  1.6905  1.0722
 6737TIP3    H244407   7.099   0.326   9.711 -2.2052  0.8133 -0.7762
 6738TIP3   OH244408   0.272   0.761   9.777  0.2138 -0.0522 -0.0236
 6738TIP3    H144409   0.283   0.736   9.868 -1.4247 -1.1439 -0.0790
 6738TIP3    H244410   0.201   0.825   9.778 -1.2968 -1.6075 -0.6645
 6739TIP3   OH244411   1.469   4.676   8.955 -0.1993  0.0335 -0.0853
 6739TIP3    H144412   1.538   4.699   9.017 -1.5517  1.4191  0.9701
 6739TIP3    H244413   1.414   4.614   9.003 -0.3887 -0.1131 -0.4886
 6740TIP3   OH244414   0.279   1.436  10.933  0.7404 -0.0533  0.1225
 6740TIP3    H144415   0.213   1.479  10.878  0.7099 -0.0670  0.1482
 6740TIP3    H244416   0.253   1.457  11.023  0.7752 -0.0529  0.1324
 6741TIP3   OH244417   0.366   2.948  10.803  0.5441  0.2345  0.3432
 6741TIP3    H144418   0.298   3.010  10.828  0.5661  0.6383 -0.5528
 6741TIP3    H244419   0.440   2.970  10.859  0.5791  1.0941 -0.0216
 6742TIP3   OH244420   0.922   0.016   9.238 -0.2066 -0.0778  1.0233
 6742TIP3    H144421   0.982   0.068   9.291  0.1099 -0.9337  1.5161
 6742TIP3    H244422   0.873   0.081   9.186  0.4445  0.6782  1.3437
 6743TIP3   OH244423   1.520   8.411   9.448 -0.3269  0.2279  0.2201
 6743TIP3    H144424   1.576   8.488   9.462 -1.0393  1.2412 -2.0783
 6743TIP3    H244425   1.477   8.397   9.532  1.4728  0.9474  1.3213
 6744TIP3   OH244426   3.324   7.274   9.354 -0.1653  0.3321  0.3290
 6744TIP3    H144427   3.248   7.328   9.332 -0.7163 -0.0343  1.2868
 6744TIP3    H244428   3.399   7.327   9.328 -0.7416  0.7254 -0.5763
 6745TIP3   OH244429   5.983   1.753  10.319  0.0958 -0.0561 -0.3885
 6745TIP3    H144430   5.888   1.748  10.314  0.0969  0.1739 -0.6505
 6745TIP3    H244431   6.005   1.712  10.403 -0.2518  0.1392 -0.2007
 6746TIP3   OH244432   7.053   8.388   8.985 -0.4278  0.0802 -0.3213
 6746TIP3    H144433   7.134   8.436   9.003  1.2465 -1.7585 -2.4082
 6746TIP3    H244434   7.036   8.339   9.066  0.8657  0.0842 -0.0263
 6747TIP3   OH244435   4.168   1.847   9.242  0.0401  0.0075 -0.2736
 6747TIP3    H144436   4.091   1.904   9.237 -0.3269 -0.5496 -1.5167
 6747TIP3    H244437   4.145   1.781   9.308 -1.3262 -1.1903 -1.8518
 6748TIP3   OH244438   0.199   5.232   9.867  0.3465  0.2847  0.3714
 6748TIP3    H144439   0.117   5.212   9.911  0.2731  1.0809  0.6112
 6748TIP3    H244440   0.263   5.173   9.907 -0.3649 -1.3425 -0.8152
 6749TIP3   OH244441   3.207   3.122   9.166  0.1428  0.2720  0.4945
 6749TIP3    H144442   3.155   3.202   9.154  1.5207  0.9234 -1.6706
 6749TIP3    H244443   3.151   3.064   9.217 -1.1248  2.3988  1.6460
 6750TIP3   OH244444   6.446   2.490   9.097 -0.2241  0.5519  0.3622
 6750TIP3    H144445   6.412   2.402   9.113  1.4259 -0.7673 -2.5989
 6750TIP3    H244446   6.472   2.522   9.184 -1.1881 -1.6881  1.5615
 6751TIP3   OH244447   5.482   2.690   9.852 -0.2950 -0.6505 -0.6354
 6751TIP3    H144448   5.573   2.662   9.839  0.1717  0.7556 -0.5555
 6751TIP3    H244449   5.430   2.631   9.797  0.6576 -1.4502 -0.7014
 6752TIP3   OH244450   7.795   5.536  10.003  0.4058  0.5137 -0.0864
 6752TIP3    H144451   7.704   5.526   9.975  0.3479  0.9154 -0.0432
 6752TIP3    H244452   7.840   5.461   9.963 -0.4030 -1.1784  2.0149
 6753TIP3   OH244453   5.181   6.369   9.408 -0.3803  0.1242 -0.4054
 6753TIP3    H144454   5.185   6.327   9.323  0.8583 -0.6924  0.0256
 6753TIP3    H244455   5.250   6.435   9.406  0.2975 -0.5496  0.2841
 6754TIP3   OH244456   2.143   3.390   9.145  0.3824  0.0633  0.8012
 6754TIP3    H144457   2.200   3.347   9.208  1.7722 -2.9601 -2.1656
 6754TIP3    H244458   2.062   3.339   9.147  1.4288 -1.8815 -1.5727
 6755TIP3   OH244459   7.242   4.425   9.834  0.3651  0.4713  0.0055
 6755TIP3    H144460   7.228   4.428   9.929 -1.4741  0.6848 -0.2240
 6755TIP3    H244461   7.204   4.341   9.807  0.0562  0.8118 -0.6368
 6756TIP3   OH244462   4.952   4.101  10.483 -0.2681 -0.1840  0.3735
 6756TIP3    H144463   4.934   4.099  10.577  2.3860 -0.4936  0.9550
 6756TIP3    H244464   4.928   4.014  10.452 -1.0184 -0.1273  0.7558
 6757TIP3   OH244465   0.845   2.696   9.100  0.2285 -0.3649 -0.2036
 6757TIP3    H144466   0.926   2.645   9.114  0.7902  0.6526  0.3356
 6757TIP3    H244467   0.864   2.751   9.024 -0.1413 -0.4751 -0.3790
 6758TIP3   OH244468   4.272   0.001   9.403  0.5205  0.3467 -0.6580
 6758TIP3    H144469   4.329  -0.055   9.350 -1.6454 -2.6033 -0.1289
 6758TIP3    H244470   4.237  -0.057   9.471 -1.0937  2.6424  0.6460
 6759TIP3   OH244471   1.839   4.182   9.204  0.2195  0.3005  0.4891
 6759TIP3    H144472   1.744   4.177   9.189  0.3173 -1.8260  0.1760
 6759TIP3    H244473   1.859   4.101   9.251  1.7962  1.0391  1.1549
 6760TIP3   OH244474   2.092   7.566   9.040 -0.4579  0.0053 -0.3864
 6760TIP3    H144475   2.092   7.567   9.135  0.4250  0.0790 -0.3797
 6760TIP3    H244476   2.003   7.541   9.016 -0.1688 -2.0851  0.4978
 6761TIP3   OH244477   3.877   7.958   8.923  0.4783  0.0638  0.4948
 6761TIP3    H144478   3.820   8.014   8.870  0.7766 -1.7111 -1.9109
 6761TIP3    H244479   3.819   7.923   8.991 -0.3714  1.1152  0.3426
 6762TIP3   OH244480   7.768   8.247   9.515  0.4183  0.2793  0.2156
 6762TIP3    H144481   7.796   8.339   9.510 -0.9954  0.7602  0.7500
 6762TIP3    H244482   7.850   8.198   9.522  1.1947  1.5094  0.0929
 6763TIP3   OH244483   3.093   1.086   9.958 -0.3486  0.8570  0.2694
 6763TIP3    H144484   3.143   1.014   9.919  2.1003  1.7243  1.6047
 6763TIP3    H244485   3.095   1.155   9.891 -0.6373  0.5476 -0.0652
 6764TIP3   OH244486   5.277   3.498   9.052  0.4584  0.4065 -0.4576
 6764TIP3    H144487   5.364   3.500   9.093  0.9221 -0.8078 -1.3199
 6764TIP3    H244488   5.255   3.405   9.048 -0.9097  0.7050 -0.2251
 6765TIP3   OH244489   7.448   5.010   9.323 -0.2723  0.3178  0.0709
 6765TIP3    H144490   7.453   5.000   9.228 -0.4490 -0.1161  0.1027
 6765TIP3    H244491   7.372   4.957   9.349 -0.2582  0.4746  0.4466
 6766TIP3   OH244492   6.116   5.734  10.230 -0.5456 -0.3520 -0.2568
 6766TIP3    H144493   6.080   5.648  10.249 -3.0809  0.4923 -0.8914
 6766TIP3    H244494   6.158   5.761  10.311  0.7371 -2.3135 -0.1823
 6767TIP3   OH244495   4.269   5.679   9.970  0.0077 -0.1445 -0.0077
 6767TIP3    H144496   4.254   5.585   9.978 -0.9406 -0.1748 -1.6945
 6767TIP3    H244497   4.311   5.690   9.885 -0.8448  1.0499 -0.3073
 6768TIP3   OH244498   7.578   7.039   9.569 -0.1626 -0.0527 -0.0940
 6768TIP3    H144499   7.558   7.024   9.476  1.1726  0.9666 -0.5776
 6768TIP3    H244500   7.492   7.050   9.610 -0.8131  4.0390 -2.0299
 6769TIP3   OH244501   7.346   7.760   9.360 -0.8948 -0.2281  0.5171
 6769TIP3    H144502   7.259   7.747   9.322 -0.0622  0.5940 -1.8576
 6769TIP3    H244503   7.339   7.841   9.411 -1.9132 -1.0961  1.8273
 6770TIP3   OH244504   5.790   8.120   9.572 -0.1968 -0.0089 -0.2530
 6770TIP3    H144505   5.795   8.198   9.626  0.2392 -0.1900 -0.0286
 6770TIP3    H244506   5.841   8.142   9.494  0.3749 -0.2510  0.0444
 6771TIP3   OH244507   0.516   2.306   9.580  0.1007 -0.6757 -0.0069
 6771TIP3    H144508   0.523   2.232   9.520 -4.3347 -2.6064  1.4202
 6771TIP3    H244509   0.485   2.378   9.525  0.2358 -1.1648 -0.7372
 6772TIP3   OH244510   5.454   1.642   9.464  0.8690 -0.4388  0.1554
 6772TIP3    H144511   5.460   1.645   9.369  0.5301  0.1492  0.1479
 6772TIP3    H244512   5.539   1.673   9.495 -0.2097  2.9818  0.0368
 6773TIP3   OH244513   0.547   2.685   8.906 -0.1901  0.5105 -0.1057
 6773TIP3    H144514   0.627   2.644   8.875  0.6297  0.7042  1.6352
 6773TIP3    H244515   0.555   2.777   8.879  0.4989  0.6755  0.6301
 6774TIP3   OH244516   6.607   5.959   9.876 -0.0622 -0.4403 -0.7144
 6774TIP3    H144517   6.642   5.955   9.787 -0.7692  2.1668 -1.1865
 6774TIP3    H244518   6.517   5.928   9.869 -0.2723  0.2261 -1.0264
 6775TIP3   OH244519   1.743   4.353  10.181 -0.3090  0.1404  0.2250
 6775TIP3    H144520   1.648   4.364  10.177 -0.7194 -2.4478  1.0621
 6775TIP3    H244521   1.765   4.308  10.100  0.3860  1.5652 -0.4053
 6776TIP3   OH244522   1.315   7.410   9.399 -0.0434 -0.3877 -0.2496
 6776TIP3    H144523   1.255   7.483   9.388  0.4463  0.1216  0.3723
 6776TIP3    H244524   1.395   7.438   9.356 -0.2660 -1.0944 -1.1384
 6777TIP3   OH244525   6.725   0.399  10.327 -0.8169 -0.0396  0.3526
 6777TIP3    H144526   6.730   0.440  10.414  1.7055  0.8817 -0.1644
 6777TIP3    H244527   6.747   0.469  10.266 -2.9366 -0.5693 -1.1540
 6778TIP3   OH244528   3.681   1.399   8.556 -0.0964  0.0386  0.6500
 6778TIP3    H144529   3.759   1.414   8.609  0.2299 -0.4359  0.3152
 6778TIP3    H244530   3.641   1.322   8.594 -0.2443  0.1120  0.6434
 6779TIP3   OH244531   7.812   5.016   9.511  0.4251 -0.3133  0.1958
 6779TIP3    H144532   7.744   5.073   9.478 -0.4898 -1.0355  0.7584
 6779TIP3    H244533   7.839   4.963   9.436 -1.8440 -2.1520  0.5679
 6780TIP3   OH244534   1.584   8.328  10.261  0.7095  0.2921 -0.0613
 6780TIP3    H144535   1.526   8.404  10.260  1.1723  0.6603 -1.6347
 6780TIP3    H244536   1.632   8.333  10.178  0.2693 -2.0779 -0.5461
 6781TIP3   OH244537   4.784   7.531   9.696  0.4733  0.0394 -0.6508
 6781TIP3    H144538   4.726   7.593   9.650  0.2177 -0.4726 -1.0306
 6781TIP3    H244539   4.753   7.533   9.787  0.1683  0.1252 -0.7545
 6782TIP3   OH244540   4.934   5.887  10.536  0.5351 -0.4828  0.1023
 6782TIP3    H144541   4.858   5.873  10.481 -0.0808  0.5028  0.6773
 6782TIP3    H244542   4.904   5.865  10.624  1.5889 -2.3221  0.0539
 6783TIP3   OH244543   7.449   7.107   9.850 -0.5925 -0.3952 -0.2400
 6783TIP3    H144544   7.521   7.165   9.873 -1.9607  0.7687  1.3822
 6783TIP3    H244545   7.377   7.166   9.827 -1.3932 -1.4874 -0.6617
 6784TIP3   OH244546   0.054   4.144   8.665  0.4222 -0.3512 -0.3580
 6784TIP3    H144547  -0.029   4.173   8.627  0.7924 -0.0785 -0.9864
 6784TIP3    H244548   0.039   4.144   8.759  0.6143  2.6445 -0.2448
 6785TIP3   OH244549   4.069   7.135  10.338  0.4965  0.4999  0.3888
 6785TIP3    H144550   4.078   7.059  10.395  2.7398  0.8838  0.6551
 6785TIP3    H244551   4.148   7.133  10.283  0.2648  2.2191 -0.0799
 6786TIP3   OH244552   7.417   8.072   8.902 -0.4687 -0.2909  0.3202
 6786TIP3    H144553   7.481   8.021   8.952 -0.5776 -0.5879  0.1632
 6786TIP3    H244554   7.448   8.065   8.811  0.9906  2.0924  0.5651
 6787TIP3   OH244555   0.847   2.382   8.875  0.2126  0.6208  0.6447
 6787TIP3    H144556   0.888   2.295   8.876  0.2130  0.6191  0.5139
 6787TIP3    H244557   0.803   2.388   8.960 -2.1735 -0.6725 -0.3858
 6788TIP3   OH244558   2.270   0.161   9.215  0.3148  0.0901 -0.0210
 6788TIP3    H144559   2.319   0.144   9.295  0.7131  1.0223 -0.0563
 6788TIP3    H244560   2.240   0.074   9.186  2.1276 -0.5440 -0.1171
 6789TIP3   OH244561   5.144   1.087   9.919 -0.2929 -0.1801 -1.0665
 6789TIP3    H144562   5.069   1.097   9.977 -0.1891  1.8481 -1.1861
 6789TIP3    H244563   5.158   0.993   9.912 -2.6174 -0.5886 -0.8063
 6790TIP3   OH244564   7.816   0.821   9.002 -0.0478  0.1544 -0.3175
 6790TIP3    H144565   7.834   0.912   8.978 -0.6649  0.0320 -1.3039
 6790TIP3    H244566   7.903   0.783   9.016  0.2287  0.8276 -0.1260
 6791TIP3   OH244567   0.344   6.399   9.430  0.0912  0.4474  0.7198
 6791TIP3    H144568   0.262   6.446   9.449 -0.0932  0.0653  0.8786
 6791TIP3    H244569   0.337   6.376   9.337 -0.3746 -0.3498  0.9506
 6792TIP3   OH244570   3.827   4.907   9.321 -0.1355 -0.5427 -0.9196
 6792TIP3    H144571   3.786   4.832   9.365  0.3328 -0.7539 -0.8397
 6792TIP3    H244572   3.915   4.910   9.357  0.6025 -1.3300 -2.5524
 6793TIP3   OH244573   2.451   1.680  10.654 -0.5009  0.5639 -0.4277
 6793TIP3    H144574   2.474   1.589  10.672 -0.2683  0.2177 -2.2326
 6793TIP3    H244575   2.532   1.729  10.669 -0.5448  0.4421  0.2466
 6794TIP3   OH244576   0.700   1.019  10.024 -0.0891 -0.3912  0.7394
 6794TIP3    H144577   0.741   1.014   9.938  0.8627 -0.8371  1.2058
 6794TIP3    H244578   0.707   1.112  10.048 -0.6455 -0.2026  0.2194
 6795TIP3   OH244579   3.229   1.963   8.504 -0.1917 -0.1920  0.0284
 6795TIP3    H144580   3.202   1.877   8.538  2.1796 -1.0176 -0.0254
 6795TIP3    H244581   3.315   1.947   8.465  0.9882  2.5081  1.3323
 6796TIP3   OH244582   5.352   2.327  11.302 -0.2425 -0.7324 -0.0169
 6796TIP3    H144583   5.265   2.364  11.313 -0.7283 -1.3940 -1.4044
 6796TIP3    H244584   5.344   2.237  11.333 -1.0437 -1.9127 -3.2762
 6797TIP3   OH244585   3.218   7.754   8.799  0.1853  0.0890 -0.7458
 6797TIP3    H144586   3.143   7.696   8.800 -0.1303  0.4447  1.3599
 6797TIP3    H244587   3.181   7.842   8.800  0.5976  0.2697 -0.0284
 6798TIP3   OH244588   7.985   0.213   9.193 -0.4010 -0.1960 -0.3741
 6798TIP3    H144589   7.939   0.288   9.232 -0.9431 -0.4417 -0.5459
 6798TIP3    H244590   8.063   0.252   9.153 -0.6291  0.2657 -0.3779
 6799TIP3   OH244591   7.265   0.357   8.934 -0.0538  0.1377 -0.0785
 6799TIP3    H144592   7.330   0.420   8.966 -0.7326  0.3747  0.8490
 6799TIP3    H244593   7.302   0.271   8.956  0.3743  0.2314 -0.4002
 6800TIP3   OH244594   2.159   7.835  10.585 -0.4718 -0.4003  0.5884
 6800TIP3    H144595   2.219   7.909  10.577  0.7361 -1.1738  1.9011
 6800TIP3    H244596   2.080   7.872  10.624  0.6705  0.0100  2.6732
 6801TIP3   OH244597   5.794   1.964   9.518 -0.1274  0.4229 -0.0639
 6801TIP3    H144598   5.841   1.945   9.599 -0.2085  0.3806 -0.0264
 6801TIP3    H244599   5.862   1.987   9.455 -0.0103 -0.1473 -0.1540
 6802TIP3   OH244600   6.019   1.931   8.759  0.6491  0.9836  0.5941
 6802TIP3    H144601   5.944   1.872   8.751  1.6269 -0.5313  1.9518
 6802TIP3    H244602   6.067   1.920   8.677  0.1668  0.8241  0.3292
 6803TIP3   OH244603   0.309   0.137  10.067 -0.2854 -0.4990  0.5855
 6803TIP3    H144604   0.354   0.079  10.006 -0.6008 -1.3335  1.1228
 6803TIP3    H244605   0.344   0.224  10.049  1.0253 -1.0260  0.5051
 6804TIP3   OH244606   0.100   6.763  10.262 -0.0307  0.0575  0.7023
 6804TIP3    H144607   0.044   6.814  10.203 -0.5671 -0.7075  0.5423
 6804TIP3    H244608   0.086   6.802  10.348 -0.6497  0.0044  0.6288
 6805TIP3   OH244609   6.221   1.255   8.914 -0.1687 -0.1635 -0.1879
 6805TIP3    H144610   6.192   1.339   8.950  0.2989 -0.0758  0.0041
 6805TIP3    H244611   6.314   1.270   8.893 -0.1988 -0.4978 -0.5609
 6806TIP3   OH244612   3.426   3.331  10.113  0.3159  0.0313  0.2712
 6806TIP3    H144613   3.504   3.382  10.090 -0.3785  0.9382 -0.1194
 6806TIP3    H244614   3.358   3.396  10.127 -0.4005 -0.7544  0.5468
 6807TIP3   OH244615   2.848   7.537   9.055  0.0362 -0.2201 -0.1820
 6807TIP3    H144616   2.940   7.537   9.029  0.2167 -3.0031  0.2361
 6807TIP3    H244617   2.846   7.590   9.134  1.6646 -1.6560  0.8814
 6808TIP3   OH244618   6.316   5.396   9.534 -0.2023  0.0663 -0.2865
 6808TIP3    H144619   6.376   5.409   9.607 -1.7317 -1.3160  1.3155
 6808TIP3    H244620   6.253   5.468   9.541 -1.3438 -0.9884  0.8783
 6809TIP3   OH244621   6.725   6.944   9.593 -0.2550  0.2114 -0.3752
 6809TIP3    H144622   6.723   7.040   9.590 -0.7026  0.1849 -1.4925
 6809TIP3    H244623   6.771   6.923   9.674 -1.1323  1.3679  0.4464
 6810TIP3   OH244624   2.151   8.304  10.254 -0.7531 -0.1559  0.0908
 6810TIP3    H144625   2.147   8.382  10.200 -0.7837 -0.5719 -0.5180
 6810TIP3    H244626   2.062   8.267  10.251 -0.0118 -1.9575 -2.2761
 6811TIP3   OH244627   6.820   3.636  10.135  0.3816  1.2741  0.5005
 6811TIP3    H144628   6.806   3.640  10.229  0.7837  0.4592  0.6006
 6811TIP3    H244629   6.732   3.622  10.098  0.3870  0.1688  0.8607
 6812TIP3   OH244630   1.565   4.419   9.359  0.2118 -0.0753  0.0783
 6812TIP3    H144631   1.548   4.513   9.367  2.8812  0.3373  2.6280
 6812TIP3    H244632   1.587   4.406   9.267 -0.9463  1.6191 -0.4851
 6813TIP3   OH244633   1.696   1.765   8.536  0.4706 -0.0417  0.2967
 6813TIP3    H144634   1.776   1.726   8.501  0.1521 -1.2731  0.9037
 6813TIP3    H244635   1.690   1.850   8.492  0.7552 -0.9826 -1.6855
 6814TIP3   OH244636   6.024   5.479  10.309 -0.3386 -0.0142  0.3023
 6814TIP3    H144637   6.079   5.402  10.296  0.6843  0.7778 -0.2625
 6814TIP3    H244638   5.965   5.455  10.380 -2.6033 -2.6838 -2.2228
 6815TIP3   OH244639   2.670   6.453   9.427 -0.4302  0.9101  0.2965
 6815TIP3    H144640   2.595   6.406   9.391 -0.5893  1.4727 -0.1146
 6815TIP3    H244641   2.746   6.401   9.399 -0.7068 -0.4756  1.9414
 6816TIP3   OH244642   0.654   7.168   9.988 -0.0057 -0.1222  0.3222
 6816TIP3    H144643   0.591   7.105  10.024 -1.3896 -0.6037 -2.6158
 6816TIP3    H244644   0.707   7.117   9.926 -0.1349  1.2354 -0.9794
 6817TIP3   OH244645   0.827   3.147   9.256 -0.3523  0.3809 -0.0278
 6817TIP3    H144646   0.856   3.192   9.177  2.8226 -1.4136 -0.0318
 6817TIP3    H244647   0.801   3.218   9.315  0.7616  1.9938 -1.3580
 6818TIP3   OH244648   0.643   6.352   9.203  0.3776 -0.1610 -1.0254
 6818TIP3    H144649   0.711   6.292   9.234  1.0279  0.9588 -0.2234
 6818TIP3    H244650   0.626   6.410   9.277 -1.4362 -0.3754 -1.2371
 6819TIP3   OH244651   5.992   2.806   9.554 -0.0120  0.0023  0.3355
 6819TIP3    H144652   6.073   2.851   9.532 -0.9486  1.0483 -1.1638
 6819TIP3    H244653   5.986   2.734   9.491 -0.1515 -0.1962  0.5740
 6820TIP3   OH244654   3.191   1.726  10.130 -0.4052  0.0411  0.2217
 6820TIP3    H144655   3.226   1.658  10.187  0.5892  0.3997  0.0636
 6820TIP3    H244656   3.233   1.712  10.046 -1.6587 -0.3145 -0.3734
 6821TIP3   OH244657   4.598   6.975   9.957  0.3200  0.9682 -0.1293
 6821TIP3    H144658   4.593   6.902  10.018 -1.0065  1.5471  0.5031
 6821TIP3    H244659   4.628   6.937   9.875  1.0543 -0.0200  0.5822
 6822TIP3   OH244660   6.175   1.290   9.248  0.1440  0.1415  0.5467
 6822TIP3    H144661   6.086   1.324   9.258 -0.8014 -2.0716  0.1953
 6822TIP3    H244662   6.225   1.364   9.215 -1.6318  1.3477  0.4008
 6823TIP3   OH244663   1.194   7.845   9.370 -0.3178 -0.0411 -0.3216
 6823TIP3    H144664   1.151   7.823   9.287 -0.9338  1.8548 -0.5647
 6823TIP3    H244665   1.275   7.887   9.343  1.3918 -2.8002  0.1314
 6824TIP3   OH244666   0.471   4.404  15.520  0.0753  0.2893  0.3738
 6824TIP3    H144667   0.532   4.336  15.490 -1.5501 -1.2430  0.4208
 6824TIP3    H244668   0.512   4.486  15.492  1.4191 -0.7626 -0.9290
 6825TIP3   OH244669   0.726   4.068  10.194  0.1523 -0.5359  0.8282
 6825TIP3    H144670   0.750   4.018  10.272  0.6297 -0.1437  0.9341
 6825TIP3    H244671   0.764   4.018  10.122 -0.2761 -0.8906  0.8436
 6826TIP3   OH244672   2.132   7.566   9.669 -0.0020 -0.0559  0.4769
 6826TIP3    H144673   2.192   7.535   9.602  0.8931  0.9501  0.7960
 6826TIP3    H244674   2.064   7.612   9.621  1.3349  1.8187  0.2998
 6827TIP3   OH244675   3.231   8.250   8.718  0.3160  0.3620  0.5045
 6827TIP3    H144676   3.148   8.222   8.680  0.6529  0.4660 -0.3334
 6827TIP3    H244677   3.242   8.340   8.687 -0.6299  1.3989  2.9536
 6828TIP3   OH244678   3.414   7.968   9.230  0.5185 -0.8132 -0.2463
 6828TIP3    H144679   3.397   7.940   9.320 -1.6981 -0.7851 -0.6027
 6828TIP3    H244680   3.384   7.895   9.177 -0.2586  0.0580 -1.0215
 6829TIP3   OH244681   6.114   1.369  10.506 -0.0395  0.0642 -0.0924
 6829TIP3    H144682   6.093   1.457  10.539  1.2300  0.9652 -1.5370
 6829TIP3    H244683   6.029   1.331  10.485 -0.6342  0.8493  0.7868
 6830TIP3   OH244684   0.743   6.207  10.241 -0.4998  0.4255  0.4625
 6830TIP3    H144685   0.735   6.241  10.152  1.0901  0.7238  0.4068
 6830TIP3    H244686   0.731   6.283  10.298  1.2105  0.7866  0.3918
 6831TIP3   OH244687   5.830   1.049  10.666  0.0265 -0.2623 -0.5480
 6831TIP3    H144688   5.842   0.967  10.714  1.4320 -0.2294 -0.8090
 6831TIP3    H244689   5.740   1.075  10.686  0.2917 -0.6903  1.3643
 6832TIP3   OH244690   0.529   0.849  10.572  0.1582  0.7738 -0.1770
 6832TIP3    H144691   0.612   0.862  10.525  0.5506 -2.7042 -0.7495
 6832TIP3    H244692   0.553   0.794  10.647 -1.7136 -1.2048 -0.9389
 6833TIP3   OH244693   2.958   3.145   9.809  0.3590 -0.4181  0.4208
 6833TIP3    H144694   2.887   3.209   9.801  0.8735  0.5046  2.4889
 6833TIP3    H244695   2.934   3.076   9.748 -2.0739  0.0878  0.6641
 6834TIP3   OH244696   6.287   6.064  10.620  0.1464  0.1326  0.1253
 6834TIP3    H144697   6.304   6.080  10.713  0.0524 -0.2863  0.2142
 6834TIP3    H244698   6.225   6.133  10.596  2.0663  1.8234 -0.2642
 6835TIP3   OH244699   1.352   7.821   8.755 -0.2745 -0.5502  0.3549
 6835TIP3    H144700   1.282   7.885   8.743 -0.8594 -0.5815  2.9738
 6835TIP3    H244701   1.432   7.873   8.762 -0.7028 -0.0707  2.1422
 6836TIP3   OH244702   4.384   4.679   8.908 -0.1826  0.0878 -0.1378
 6836TIP3    H144703   4.385   4.587   8.934  0.4700 -0.7861 -2.9341
 6836TIP3    H244704   4.293   4.696   8.885  0.2154 -0.9227 -2.7623
 6837TIP3   OH244705   7.315   8.091   9.959  0.1261  0.5132  0.1132
 6837TIP3    H144706   7.353   8.068  10.044 -0.1093  1.5729  0.5268
 6837TIP3    H244707   7.299   8.007   9.916 -0.0843 -0.0596  1.2692
 6838TIP3   OH244708   2.161   0.708   9.338 -0.4085  0.1669  0.0694
 6838TIP3    H144709   2.188   0.742   9.253  0.9204 -1.2066 -0.1091
 6838TIP3    H244710   2.183   0.778   9.400  1.7037 -0.0477 -0.3537
 6839TIP3   OH244711   5.640   6.178   9.763  0.1910 -0.1984 -0.8484
 6839TIP3    H144712   5.648   6.083   9.764 -1.8732 -0.4179 -0.3197
 6839TIP3    H244713   5.687   6.207   9.841 -0.1214 -0.9001 -0.3898
 6840TIP3   OH244714   2.321   0.224   9.841 -0.2133  0.2900 -0.6565
 6840TIP3    H144715   2.354   0.137   9.863 -1.1814 -0.2982 -1.4605
 6840TIP3    H244716   2.237   0.231   9.886 -0.6061  0.4138 -1.3904
 6841TIP3   OH244717   2.409   1.671   9.044  0.0529 -0.2486  0.0695
 6841TIP3    H144718   2.343   1.636   9.105 -0.7900  0.7745 -0.2302
 6841TIP3    H244719   2.400   1.766   9.050  1.2741 -0.0967 -0.2462
 6842TIP3   OH244720   7.068   0.511  10.078 -0.0231  0.0454 -0.5529
 6842TIP3    H144721   6.984   0.468  10.064  0.1595 -0.1078 -1.2020
 6842TIP3    H244722   7.076   0.518  10.173 -1.7257  1.9454 -0.4930
 6843TIP3   OH244723   6.084   2.853  10.748 -0.5028  0.0227  0.3216
 6843TIP3    H144724   6.035   2.927  10.711  0.6733  0.7312  0.1233
 6843TIP3    H244725   6.017   2.793  10.779 -1.5211  1.6601  1.4703
 6844TIP3   OH244726   1.607   4.039   8.901 -0.1901  0.0521 -0.0931
 6844TIP3    H144727   1.587   3.987   8.979 -1.3295 -0.7263 -0.8870
 6844TIP3    H244728   1.678   3.991   8.858  0.5531  0.5665  0.5070
 6845TIP3   OH244729   3.338   4.886  10.237 -0.1698 -0.3993  0.3523
 6845TIP3    H144730   3.285   4.807  10.229  0.1379 -0.5636 -0.1381
 6845TIP3    H244731   3.413   4.859  10.289  0.0087 -0.4735  0.0613
 6846TIP3   OH244732   2.817   5.896   9.911  0.6062  0.1772 -0.1700
 6846TIP3    H144733   2.797   5.807   9.938 -0.2224  0.4518  0.1479
 6846TIP3    H244734   2.751   5.917   9.845  0.4885  0.7273  0.1192
 6847TIP3   OH244735   8.098   5.083   9.495  0.0138  0.1911 -0.4274
 6847TIP3    H144736   8.064   5.136   9.422 -0.2757  1.9968  0.9543
 6847TIP3    H244737   8.023   5.074   9.554  0.9949  1.3070  1.0469
 6848TIP3   OH244738   0.016   0.518   9.674  0.6127 -0.3127 -0.3910
 6848TIP3    H144739   0.109   0.499   9.669  1.2480  2.5740 -1.2429
 6848TIP3    H244740   0.005   0.566   9.757 -0.1765 -0.7936 -0.1973
 6849TIP3   OH244741   5.936   6.170  10.652  0.6186  0.2768  0.1442
 6849TIP3    H144742   5.927   6.090  10.704 -1.4088 -0.1847 -0.8096
 6849TIP3    H244743   5.849   6.183  10.614  0.8098  3.0958  0.4750
 6850TIP3   OH244744   1.422   8.214   9.968 -0.0428 -0.5572 -0.2052
 6850TIP3    H144745   1.359   8.207   9.897  0.4950  0.0582 -0.7511
 6850TIP3    H244746   1.470   8.295   9.951  0.1930 -0.4702  0.7795
 6851TIP3   OH244747   1.764   8.387  10.041 -0.2266 -0.6495  0.6671
 6851TIP3    H144748   1.763   8.390   9.946 -2.0711  1.7444  0.6612
 6851TIP3    H244749   1.789   8.476  10.067  0.5658 -1.3429  2.4536
 6852TIP3   OH244750   4.199   1.606   8.799  0.0241 -0.1135  0.1444
 6852TIP3    H144751   4.147   1.684   8.817  0.0429  0.7673 -3.0401
 6852TIP3    H244752   4.282   1.640   8.765  0.1202 -1.4646 -1.0918
 6853TIP3   OH244753   6.050   1.721   8.595  0.5048 -0.0799 -0.1519
 6853TIP3    H144754   5.955   1.731   8.600  0.5071 -0.2885  0.2853
 6853TIP3    H244755   6.068   1.718   8.501  0.1247  0.3864 -0.2476
 6854TIP3   OH244756   8.278   4.428  10.432  0.5777  0.4206 -0.5344
 6854TIP3    H144757   8.216   4.397  10.498  0.8293  1.3404  0.1541
 6854TIP3    H244758   8.359   4.379  10.450  0.1545 -0.5578 -1.2409
 6855TIP3   OH244759   3.628   0.741  10.064 -0.9875 -0.4320  0.3885
 6855TIP3    H144760   3.716   0.762  10.034 -0.7233 -1.1251  0.6413
 6855TIP3    H244761   3.636   0.653  10.101 -2.0403 -1.0193 -0.6981
 6856TIP3   OH244762   3.634   1.451   9.059  0.0711 -0.0586 -0.1457
 6856TIP3    H144763   3.696   1.463   9.130  3.4339 -3.6094 -2.0972
 6856TIP3    H244764   3.562   1.400   9.097  1.3655 -1.1320  0.9441
 6857TIP3   OH244765   6.098   5.696   9.288  0.4477  0.4606  0.5660
 6857TIP3    H144766   6.086   5.760   9.218  0.0629  0.0592  0.2581
 6857TIP3    H244767   6.175   5.645   9.262  1.3842  1.4470  1.3221
 6858TIP3   OH244768   1.326   5.656  10.827  0.2150  0.2848 -0.0695
 6858TIP3    H144769   1.396   5.706  10.868 -0.7192  1.1777  0.5013
 6858TIP3    H244770   1.350   5.565  10.841  1.5055  0.5717 -0.3468
 6859TIP3   OH244771   2.309   2.370   9.786 -0.4274  0.0219  0.3816
 6859TIP3    H144772   2.309   2.317   9.866  1.5326 -0.7722 -0.0835
 6859TIP3    H244773   2.379   2.333   9.733 -0.4286  1.7402 -0.8975
 6860TIP3   OH244774   4.524   2.503   9.462  0.0741  0.5269 -0.2258
 6860TIP3    H144775   4.431   2.523   9.446 -0.0757  0.5660  0.6387
 6860TIP3    H244776   4.541   2.426   9.408 -0.5199  0.3981 -0.2441
 6861TIP3   OH244777   5.397   3.698   9.254  0.3977  0.4354 -0.6491
 6861TIP3    H144778   5.350   3.760   9.198 -2.3648 -1.2525 -0.3970
 6861TIP3    H244779   5.335   3.677   9.324  1.5948 -1.8283 -0.1606
 6862TIP3   OH244780   0.677   4.985   9.920  0.4240 -0.1610 -0.2582
 6862TIP3    H144781   0.614   4.913   9.926  0.2556 -0.3593 -2.9572
 6862TIP3    H244782   0.623   5.062   9.900  0.7092  0.5371  1.5096
 6863TIP3   OH244783   1.012   1.300   9.453  0.5831 -0.4892 -0.0040
 6863TIP3    H144784   1.023   1.282   9.546 -0.4887  0.3808  0.3161
 6863TIP3    H244785   1.094   1.343   9.428  2.2402 -3.5132 -0.2718
 6864TIP3   OH244786   3.344   2.198  10.126 -0.5980  0.2151  0.1019
 6864TIP3    H144787   3.347   2.105  10.149 -1.6360 -0.0416 -0.7411
 6864TIP3    H244788   3.421   2.210  10.070 -1.1123 -0.4384 -0.7850
 6865TIP3   OH244789   7.878   1.580   9.986 -0.5158  0.0079  0.2315
 6865TIP3    H144790   7.863   1.519   9.914 -1.7441  0.9657 -0.3541
 6865TIP3    H244791   7.791   1.599  10.021  0.0671 -0.6031  2.1447
 6866TIP3   OH244792   1.242   6.195   9.589 -0.1884  0.2931 -0.7702
 6866TIP3    H144793   1.162   6.238   9.559  0.6051  1.0567 -1.8968
 6866TIP3    H244794   1.310   6.262   9.580  0.3644  0.1210  1.5078
 6867TIP3   OH244795   1.598   2.368   9.415 -0.1214 -0.0329  0.4003
 6867TIP3    H144796   1.646   2.295   9.454  0.2978 -0.2759 -0.5275
 6867TIP3    H244797   1.601   2.437   9.481 -0.7688 -0.9409  1.4122
 6868TIP3   OH244798   6.726   7.171   9.817 -0.5924  0.0237  0.6957
 6868TIP3    H144799   6.770   7.214   9.745 -2.0655 -1.5247 -1.2517
 6868TIP3    H244800   6.659   7.233   9.845 -1.8630 -0.3935 -1.2253
 6869TIP3   OH244801   1.596   3.334   9.589  0.3104 -0.2721  0.5881
 6869TIP3    H144802   1.529   3.332   9.520 -0.5961  0.4295  1.4307
 6869TIP3    H244803   1.547   3.338   9.671  1.3805 -0.9040  1.2917
 6870TIP3   OH244804   7.416   4.071  10.197 -0.2748  0.1633  0.3045
 6870TIP3    H144805   7.438   4.076  10.104  1.6394  3.5329  0.7684
 6870TIP3    H244806   7.485   4.018  10.236 -1.3480 -1.6719 -0.1701
 6871TIP3   OH244807   1.450   7.258   9.827 -0.0623  0.4076 -0.0816
 6871TIP3    H144808   1.525   7.292   9.779  0.7574 -0.1981  0.7385
 6871TIP3    H244809   1.385   7.239   9.760  0.6293  0.6415 -0.8312
 6872TIP3   OH244810   4.449   6.517   9.527  0.0830  0.2242 -0.5395
 6872TIP3    H144811   4.530   6.467   9.537  0.1156  0.6733  1.8659
 6872TIP3    H244812   4.475   6.593   9.475  1.0232 -0.0401 -0.4832
 6873TIP3   OH244813   0.090   6.194  10.659  0.2561 -0.0901  0.5366
 6873TIP3    H144814   0.122   6.238  10.581  2.9916 -1.7384  0.6058
 6873TIP3    H244815   0.123   6.247  10.732 -0.2328  0.1318  0.6005
 6874TIP3   OH244816   0.252   6.954   9.638 -0.5101  0.3760  1.1162
 6874TIP3    H144817   0.166   6.948   9.595  0.3316  1.9692 -1.0112
 6874TIP3    H244818   0.268   7.048   9.645  2.6108  0.2776 -2.0716
 6875TIP3   OH244819   7.761   7.582   8.623  0.3018  0.4722 -0.2826
 6875TIP3    H144820   7.823   7.540   8.562  1.0732  0.3714  0.5502
 6875TIP3    H244821   7.812   7.652   8.664 -0.1481  0.4076  0.3985
 6876TIP3   OH244822   3.211   5.845   8.965 -0.2364 -0.8558 -0.0431
 6876TIP3    H144823   3.179   5.907   8.901 -2.2855 -0.1393  1.5702
 6876TIP3    H244824   3.303   5.868   8.977 -0.8638  1.7340  0.2999
 6877TIP3   OH244825   8.448   7.808  10.038  0.0525 -0.3681 -0.1430
 6877TIP3    H144826   8.486   7.720  10.037  1.6985  0.2705 -2.4817
 6877TIP3    H244827   8.506   7.860   9.983 -1.0051  2.1648  0.9768
 6878TIP3   OH244828   8.421   1.738   8.813 -0.0644 -0.2792  0.3667
 6878TIP3    H144829   8.425   1.682   8.891 -2.2272 -0.5948  0.3054
 6878TIP3    H244830   8.342   1.790   8.825 -1.1018 -1.1684 -2.1330
 6879TIP3   OH244831   5.678   5.835   9.373 -0.4723 -0.5230 -0.3515
 6879TIP3    H144832   5.646   5.813   9.285  1.4501 -2.4549 -0.6565
 6879TIP3    H244833   5.652   5.761   9.427  0.5573 -0.5485  0.1225
 6880TIP3   OH244834   7.118   4.737   8.984 -0.2242 -0.2491 -0.6332
 6880TIP3    H144835   7.048   4.783   8.939 -0.9786 -0.9073 -0.1671
 6880TIP3    H244836   7.129   4.656   8.935  0.1866 -0.1689 -0.6780
 6881TIP3   OH244837   5.330   0.334  10.215  0.0096  0.0437 -0.2303
 6881TIP3    H144838   5.264   0.379  10.268 -0.0302 -1.2121  0.8391
 6881TIP3    H244839   5.285   0.257  10.180  0.6722 -0.3840 -0.1635
 6882TIP3   OH244840   6.237   1.580   9.538  0.4993  0.1403  0.0789
 6882TIP3    H144841   6.212   1.623   9.619  0.2909 -1.0994  0.6993
 6882TIP3    H244842   6.332   1.572   9.542  0.3670 -1.3916  1.0092
 6883TIP3   OH244843   7.540   0.675   9.785  0.0555 -0.1343 -0.7901
 6883TIP3    H144844   7.459   0.625   9.784  0.3625 -0.7018  0.6109
 6883TIP3    H244845   7.567   0.676   9.877  0.8392  1.3488 -1.0041
 6884TIP3   OH244846   0.475   7.949   9.165 -0.2011  0.2456 -0.0605
 6884TIP3    H144847   0.482   7.896   9.086 -1.6626 -0.2487  0.1202
 6884TIP3    H244848   0.535   7.908   9.227 -1.7564 -1.6231  0.2799
 6885TIP3   OH244849   7.078   5.154   8.954  0.0877 -0.5277 -0.6093
 6885TIP3    H144850   7.146   5.209   8.994 -0.5531 -0.3851  0.3072
 6885TIP3    H244851   6.998   5.205   8.963  0.0760  0.0871 -3.2374
 6886TIP3   OH244852   7.213   7.005   9.993 -0.1062 -0.0306 -0.4915
 6886TIP3    H144853   7.209   6.940   9.923  0.3988  0.3195 -0.8480
 6886TIP3    H244854   7.283   7.065   9.967  0.0435  0.1424  0.2783
 6887TIP3   OH244855   4.135   2.473   9.046 -0.3384 -0.2435  0.0053
 6887TIP3    H144856   4.080   2.502   8.973 -1.1187 -0.8212  0.3353
 6887TIP3    H244857   4.090   2.505   9.124  0.0047 -0.3913  0.2670
 6888TIP3   OH244858   3.109   0.646   8.342 -0.2179 -0.4545  0.5588
 6888TIP3    H144859   3.201   0.624   8.349  0.1536  0.5577 -0.7602
 6888TIP3    H244860   3.094   0.713   8.408 -0.1208 -0.9025  1.0422
 6889TIP3   OH244861   2.198   2.293  10.039 -0.0014 -0.2788  0.1735
 6889TIP3    H144862   2.161   2.206  10.024  2.0384 -1.2081  0.1745
 6889TIP3    H244863   2.230   2.290  10.129  0.7862  0.1955 -0.0791
 6890TIP3   OH244864   4.943   2.064  10.659  0.5163 -0.4798  0.0549
 6890TIP3    H144865   4.902   2.077  10.574  1.0900  2.3590  0.1152
 6890TIP3    H244866   4.933   2.148  10.704 -0.5802 -2.1232  3.1971
 6891TIP3   OH244867   8.078   4.697   9.036  0.2762  0.1743 -0.0743
 6891TIP3    H144868   8.089   4.614   9.082 -0.1148  0.9110  1.4122
 6891TIP3    H244869   8.162   4.741   9.046  0.9456 -0.5432 -2.0160
 6892TIP3   OH244870   7.340   3.189   8.854  0.3446  0.0910 -0.4084
 6892TIP3    H144871   7.333   3.220   8.763 -1.3526  1.6144  0.1685
 6892TIP3    H244872   7.407   3.245   8.893  0.6851 -0.1982 -0.5707
 6893TIP3   OH244873   3.474   0.101   9.259  0.1813 -0.5910  0.5143
 6893TIP3    H144874   3.415   0.096   9.184  0.0067 -0.8591  0.6682
 6893TIP3    H244875   3.557   0.064   9.226 -0.3486 -2.2338  0.8956
 6894TIP3   OH244876   6.517   1.581   9.573 -0.2400 -0.0854 -0.1200
 6894TIP3    H144877   6.582   1.524   9.531  1.3432  0.8706  0.9002
 6894TIP3    H244878   6.517   1.660   9.518 -0.3028  0.0317  0.0485
 6895TIP3   OH244879   4.787   3.234   9.594  0.2213 -0.2344  0.1740
 6895TIP3    H144880   4.846   3.240   9.670 -0.1633 -0.4541  0.4965
 6895TIP3    H244881   4.713   3.291   9.617  0.3492  0.1098 -0.2651
 6896TIP3   OH244882   4.608   5.692   9.093  0.3729 -0.6199 -0.2730
 6896TIP3    H144883   4.533   5.746   9.070  0.4974  0.4394  1.6422
 6896TIP3    H244884   4.637   5.654   9.010 -3.0916 -2.2155 -0.9348
 6897TIP3   OH244885   5.492   1.280   8.828 -0.3450 -0.0205 -0.0206
 6897TIP3    H144886   5.434   1.307   8.757 -1.1528 -0.7686  0.3383
 6897TIP3    H244887   5.435   1.232   8.889  0.3795  0.4090  1.0152
 6898TIP3   OH244888   0.700   2.462   9.128 -0.1447 -0.0290 -0.1643
 6898TIP3    H144889   0.754   2.540   9.138  0.5184 -0.6567  1.7097
 6898TIP3    H244890   0.611   2.491   9.149  0.0700  0.2826  0.3291
 6899TIP3   OH244891   0.906   5.660   9.367 -0.4078  0.2799  0.4009
 6899TIP3    H144892   0.931   5.650   9.275 -1.8061 -1.7659  0.1805
 6899TIP3    H244893   0.972   5.610   9.415 -0.7659 -0.2711  0.3267
 6900TIP3   OH244894   3.968   7.906   9.894 -0.1157 -0.3762  0.5065
 6900TIP3    H144895   3.890   7.862   9.861 -0.7361  1.3895 -0.5317
 6900TIP3    H244896   4.028   7.835   9.916 -0.5661 -1.7735 -2.2730
 6901TIP3   OH244897   5.603   0.168   9.821  0.0127  0.0715  0.3748
 6901TIP3    H144898   5.582   0.190   9.912 -0.1042  2.1777 -0.1192
 6901TIP3    H244899   5.527   0.195   9.771  0.6600  0.2925 -0.5121
 6902TIP3   OH244900   3.695   3.693   8.529  0.2217 -0.0911  0.0670
 6902TIP3    H144901   3.612   3.725   8.564  0.2527 -2.1527  2.2898
 6902TIP3    H244902   3.670   3.628   8.464  0.1104  0.0288 -0.0099
 6903TIP3   OH244903   3.013   4.915  10.285  0.7838  0.0762 -0.1925
 6903TIP3    H144904   3.107   4.913  10.270  1.1334  0.8737  1.6527
 6903TIP3    H244905   2.997   4.998  10.328 -1.0301  0.6595 -1.8287
 6904TIP3   OH244906   0.227   3.333  10.819  0.4214 -0.0977  0.9589
 6904TIP3    H144907   0.189   3.246  10.827  0.5839 -0.2322  0.3454
 6904TIP3    H244908   0.322   3.318  10.817  0.4240 -0.0811 -0.8012
 6905TIP3   OH244909   8.415   1.812   9.457 -0.0446  0.4849 -0.3202
 6905TIP3    H144910   8.321   1.828   9.466  0.1407  1.0659  0.8547
 6905TIP3    H244911   8.441   1.860   9.378 -0.2914  2.5852  0.7901
 6906TIP3   OH244912   5.685   4.401   9.702  0.3888  0.1058 -0.7864
 6906TIP3    H144913   5.711   4.334   9.639 -1.1559  0.3181 -1.6716
 6906TIP3    H244914   5.723   4.482   9.669 -0.6652  0.2687 -1.6271
 6907TIP3   OH244915   0.276   2.755   9.404  0.0289 -0.0479 -0.1713
 6907TIP3    H144916   0.265   2.740   9.310 -0.4241  0.1266 -0.1521
 6907TIP3    H244917   0.315   2.842   9.410  1.5673 -0.7132 -0.2432
 6908TIP3   OH244918   3.448   8.160  10.111 -0.7865  0.5834  0.9099
 6908TIP3    H144919   3.435   8.222  10.039 -0.9424 -0.0560  0.3800
 6908TIP3    H244920   3.368   8.108  10.112  0.0230 -0.7083  0.2591
 6909TIP3   OH244921   7.943   1.368  10.639  0.3311  0.1292 -0.1383
 6909TIP3    H144922   7.891   1.374  10.558  0.0606  0.3544  0.0507
 6909TIP3    H244923   7.928   1.279  10.670 -1.5095  0.7559  0.9446
 6910TIP3   OH244924   5.740   4.581   9.341  0.1354 -0.3777  0.2334
 6910TIP3    H144925   5.741   4.617   9.430 -0.3315 -0.7330  0.3893
 6910TIP3    H244926   5.831   4.553   9.326  0.2482 -0.1892  0.5443
 6911TIP3   OH244927   2.505   2.089  10.495  0.0415  0.0228 -0.5381
 6911TIP3    H144928   2.534   2.180  10.491  1.1677 -0.2906  0.1785
 6911TIP3    H244929   2.558   2.049  10.565 -1.3593 -0.8552  0.0679
 6912TIP3   OH244930   0.238   3.957  10.629 -0.1651  0.3425  0.3214
 6912TIP3    H144931   0.218   4.003  10.711 -0.5761  0.7707 -0.0126
 6912TIP3    H244932   0.301   4.015  10.585  1.3273 -0.6545  1.0486
 6913TIP3   OH244933   1.616   7.921   8.747 -0.5885 -0.1705 -0.3875
 6913TIP3    H144934   1.613   8.016   8.763  1.8214  0.0380 -0.8670
 6913TIP3    H244935   1.686   7.890   8.804 -2.0528 -1.9107  0.5849
 6914TIP3   OH244936   7.810   5.071   9.103 -0.5173  0.1060 -0.4290
 6914TIP3    H144937   7.833   5.030   9.186  0.3910  2.2370  0.4667
 6914TIP3    H244938   7.841   5.010   9.036 -0.9119 -1.4719  0.7854
 6915TIP3   OH244939   3.773   1.180   9.205  0.0378 -0.1728 -0.4788
 6915TIP3    H144940   3.712   1.225   9.263  1.9147  0.0031  1.4956
 6915TIP3    H244941   3.828   1.249   9.168  0.9508 -0.5380  0.1517
 6916TIP3   OH244942   5.071   2.650  10.092 -0.4993  0.3821  0.2999
 6916TIP3    H144943   5.051   2.736  10.127 -1.3674  0.4404 -0.2941
 6916TIP3    H244944   4.985   2.611  10.074 -0.1081 -0.2510 -0.2637
 6917TIP3   OH244945   0.188   7.274   9.127 -0.3839 -0.2500 -0.4402
 6917TIP3    H144946   0.256   7.261   9.060  0.4408 -1.3900  0.5709
 6917TIP3    H244947   0.109   7.238   9.088 -0.0373 -0.4274 -0.9947
 6918TIP3   OH244948   7.859   1.759   9.308 -0.4535 -0.1181 -0.1297
 6918TIP3    H144949   7.805   1.707   9.367  0.8783 -0.8131  0.5115
 6918TIP3    H244950   7.811   1.759   9.225 -1.2843 -0.9763  0.3349
 6919TIP3   OH244951   0.301   0.320  10.937 -0.2363  0.8545  0.2106
 6919TIP3    H144952   0.219   0.272  10.947  0.3013 -0.6998 -2.1797
 6919TIP3    H244953   0.277   0.412  10.952 -2.4186  0.4564 -0.5000
 6920TIP3   OH244954   4.268   6.654   8.715 -0.6922 -0.0210  0.5188
 6920TIP3    H144955   4.233   6.743   8.714 -2.3098 -0.6398 -0.3840
 6920TIP3    H244956   4.194   6.599   8.739 -0.4316 -1.3935 -1.6170
 6921TIP3   OH244957   4.857   4.675   9.065  0.1534  0.6216  0.4758
 6921TIP3    H144958   4.818   4.762   9.075  0.3938  1.0816 -1.8833
 6921TIP3    H244959   4.944   4.692   9.030 -0.3658 -0.5571 -1.5658
 6922TIP3   OH244960   2.303   8.072  10.537 -0.1127 -0.1269  0.1323
 6922TIP3    H144961   2.383   8.052  10.586 -0.1384 -0.6546 -0.0361
 6922TIP3    H244962   2.285   8.164  10.558 -0.4903 -0.5103  1.6626
 6923TIP3   OH244963   6.002   2.323   9.371  0.0641  0.1475  0.0832
 6923TIP3    H144964   6.017   2.364   9.457 -0.8265 -0.0987  0.3693
 6923TIP3    H244965   6.058   2.373   9.311 -1.0187  1.8420  0.4045
 6924TIP3   OH244966   8.318   5.255  10.440 -0.4781  0.3023 -0.3146
 6924TIP3    H144967   8.272   5.181  10.480  0.2177  0.3358  0.5802
 6924TIP3    H244968   8.275   5.332  10.475 -0.4530  0.3238 -0.3311
 6925TIP3   OH244969   1.237   1.437   9.376 -0.6209 -0.1875 -0.1017
 6925TIP3    H144970   1.311   1.494   9.397 -1.7827  0.7861  1.5672
 6925TIP3    H244971   1.199   1.475   9.297  1.0465 -1.1489 -1.4417
 6926TIP3   OH244972   4.239   2.232  10.495 -0.1088  0.5923  0.2352
 6926TIP3    H144973   4.334   2.241  10.500  0.0759 -0.6060 -0.6357
 6926TIP3    H244974   4.221   2.144  10.530 -1.1435  1.6143  2.4689
 6927TIP3   OH244975   2.182   6.526   9.788 -0.4572 -0.0056 -0.1543
 6927TIP3    H144976   2.255   6.468   9.764 -0.9637 -0.4488 -0.6379
 6927TIP3    H244977   2.113   6.467   9.816 -0.7982  0.3947 -0.1482
 6928TIP3   OH244978   6.719   7.334  10.815  0.5391 -0.4688 -0.0773
 6928TIP3    H144979   6.793   7.388  10.787  0.0878  0.2766  0.1360
 6928TIP3    H244980   6.703   7.275  10.742 -0.3640  1.1631 -1.2650
 6929TIP3   OH244981   2.072   6.768  10.192  0.2306 -0.7429 -0.3272
 6929TIP3    H144982   2.146   6.749  10.134  0.4131 -1.5640  0.1586
 6929TIP3    H244983   2.068   6.693  10.251  1.0307  0.7375  1.7625
 6930TIP3   OH244984   1.148   4.786   8.725  0.1515  0.5534 -0.4639
 6930TIP3    H144985   1.106   4.803   8.809 -0.2991  0.4286 -0.6567
 6930TIP3    H244986   1.076   4.755   8.669  0.2762  1.4651 -1.1438
 6931TIP3   OH244987   3.609   0.590   9.450 -0.0794  0.3025 -0.0854
 6931TIP3    H144988   3.636   0.549   9.368  0.7545  2.1203 -0.7735
 6931TIP3    H244989   3.532   0.540   9.477 -0.2366 -0.4917 -1.8481
 6932TIP3   OH244990   0.998   2.284   9.615  0.1886  0.5487 -0.2018
 6932TIP3    H144991   1.009   2.214   9.680 -0.7642 -1.5345 -2.1664
 6932TIP3    H244992   1.086   2.320   9.604  0.5586  0.2425  1.4132
 6933TIP3   OH244993   0.695   3.457  10.238  0.0756  0.0245 -0.2565
 6933TIP3    H144994   0.619   3.412  10.273 -0.8629  1.6222 -0.1353
 6933TIP3    H244995   0.744   3.389  10.192 -0.9414 -1.2208  0.4364
 6934TIP3   OH244996   0.788   1.667   8.694  0.4690  0.1150  0.0697
 6934TIP3    H144997   0.702   1.659   8.736 -0.1816 -4.3700 -1.5703
 6934TIP3    H244998   0.769   1.667   8.600  2.2184 -0.2273 -0.3221
 6935TIP3   OH244999   7.554   5.715   9.213 -0.3112  0.2332  0.0761
 6935TIP3    H145000   7.554   5.703   9.118  0.3384 -0.9909  0.2076
 6935TIP3    H245001   7.475   5.670   9.243 -0.8249  1.1183  0.0710
 6936TIP3   OH245002   0.489   4.301   9.149 -0.4440 -0.0707 -0.5478
 6936TIP3    H145003   0.581   4.275   9.146 -0.0774  1.1306 -0.2365
 6936TIP3    H245004   0.473   4.338   9.062 -0.6453 -0.2953 -0.6068
 6937TIP3   OH245005   3.966   4.260  10.054  0.3301 -0.1040 -0.4667
 6937TIP3    H145006   3.993   4.182  10.006 -1.8791 -1.2389  0.0384
 6937TIP3    H245007   3.979   4.238  10.146  0.8554  0.6146 -0.3567
 6938TIP3   OH245008   0.145   6.150   9.038 -0.7964  0.5651  0.6992
 6938TIP3    H145009   0.132   6.138   8.944 -0.7231 -2.3182  0.9752
 6938TIP3    H245010   0.056   6.150   9.074 -0.7838 -0.6765  0.7974
 6939TIP3   OH245011   3.148   7.202   9.888 -0.1275  0.3935  0.2282
 6939TIP3    H145012   3.133   7.255   9.810  0.1544  1.6872  1.0214
 6939TIP3    H245013   3.062   7.167   9.910 -0.7868  2.2840  0.8867
 6940TIP3   OH245014   3.676   3.734   9.514 -0.0190  0.8071  0.1316
 6940TIP3    H145015   3.703   3.823   9.492 -0.9983  0.5484 -2.4469
 6940TIP3    H245016   3.726   3.678   9.454  0.5693 -0.4479  1.6870
 6941TIP3   OH245017   0.206   5.918  10.607  0.0294  0.0729 -0.0356
 6941TIP3    H145018   0.224   6.005  10.573 -1.0108  0.7411  1.0414
 6941TIP3    H245019   0.132   5.930  10.667  0.0615 -1.4939  0.3729
 6942TIP3   OH245020   4.481   6.763   9.328  0.3739  0.4353 -0.7636
 6942TIP3    H145021   4.544   6.827   9.362  1.1794 -0.0635 -1.2940
 6942TIP3    H245022   4.396   6.797   9.356  0.9846 -0.1178  2.0773
 6943TIP3   OH245023   2.294   6.923   8.568 -0.3542  0.1374 -0.1344
 6943TIP3    H145024   2.298   7.013   8.600 -1.6238  0.7603 -1.5645
 6943TIP3    H245025   2.338   6.926   8.483  0.6663 -0.8719  0.3440
 6944TIP3   OH245026   4.679   2.261   9.361  0.1957  0.7229  0.4743
 6944TIP3    H145027   4.704   2.278   9.271  2.0034 -0.0168  0.7928
 6944TIP3    H245028   4.762   2.260   9.409 -0.4836 -1.3661  1.7105
 6945TIP3   OH245029   3.186   4.283   8.584 -0.2764 -0.1315 -0.3578
 6945TIP3    H145030   3.222   4.314   8.501 -1.1495  0.2488 -0.6070
 6945TIP3    H245031   3.185   4.362   8.639  1.8526 -0.6945  0.6199
 6946TIP3   OH245032   6.600   1.249  10.212  0.3604  0.1709  0.2627
 6946TIP3    H145033   6.618   1.198  10.290  1.0172 -0.2295 -0.1384
 6946TIP3    H245034   6.660   1.213  10.146 -1.2882 -0.5880 -0.8782
 6947TIP3   OH245035   6.365   4.073  10.234 -0.5789 -0.3667 -0.3961
 6947TIP3    H145036   6.316   4.112  10.307 -0.8904 -0.4823 -0.5413
 6947TIP3    H245037   6.455   4.103  10.247 -0.7610  0.1635 -0.3443
 6948TIP3   OH245038   4.871   4.977   9.714  0.0209  0.2454  0.4390
 6948TIP3    H145039   4.874   5.072   9.704  0.3038  0.1861 -0.0590
 6948TIP3    H245040   4.962   4.948   9.705 -0.1477 -0.1371 -0.1533
 6949TIP3   OH245041   2.715   0.217   8.924 -0.0993 -0.3063  0.4936
 6949TIP3    H145042   2.803   0.195   8.891 -0.1741  0.6053 -0.3566
 6949TIP3    H245043   2.657   0.154   8.880 -0.2177  0.9879 -1.3229
 6950TIP3   OH245044   8.241   1.110   9.315  0.3396  0.1995  0.0061
 6950TIP3    H145045   8.259   1.205   9.311 -0.3352  0.4312  1.7763
 6950TIP3    H245046   8.324   1.072   9.345  0.8888  0.0971 -1.5563
 6951TIP3   OH245047   1.696   2.821   8.837  1.0052 -0.1611  0.4371
 6951TIP3    H145048   1.647   2.904   8.844  0.7713 -0.2942  0.3810
 6951TIP3    H245049   1.640   2.757   8.880  0.1342 -0.7459 -1.4739
 6952TIP3   OH245050   0.557   0.069  10.320  0.0267  0.4811 -0.0701
 6952TIP3    H145051   0.528   0.016  10.245 -0.8826  1.6739 -0.5918
 6952TIP3    H245052   0.492   0.051  10.388 -0.2947  0.9372 -0.2543
 6953TIP3   OH245053   6.552   3.644   9.777  0.3661 -0.1411  0.0094
 6953TIP3    H145054   6.464   3.681   9.786  0.2614 -0.0741 -1.1060
 6953TIP3    H245055   6.577   3.620   9.866  0.4121  2.5096  0.7853
 6954TIP3   OH245056   1.206   3.538   9.653  0.3039 -0.0295  0.0224
 6954TIP3    H145057   1.196   3.616   9.708 -1.2869 -0.3481  0.2444
 6954TIP3    H245058   1.239   3.571   9.570 -0.9580  1.0084 -0.1101
 6955TIP3   OH245059   5.906   6.830   9.781  0.3064 -0.2253 -0.1384
 6955TIP3    H145060   5.947   6.762   9.727  2.4074  0.4359  0.5351
 6955TIP3    H245061   5.932   6.809   9.871  3.7152  3.0498 -0.1177
 6956TIP3   OH245062   3.793   0.572   9.184  0.3491  0.0897  0.8785
 6956TIP3    H145063   3.870   0.530   9.223  1.2052 -2.1922 -2.7810
 6956TIP3    H245064   3.726   0.504   9.186  0.6178 -0.3751 -1.8857
 6957TIP3   OH245065   2.478   0.936  10.521 -0.0666 -0.2373 -0.1126
 6957TIP3    H145066   2.460   1.030  10.514  0.7363 -0.1347 -1.1056
 6957TIP3    H245067   2.406   0.901  10.573  0.3247  1.1448  1.4259
 6958TIP3   OH245068   3.729   4.379   9.925  0.1878  0.5895  0.2749
 6958TIP3    H145069   3.813   4.336   9.938  0.3962  0.5021 -1.2115
 6958TIP3    H245070   3.751   4.472   9.912  0.1463  0.4454 -0.9146
 6959TIP3   OH245071   7.432   4.072   9.906 -0.1069  0.7629  0.4933
 6959TIP3    H145072   7.492   4.144   9.884  0.5448 -0.0551 -0.5443
 6959TIP3    H245073   7.490   3.999   9.926 -0.6406 -0.6778 -2.5794
 6960TIP3   OH245074   6.959   0.883  10.530  0.3845  0.1272  0.3470
 6960TIP3    H145075   6.878   0.898  10.480  1.4237  2.2179 -0.8202
 6960TIP3    H245076   6.954   0.790  10.554 -1.4895 -0.2832 -1.2699
 6961TIP3   OH245077   0.191   2.407   9.555 -0.0886  0.7677  0.1011
 6961TIP3    H145078   0.283   2.429   9.540  0.0313 -0.0757 -0.4772
 6961TIP3    H245079   0.172   2.439   9.643  0.2938  2.3849 -0.3740
 6962TIP3   OH245080   4.844   3.286   9.842  0.4063  0.4559 -0.3808
 6962TIP3    H145081   4.930   3.257   9.873  0.3905  0.6204 -0.1830
 6962TIP3    H245082   4.784   3.261   9.913  0.4635  1.4349  0.0250
 6963TIP3   OH245083   0.575   8.254   9.170  0.0578  0.2783  0.1460
 6963TIP3    H145084   0.574   8.224   9.261  0.3911  0.5750  0.2503
 6963TIP3    H245085   0.513   8.196   9.125  0.7080 -0.5706  0.3332
 6964TIP3   OH245086   3.774   7.143   9.775  0.0701 -0.3367  0.3942
 6964TIP3    H145087   3.836   7.092   9.827  0.7801 -1.0119 -1.0518
 6964TIP3    H245088   3.827   7.211   9.734 -0.3435 -0.1983  0.0750
 6965TIP3   OH245089   7.545   6.506  10.521 -0.2518  0.2552  0.6346
 6965TIP3    H145090   7.571   6.417  10.500  1.5925  1.1299 -1.2015
 6965TIP3    H245091   7.591   6.526  10.602 -1.1321 -0.5971  1.3749
 6966TIP3   OH245092   8.358   1.248   8.998  0.6204 -0.1891 -0.2092
 6966TIP3    H145093   8.283   1.190   9.010 -0.1359  0.8624  0.2985
 6966TIP3    H245094   8.429   1.191   8.968 -0.3273 -1.2289 -0.5031
 6967TIP3   OH245095   3.859   1.813   9.710  0.0893  0.5450 -0.4768
 6967TIP3    H145096   3.779   1.823   9.762 -0.6305  0.0839 -1.4740
 6967TIP3    H245097   3.852   1.727   9.670 -0.0132  1.4023 -2.3904
 6968TIP3   OH245098   1.787   3.146  10.014 -0.9162  0.1130 -0.4414
 6968TIP3    H145099   1.832   3.217   9.968  2.9442 -1.7071  0.1415
 6968TIP3    H245100   1.795   3.070   9.956  0.3746 -1.2031  1.3403
 6969TIP3   OH245101   3.147   6.140   9.201 -0.3618  0.0604  0.0035
 6969TIP3    H145102   3.094   6.097   9.134  0.5369  0.2199 -0.8382
 6969TIP3    H245103   3.136   6.233   9.184  0.9296  0.0913 -0.8121
 6970TIP3   OH245104   0.039   1.487   8.922 -0.7815 -0.9935  0.2232
 6970TIP3    H145105   0.005   1.403   8.953 -1.7551  0.3310  3.0677
 6970TIP3    H245106   0.093   1.520   8.994 -2.4431  1.8873  0.3004
 6971TIP3   OH245107   1.360   4.661  10.197  0.4816 -0.0138  0.3583
 6971TIP3    H145108   1.301   4.646  10.123  0.4208 -2.7171  0.8422
 6971TIP3    H245109   1.392   4.750  10.185 -2.5764  1.0589 -0.6965
 6972TIP3   OH245110   3.379   0.251  10.507 -0.2906 -0.1163 -0.0776
 6972TIP3    H145111   3.366   0.337  10.546  0.7006 -0.6039  1.4384
 6972TIP3    H245112   3.301   0.236  10.454 -0.3408  1.8273 -0.6275
 6973TIP3   OH245113   0.372   1.927  10.776 -0.3306 -0.1881 -0.2838
 6973TIP3    H145114   0.366   2.014  10.816 -0.5499 -1.0468  1.6655
 6973TIP3    H245115   0.313   1.931  10.701 -0.0432  1.4431 -0.4706
 6974TIP3   OH245116   8.294   3.571  11.226  0.0329  0.2412 -0.1420
 6974TIP3    H145117   8.235   3.515  11.278  0.8847 -0.4638  0.0994
 6974TIP3    H245118   8.355   3.606  11.290  0.1966  0.5511 -0.4683
 6975TIP3   OH245119   8.146   6.239  10.519  0.1260 -0.1248 -0.4747
 6975TIP3    H145120   8.051   6.230  10.526  0.0999  0.3951 -0.0720
 6975TIP3    H245121   8.174   6.159  10.476 -0.0572 -2.2107  2.9011
 6976TIP3   OH245122   6.489   4.538   9.499  0.5091  0.4258  0.7035
 6976TIP3    H145123   6.483   4.545   9.403  1.5129  0.9261  0.6685
 6976TIP3    H245124   6.398   4.527   9.527  0.2406 -0.2055 -0.3416
 6977TIP3   OH245125   8.318   4.994  11.053 -0.0152 -0.0663  0.3388
 6977TIP3    H145126   8.249   4.991  10.987  0.2213 -0.0743  0.0939
 6977TIP3    H245127   8.320   5.086  11.081 -0.6136 -0.2036  0.8621
 6978TIP3   OH245128   0.966   6.607  10.202 -0.0711 -0.0320  0.2244
 6978TIP3    H145129   0.886   6.591  10.252  0.6430 -0.5051  1.2301
 6978TIP3    H245130   1.022   6.532  10.221 -0.1653 -0.7859 -2.1321
 6979TIP3   OH245131   6.851   0.753   9.851 -0.3087  0.2908  0.1351
 6979TIP3    H145132   6.923   0.788   9.902 -0.6149  2.3671 -0.7584
 6979TIP3    H245133   6.882   0.667   9.822  1.0102  0.3192  1.3373
 6980TIP3   OH245134   4.740   6.653   9.502 -0.6006 -0.0831 -0.3658
 6980TIP3    H145135   4.700   6.569   9.526 -1.3449  0.8349  1.8504
 6980TIP3    H245136   4.773   6.639   9.413 -0.1911 -2.8937  0.1334
 6981TIP3   OH245137   6.788   6.667  10.600 -0.6446  0.2097 -0.0545
 6981TIP3    H145138   6.882   6.679  10.597 -0.3864 -1.6307 -0.6438
 6981TIP3    H245139   6.753   6.738  10.545  0.3610  0.9583  0.2450
 6982TIP3   OH245140   0.807   7.918   9.039  0.7321  0.5735  0.7321
 6982TIP3    H145141   0.804   7.872   8.956  0.4456 -0.3171  1.2210
 6982TIP3    H245142   0.780   8.007   9.018 -1.1103 -0.0732  0.1468
 6983TIP3   OH245143   1.856   0.023   9.268 -0.2920  0.0680  0.4184
 6983TIP3    H145144   1.857  -0.064   9.308 -0.5106  0.1422  0.5858
 6983TIP3    H245145   1.798   0.075   9.324  0.9706  0.7201  1.1646
 6984TIP3   OH245146   4.316   4.369   8.914 -0.1139  0.4385  0.1562
 6984TIP3    H145147   4.365   4.336   8.839  1.1524  3.4547 -0.4932
 6984TIP3    H245148   4.227   4.336   8.902  0.9699 -2.5731 -0.3390
 6985TIP3   OH245149   0.096   2.305   9.275 -0.6018  0.1737 -0.6080
 6985TIP3    H145150   0.128   2.367   9.340 -1.7239 -0.5182  0.6542
 6985TIP3    H245151   0.001   2.322   9.271 -0.5536  0.2306 -2.1092
 6986TIP3   OH245152   5.110   6.100  10.032  0.0995 -0.3015 -0.0832
 6986TIP3    H145153   5.041   6.066  10.089 -0.1738  1.9615  1.0673
 6986TIP3    H245154   5.066   6.164   9.976  0.6463 -1.4344 -1.8789
 6987TIP3   OH245155   2.947   2.787   9.160  0.4114 -0.1161 -0.0828
 6987TIP3    H145156   2.913   2.701   9.183  1.9355 -0.4424  1.1552
 6987TIP3    H245157   2.873   2.833   9.121 -0.5892 -1.7661 -0.2004
 6988TIP3   OH245158   5.084   4.731   8.941  0.6387 -0.1133 -0.1795
 6988TIP3    H145159   5.176   4.740   8.916  0.6945  0.0483  0.0762
 6988TIP3    H245160   5.039   4.800   8.893  0.3845 -1.2044 -1.5798
 6989TIP3   OH245161   0.139   4.947  10.979 -0.0481  0.5359 -0.1314
 6989TIP3    H145162   0.067   4.977  11.035 -1.3635  0.4223 -1.6877
 6989TIP3    H245163   0.173   5.027  10.939 -1.8253  0.3367 -2.2495
 6990TIP3   OH245164   1.727   0.576  10.270  0.7399  0.2666  0.1577
 6990TIP3    H145165   1.694   0.621  10.192  2.5195 -0.0776 -0.8435
 6990TIP3    H245166   1.754   0.647  10.329 -0.7298  0.5290  0.5556
 6991TIP3   OH245167   7.557   3.449  10.912 -0.3274 -0.3130 -0.0961
 6991TIP3    H145168   7.611   3.516  10.954 -0.3445 -0.4741  0.1794
 6991TIP3    H245169   7.573   3.369  10.962  0.6905 -0.8311 -1.2012
 6992TIP3   OH245170   4.545   8.035  10.136  0.1006 -0.2579  0.1040
 6992TIP3    H145171   4.543   8.123  10.097  1.6097 -0.6888 -1.0295
 6992TIP3    H245172   4.453   8.007  10.135 -1.0358  2.4586  3.4250
 6993TIP3   OH245173   8.311   7.259  10.655  0.2501 -0.3908 -0.3094
 6993TIP3    H145174   8.371   7.331  10.673 -0.9133  1.1935 -2.3040
 6993TIP3    H245175   8.367   7.186  10.630  1.4245  1.0921 -2.3023
 6994TIP3   OH245176   3.225   7.992  10.719  0.3827  0.6590  0.4705
 6994TIP3    H145177   3.246   8.071  10.669  1.0848  0.3309  0.2295
 6994TIP3    H245178   3.135   7.971  10.694  1.2062 -0.4005 -1.9211
 6995TIP3   OH245179   4.486   0.900  11.053  0.0383  0.6791 -0.4194
 6995TIP3    H145180   4.479   0.990  11.020  0.1209  0.6698 -0.4631
 6995TIP3    H245181   4.544   0.856  10.990  1.1995  0.9774  0.4184
 6996TIP3   OH245182   8.022   7.006   8.541 -0.1169 -0.1683 -0.0125
 6996TIP3    H145183   8.057   7.094   8.546 -2.4664  0.8414  0.1742
 6996TIP3    H245184   8.092   6.950   8.573  1.0948  1.7285  0.8112
 6997TIP3   OH245185   5.622   7.194   9.785 -0.0738 -0.6862 -0.4923
 6997TIP3    H145186   5.676   7.131   9.737 -1.7557 -2.1396 -0.5647
 6997TIP3    H245187   5.543   7.203   9.733 -0.2510  0.8305 -0.0116
 6998TIP3   OH245188   5.752   3.059  10.886  0.5778 -0.2749 -0.6248
 6998TIP3    H145189   5.793   3.086  10.968 -1.4143  0.8845  0.0731
 6998TIP3    H245190   5.734   3.142  10.840 -2.9944 -0.4212  0.1981
 6999TIP3   OH245191   6.050   8.173  10.495  0.0044  0.6769  0.2223
 6999TIP3    H145192   5.995   8.209  10.425  0.3142  0.4717 -0.1346
 6999TIP3    H245193   5.995   8.107  10.538 -0.0425  0.4919 -0.1158
 7000TIP3   OH245194   7.089   4.480   9.446  0.7537  0.6873  0.3896
 7000TIP3    H145195   7.079   4.423   9.522  0.0936  0.5050  0.1672
 7000TIP3    H245196   7.007   4.529   9.440  1.4009  1.8800  0.7382
 7001TIP3   OH245197   5.351   7.392  10.953 -0.1024 -0.3009 -0.1088
 7001TIP3    H145198   5.355   7.334  11.029  1.0806 -0.1280 -0.0227
 7001TIP3    H245199   5.423   7.453  10.965 -0.6468  0.4935 -0.7687
 7002TIP3   OH245200   7.291   6.491   9.320 -0.2573 -0.3014 -0.1156
 7002TIP3    H145201   7.310   6.575   9.362 -1.1098  0.2115 -0.7261
 7002TIP3    H245202   7.231   6.447   9.380  1.2772 -1.1228  0.9022
 7003TIP3   OH245203   2.533   1.203   9.994  0.0535  0.1454 -0.1604
 7003TIP3    H145204   2.526   1.113   9.961  0.2647 -0.2268  0.7635
 7003TIP3    H245205   2.517   1.195  10.088  0.3938  1.0335 -0.0175
 7004TIP3   OH245206   4.434   7.049   8.859  0.4149  0.6468 -0.4288
 7004TIP3    H145207   4.499   7.072   8.793  0.3963 -0.2722 -0.7829
 7004TIP3    H245208   4.482   7.000   8.925  0.1579  0.2914 -0.5019
 7005TIP3   OH245209   0.126   8.353   8.878 -0.1579  0.5122 -0.3738
 7005TIP3    H145210   0.070   8.430   8.871 -0.9331 -0.0492 -0.4516
 7005TIP3    H245211   0.215   8.388   8.880 -0.5504  1.6293  2.4883
 7006TIP3   OH245212   7.030   2.848   9.261  0.2555 -0.1367 -0.5218
 7006TIP3    H145213   7.033   2.774   9.200 -2.4591 -0.8557  0.0936
 7006TIP3    H245214   7.073   2.816   9.340 -0.6057 -0.9954 -0.3792
 7007TIP3   OH245215   2.776   7.695  10.069  0.4888  0.3754 -0.4676
 7007TIP3    H145216   2.849   7.683  10.130  0.1211  2.5383  0.4975
 7007TIP3    H245217   2.817   7.700   9.983  1.1911 -0.9171 -0.2396
 7008TIP3   OH245218   1.509   7.322   8.674 -0.1448 -0.1949 -0.0179
 7008TIP3    H145219   1.428   7.281   8.641  0.7697 -3.0140  0.9743
 7008TIP3    H245220   1.503   7.413   8.645 -0.8018 -1.6302 -5.4012
 7009TIP3   OH245221   8.196   8.357  10.954  0.2862  0.1000  0.3778
 7009TIP3    H145222   8.291   8.349  10.945  0.3040  0.1367  0.5223
 7009TIP3    H245223   8.161   8.278  10.915  0.4359 -0.5285  1.4734
 7010TIP3   OH245224   4.072   1.163   9.672 -0.0388  0.4594  0.1598
 7010TIP3    H145225   3.993   1.207   9.640 -0.0150 -0.3073 -0.9944
 7010TIP3    H245226   4.141   1.191   9.613  0.4722  0.7439  0.8752
 7011TIP3   OH245227   3.000   3.487   9.732  0.7228 -0.6902  0.5999
 7011TIP3    H145228   3.041   3.565   9.695 -1.0247  0.8591  1.7574
 7011TIP3    H245229   3.072   3.438   9.772  1.9513 -0.0502 -0.7470
 7012TIP3   OH245230   6.090   0.321  10.443 -0.0995  0.2838 -0.2349
 7012TIP3    H145231   6.115   0.345  10.354  0.5318 -0.4130 -0.2573
 7012TIP3    H245232   6.121   0.231  10.453 -0.5548  0.2051  0.5418
 7013TIP3   OH245233   6.285   8.022   9.655  0.1610 -0.6108  0.0193
 7013TIP3    H145234   6.347   8.029   9.728 -1.1644 -0.6004  1.1847
 7013TIP3    H245235   6.222   7.956   9.683 -1.2977  0.5523 -0.3970
 7014TIP3   OH245236   0.773   5.899  10.501 -0.7548  0.4153  0.0487
 7014TIP3    H145237   0.869   5.906  10.498 -0.7573  1.1510  1.2105
 7014TIP3    H245238   0.756   5.807  10.519 -0.1384  0.7735  2.9348
 7015TIP3   OH245239   4.382   0.078   8.847 -0.1363  0.4817 -0.2680
 7015TIP3    H145240   4.458   0.031   8.880  0.2487  0.7263 -0.7885
 7015TIP3    H245241   4.400   0.092   8.754 -0.5278  1.0962 -0.2630
 7016TIP3   OH245242   1.708   6.280   9.488 -0.0846  0.2567 -0.3693
 7016TIP3    H145243   1.696   6.194   9.446 -1.7200 -0.2930  1.1233
 7016TIP3    H245244   1.798   6.305   9.466  0.2437 -1.5812 -1.2961
 7017TIP3   OH245245   1.921   4.577  10.191 -0.0153  0.1122 -0.4792
 7017TIP3    H145246   2.001   4.577  10.243  1.1141 -0.3773 -2.1403
 7017TIP3    H245247   1.889   4.487  10.197  0.5036 -0.1279 -1.1655
 7018TIP3   OH245248   2.347   0.446   9.103 -0.1138 -0.6188 -0.7755
 7018TIP3    H145249   2.315   0.363   9.138  1.3922 -0.2246  1.7568
 7018TIP3    H245250   2.283   0.470   9.035 -2.1959 -2.3783  0.4373
 7019TIP3   OH245251   8.023   7.430  10.062  0.0944  0.4099  0.1654
 7019TIP3    H145252   7.986   7.377  10.132  1.4219 -1.0154 -0.1674
 7019TIP3    H245253   7.951   7.442  10.000 -0.1330 -1.3842  0.0446
 7020TIP3   OH245254   6.337   5.830   9.276 -0.3916  0.1787 -0.9332
 7020TIP3    H145255   6.313   5.738   9.273 -0.5984  0.1860  0.1167
 7020TIP3    H245256   6.404   5.840   9.209  0.5939 -1.0328 -0.1778
 7021TIP3   OH245257   3.007   0.426   8.582  0.7399 -0.7433 -0.7624
 7021TIP3    H145258   2.957   0.366   8.526  0.0245  0.6144 -1.6533
 7021TIP3    H245259   2.968   0.512   8.565  2.5205  0.1692 -0.4732
 7022TIP3   OH245260   7.150   6.380   9.970  0.6772 -0.1369  0.0344
 7022TIP3    H145261   7.149   6.305   9.910 -2.1631 -1.1006  1.0928
 7022TIP3    H245262   7.151   6.341  10.058 -0.7380  0.9915  0.6116
 7023TIP3   OH245263   7.147   0.626   9.305  0.7054 -0.2564  0.0241
 7023TIP3    H145264   7.129   0.634   9.211 -1.4241 -2.7510  0.0831
 7023TIP3    H245265   7.191   0.541   9.313  1.0924  0.0490  1.2563
 7024TIP3   OH245266   3.143   2.496   8.545  0.2232 -0.1942 -0.0681
 7024TIP3    H145267   3.098   2.414   8.526 -1.7497  0.6147  0.8478
 7024TIP3    H245268   3.086   2.563   8.508  0.7781  0.8648  0.9332
 7025TIP3   OH245269   6.338   2.618   8.844  0.0046  0.1119  0.5925
 7025TIP3    H145270   6.420   2.666   8.836 -0.1847  0.2004 -1.3114
 7025TIP3    H245271   6.360   2.540   8.894  1.3058  0.0554 -0.0458
 7026TIP3   OH245272   0.445   2.189   9.818  0.0645  0.4355 -1.0749
 7026TIP3    H145273   0.482   2.235   9.742 -0.5980  1.2395 -0.9274
 7026TIP3    H245274   0.352   2.211   9.817  0.4904  3.1844  1.7568
 7027TIP3   OH245275   3.298   4.197  10.124  0.1478 -0.0115  0.6219
 7027TIP3    H145276   3.247   4.126  10.163 -0.5216 -0.1549 -0.4660
 7027TIP3    H245277   3.312   4.259  10.196  0.0447 -0.8563  1.3855
 7028TIP3   OH245278   2.393   0.811  10.243  0.3269  0.2170 -0.0897
 7028TIP3    H145279   2.488   0.819  10.239  0.5174 -0.1403  2.3402
 7028TIP3    H245280   2.364   0.891  10.287 -0.3296 -0.3243  0.4817
 7029TIP3   OH245281   7.967   3.531  10.332 -0.2104  0.2028 -0.1534
 7029TIP3    H145282   8.045   3.479  10.349 -1.2676 -1.1147  0.8852
 7029TIP3    H245283   7.895   3.478  10.366 -1.5012  1.6682 -0.4901
 7030TIP3   OH245284   1.668   0.170   9.452  0.5899 -0.2288  0.3935
 7030TIP3    H145285   1.726   0.222   9.508  1.3483 -0.2824 -0.3301
 7030TIP3    H245286   1.589   0.224   9.442  1.7014  1.2357 -1.0826
 7031TIP3   OH245287   5.472   5.805   9.189 -0.4173  0.2437  0.2757
 7031TIP3    H145288   5.390   5.819   9.237 -0.6744 -2.0766  0.6162
 7031TIP3    H245289   5.474   5.877   9.126 -1.8559  1.3245  1.3672
 7032TIP3   OH245290   5.588   5.305  10.215  0.3675  0.0070 -0.4652
 7032TIP3    H145291   5.620   5.395  10.216 -1.9597  0.9172 -1.1497
 7032TIP3    H245292   5.510   5.306  10.271  0.2862 -1.5807 -0.5084
 7033TIP3   OH245293   1.522   5.197  10.107 -0.7701 -0.1284  0.4813
 7033TIP3    H145294   1.458   5.220  10.039 -0.8831  0.3559  0.7537
 7033TIP3    H245295   1.576   5.275  10.117  1.7378 -1.3886 -1.7939
 7034TIP3   OH245296   1.546   3.802   9.979 -0.4437 -0.0349 -0.2060
 7034TIP3    H145297   1.565   3.810  10.072 -0.3861  0.7496 -0.2711
 7034TIP3    H245298   1.629   3.776   9.940 -0.2622  0.4073 -0.1252
 7035TIP3   OH245299   8.086   7.161  10.519 -0.0823  0.1792 -0.3968
 7035TIP3    H145300   8.141   7.212  10.578  0.5852 -2.0328  1.0248
 7035TIP3    H245301   7.997   7.195  10.534  0.0469 -0.3568  2.0153
 7036TIP3   OH245302   1.767   0.235  10.097  0.2228  0.0823  0.5427
 7036TIP3    H145303   1.714   0.312  10.075 -0.0548  0.5962  2.7995
 7036TIP3    H245304   1.809   0.257  10.180  0.4824 -2.0318  1.0346
 7037TIP3   OH245305   1.490   1.753   9.981 -0.0295  0.4424  0.1439
 7037TIP3    H145306   1.417   1.694  10.001  1.0525 -0.4565  1.6143
 7037TIP3    H245307   1.565   1.694   9.971  1.0216  1.5392  1.3556
 7038TIP3   OH245308   1.107   3.265  15.417 -0.6213  0.3769  0.2918
 7038TIP3    H145309   1.117   3.305  15.504 -2.5247  0.7384  0.3759
 7038TIP3    H245310   1.068   3.334  15.364 -0.5398 -0.2165 -0.5466
 7039TIP3   OH245311   7.522   3.347   9.017 -0.1400 -0.3459 -0.5960
 7039TIP3    H145312   7.604   3.386   9.046 -0.1215 -0.4844 -0.4614
 7039TIP3    H245313   7.487   3.305   9.096  0.2794 -1.3830 -0.9509
 7040TIP3   OH245314   1.619   6.138  10.447 -0.5640  0.0089 -0.0612
 7040TIP3    H145315   1.564   6.185  10.510 -0.9802 -1.1634  0.4819
 7040TIP3    H245316   1.556   6.103  10.383 -0.3750 -0.7103  0.1448
 7041TIP3   OH245317   1.515   0.436   9.204  0.6287  0.2540 -0.6270
 7041TIP3    H145318   1.593   0.490   9.219  0.9947 -0.1553 -1.0393
 7041TIP3    H245319   1.506   0.434   9.109  0.1767  0.2052 -0.5831
 7042TIP3   OH245320   5.880   2.460   9.920  0.2661 -0.0735  0.8046
 7042TIP3    H145321   5.965   2.503   9.931  0.1442  1.0135 -1.7255
 7042TIP3    H245322   5.824   2.500   9.986  0.6919  2.2739 -0.1395
 7043TIP3   OH245323   0.799   1.454  10.538 -0.1901  0.3999 -0.1728
 7043TIP3    H145324   0.759   1.506  10.608 -1.1224  0.2111 -0.5448
 7043TIP3    H245325   0.775   1.364  10.559 -0.9456  0.3863 -1.0106
 7044TIP3   OH245326   0.905   4.118   8.901  0.2763 -0.1985 -0.1905
 7044TIP3    H145327   0.913   4.094   8.809  0.8242  0.4218 -0.3118
 7044TIP3    H245328   0.985   4.086   8.942  0.0619 -0.4187  0.0575
 7045TIP3   OH245329   6.403   2.619  10.499 -0.0667  0.0722 -0.4596
 7045TIP3    H145330   6.381   2.709  10.522  0.7566  0.3793 -0.8213
 7045TIP3    H245331   6.498   2.615  10.506  0.0682 -0.2846 -2.0724
 7046TIP3   OH245332   5.327   1.651   8.880 -0.0759  0.0154  0.3843
 7046TIP3    H145333   5.271   1.582   8.843  0.5118  0.3749 -1.2244
 7046TIP3    H245334   5.332   1.630   8.973 -0.9675 -1.3700  0.1434
 7047TIP3   OH245335   5.749   3.864   9.446  0.3977 -0.2501 -0.1872
 7047TIP3    H145336   5.844   3.876   9.441  0.2231  0.6939 -1.8578
 7047TIP3    H245337   5.721   3.924   9.515  0.8012  0.9138 -1.0189
 7048TIP3   OH245338   5.452   6.256  10.427 -0.4119  0.5292 -0.2082
 7048TIP3    H145339   5.385   6.209  10.377 -0.7371  0.5832  0.1753
 7048TIP3    H245340   5.500   6.306  10.361 -1.4392  1.3316 -0.3753
 7049TIP3   OH245341   2.177   5.328   9.496  0.2186  0.1922 -0.1419
 7049TIP3    H145342   2.177   5.319   9.591  1.4250  1.4844  0.0204
 7049TIP3    H245343   2.204   5.419   9.480  0.0629 -0.0016 -1.7169
 7050TIP3   OH245344   5.874   7.252   9.173  0.5560 -0.6059  0.3149
 7050TIP3    H145345   5.831   7.218   9.094  0.0539 -0.2029  0.4168
 7050TIP3    H245346   5.961   7.279   9.142  0.9139 -1.8307  0.1994
 7051TIP3   OH245347   1.834   6.482   9.760  0.1659  0.4198  0.1169
 7051TIP3    H145348   1.895   6.528   9.702 -1.4902  2.7137  0.0948
 7051TIP3    H245349   1.891   6.431   9.818  1.9857  0.4548 -1.5061
 7052TIP3   OH245350   5.262   2.373   8.980 -0.3510 -0.0789  0.0624
 7052TIP3    H145351   5.262   2.438   8.910  0.3127 -1.9348 -1.7575
 7052TIP3    H245352   5.170   2.364   9.004 -0.3676  2.2711  1.1701
 7053TIP3   OH245353   7.490   1.379  10.269  0.0306  0.0278  0.8185
 7053TIP3    H145354   7.426   1.380  10.339 -1.5352  2.1984 -0.5170
 7053TIP3    H245355   7.472   1.298  10.220 -0.6500 -0.1390  1.3484
 7054TIP3   OH245356   6.355   3.670   8.851  0.1766 -0.0111  0.0852
 7054TIP3    H145357   6.397   3.649   8.767 -1.0732  0.8386 -0.7973
 7054TIP3    H245358   6.261   3.663   8.833 -0.1397  1.2587  1.1162
 7055TIP3   OH245359   0.104   0.111  10.236  0.1060  0.2841  0.2842
 7055TIP3    H145360   0.130   0.054  10.308  0.5806  0.3305  0.1553
 7055TIP3    H245361   0.184   0.122  10.185 -0.4626 -0.5915 -0.8409
 7056TIP3   OH245362   4.073   2.147   9.774  0.0151 -0.3353 -0.2676
 7056TIP3    H145363   4.156   2.190   9.751 -0.2593  0.9447  0.9670
 7056TIP3    H245364   4.091   2.102   9.856 -0.2130 -1.0555 -0.6042
 7057TIP3   OH245365   4.535   1.540  10.473 -0.9477 -0.1340  0.3238
 7057TIP3    H145366   4.510   1.550  10.565 -0.6719  0.4495  0.3419
 7057TIP3    H245367   4.513   1.449  10.451  0.4373 -0.7678  1.4129
 7058TIP3   OH245368   3.949   0.648   9.625  0.6665 -0.7534  0.1420
 7058TIP3    H145369   3.973   0.557   9.612  2.6675 -0.3226  0.5678
 7058TIP3    H245370   3.984   0.671   9.711 -0.8525  0.1051  0.5729
 7059TIP3   OH245371   6.453   0.510  10.275 -0.2248 -0.0089  0.2088
 7059TIP3    H145372   6.488   0.544  10.193 -2.9562  0.4581 -0.8898
 7059TIP3    H245373   6.475   0.417  10.274  3.7577  0.7413  1.2789
 7060TIP3   OH245374   7.002   2.470   9.377 -0.3108 -0.5844 -0.3877
 7060TIP3    H145375   6.989   2.432   9.290  0.6137 -1.4068 -0.1709
 7060TIP3    H245376   6.913   2.473   9.414 -0.8116  0.3770 -1.5856
 7061TIP3   OH245377   2.299   3.723   9.952 -0.1704  0.3559 -0.0996
 7061TIP3    H145378   2.371   3.785   9.944 -1.4174  1.6141 -3.9301
 7061TIP3    H245379   2.340   3.637   9.948  1.2972  0.9774  0.8293
 7062TIP3   OH245380   8.022   4.044   9.615  0.4146  0.2665 -0.0389
 7062TIP3    H145381   7.996   3.955   9.636 -0.2201  0.1055 -1.4204
 7062TIP3    H245382   8.103   4.058   9.665  1.6065 -1.7564 -1.2830
 7063TIP3   OH245383   0.963   1.722   9.804 -0.1378 -0.0797  0.3079
 7063TIP3    H145384   1.015   1.684   9.733  0.9362 -1.6836  1.8629
 7063TIP3    H245385   0.885   1.757   9.761  0.5366 -0.8764 -1.6600
 7064TIP3   OH245386   1.482   4.667   9.605 -0.5147  0.1385  0.5436
 7064TIP3    H145387   1.526   4.695   9.686 -1.1682  0.0217  0.9446
 7064TIP3    H245388   1.428   4.593   9.632 -0.1117 -0.4313 -0.1734
 7065TIP3   OH245389   7.769   1.355  10.435  0.4290 -0.3928  0.6582
 7065TIP3    H145390   7.681   1.374  10.403  0.7117  1.0776  0.6882
 7065TIP3    H245391   7.789   1.268  10.401 -1.5247 -1.3193  1.7064
 7066TIP3   OH245392   6.987   8.153   9.752  0.7327 -0.1139  0.6068
 7066TIP3    H145393   7.027   8.140   9.837  0.7403 -0.3123  0.5718
 7066TIP3    H245394   7.055   8.196   9.700  1.0527 -0.8447  0.4163
 7067TIP3   OH245395   7.599   5.209   9.452  0.6837 -0.1594  0.8880
 7067TIP3    H145396   7.537   5.222   9.524  1.7750 -0.7394  1.9827
 7067TIP3    H245397   7.558   5.142   9.397  0.1786 -0.2889  1.4026
 7068TIP3   OH245398   1.829   7.517   9.028  0.3055  0.0834 -0.1995
 7068TIP3    H145399   1.790   7.450   9.084  1.1326 -0.8897 -0.7523
 7068TIP3    H245400   1.754   7.561   8.988 -0.2586 -0.4194  0.2902
 7069TIP3   OH245401   1.686   7.690  10.062  0.3670 -0.4600 -0.5240
 7069TIP3    H145402   1.752   7.757  10.084 -1.9624  1.9077 -0.2341
 7069TIP3    H245403   1.710   7.661   9.974  1.4193  0.8386 -0.7005
 7070TIP3   OH245404   1.378   7.644   9.106  0.1605  0.2149 -0.8361
 7070TIP3    H145405   1.298   7.629   9.055 -0.7438  0.5972  0.4170
 7070TIP3    H245406   1.382   7.739   9.116  0.6464  0.1789 -0.6901
 7071TIP3   OH245407   0.797   0.874  10.482 -0.0828  0.0371  0.0533
 7071TIP3    H145408   0.848   0.799  10.512 -0.1849 -0.0924 -0.0901
 7071TIP3    H245409   0.823   0.946  10.539  0.8665  0.1795 -0.5413
 7072TIP3   OH245410   0.218   5.512   9.256  0.2679  0.8086 -0.1478
 7072TIP3    H145411   0.211   5.457   9.334  0.5032  0.7547 -0.1634
 7072TIP3    H245412   0.164   5.588   9.276 -2.2989 -0.6236 -1.2036
 7073TIP3   OH245413   7.650   5.921   9.777 -0.1507 -0.3217  0.0870
 7073TIP3    H145414   7.661   5.980   9.703  0.2920  0.0495  0.4456
 7073TIP3    H245415   7.664   5.976   9.854 -1.5617 -0.4786  0.4943
 7074TIP3   OH245416   7.037   6.744  10.642 -0.0032  0.3718 -0.0700
 7074TIP3    H145417   7.097   6.685  10.596 -2.1677 -1.0102 -1.2763
 7074TIP3    H245418   7.081   6.762  10.725  2.2277 -0.2676 -1.0158
 7075TIP3   OH245419   8.257   7.782   9.848  0.6478  0.1501  0.7310
 7075TIP3    H145420   8.284   7.764   9.758  1.7940  0.1658  1.0610
 7075TIP3    H245421   8.338   7.806   9.893  0.0499  0.3603  1.7149
 7076TIP3   OH245422   2.631   4.467   8.888  0.5195  0.1800 -0.0251
 7076TIP3    H145423   2.723   4.494   8.885  1.0506 -1.5030  0.2943
 7076TIP3    H245424   2.623   4.403   8.818 -0.5464  0.6338 -0.3386
 7077TIP3   OH245425   8.233   6.477  10.452 -0.3210 -0.0318  0.2613
 7077TIP3    H145426   8.157   6.501  10.399  0.1538 -0.0050 -0.4273
 7077TIP3    H245427   8.220   6.384  10.472 -0.6210  0.0174  0.2904
 7078TIP3   OH245428   2.943   2.568   8.319 -0.3748  0.2319  0.1424
 7078TIP3    H145429   2.864   2.515   8.309  0.1584 -1.1070  2.2232
 7078TIP3    H245430   3.009   2.521   8.267 -0.7409  0.9439 -0.9986
 7079TIP3   OH245431   6.162   0.412  10.169  0.3517  0.8862  0.2066
 7079TIP3    H145432   6.101   0.426  10.097 -0.6860  0.4271  0.9586
 7079TIP3    H245433   6.222   0.487  10.166 -0.8797  1.8973  0.0544
 7080TIP3   OH245434   0.595   6.876  10.013 -0.2814  0.0945 -0.1326
 7080TIP3    H145435   0.517   6.821  10.015 -0.4107  0.1829 -1.6578
 7080TIP3    H245436   0.664   6.819   9.979  0.0873  0.3043  0.2480
 7081TIP3   OH245437   5.921   3.545  10.848  0.1140  0.5362 -0.1378
 7081TIP3    H145438   6.001   3.577  10.889  1.0265 -0.9367 -0.6807
 7081TIP3    H245439   5.937   3.554  10.754  1.0228 -2.6822 -0.4000
 7082TIP3   OH245440   1.035   8.028   9.809 -0.3403 -0.1732 -0.4328
 7082TIP3    H145441   1.060   8.080   9.886 -0.2667  0.4960 -0.9043
 7082TIP3    H245442   0.967   7.969   9.841  0.3047 -0.5157  0.3593
 7083TIP3   OH245443   7.727   1.124  10.183 -0.0511  0.5635 -0.0167
 7083TIP3    H145444   7.809   1.158  10.217 -0.2996  1.4072 -0.2486
 7083TIP3    H245445   7.711   1.045  10.235  1.0523  0.2164 -0.1810
 7084TIP3   OH245446   4.790   0.896  10.583 -0.1042  0.0615  0.1411
 7084TIP3    H145447   4.841   0.871  10.660 -1.1605 -0.7518  0.5947
 7084TIP3    H245448   4.748   0.815  10.554  0.9881  0.1578 -1.8672
 7085TIP3   OH245449   5.181   0.824   9.047 -0.1006 -0.5470 -0.1125
 7085TIP3    H145450   5.118   0.890   9.076  0.5400  0.5897 -1.1942
 7085TIP3    H245451   5.221   0.792   9.128 -0.7729  0.0353  0.4624
 7086TIP3   OH245452   0.746   2.619   9.925 -0.3577  0.1677 -0.4420
 7086TIP3    H145453   0.734   2.524   9.926 -0.3262  0.1586 -0.7599
 7086TIP3    H245454   0.744   2.642   9.832  1.5992  0.2134 -0.5224
 7087TIP3   OH245455   3.540   2.117  10.586  0.3907  0.9802  0.6782
 7087TIP3    H145456   3.480   2.085  10.654  0.2784  0.1610  0.2044
 7087TIP3    H245457   3.541   2.047  10.521  1.2210  1.3573  0.2826
 7088TIP3   OH245458   0.954   6.619   8.670 -0.6080  0.2325 -0.0584
 7088TIP3    H145459   0.980   6.681   8.739  1.5450 -1.1646  0.4909
 7088TIP3    H245460   1.022   6.627   8.604  0.6796 -2.5789  0.7691
 7089TIP3   OH245461   5.505   7.089   9.267  0.5393 -0.4387 -0.2761
 7089TIP3    H145462   5.472   7.026   9.203  3.0764 -1.2521 -0.8973
 7089TIP3    H245463   5.529   7.036   9.343 -0.2389  0.2207  0.4494
 7090TIP3   OH245464   3.893   1.922   8.791 -0.6957  0.1270 -0.4507
 7090TIP3    H145465   3.985   1.945   8.782 -0.8185  0.3086 -1.3349
 7090TIP3    H245466   3.880   1.850   8.728 -1.0994 -0.0703 -0.1507
 7091TIP3   OH245467   1.549   2.644   9.003 -0.0136 -0.0797  0.1791
 7091TIP3    H145468   1.477   2.606   9.053 -0.3095  0.7336  0.3911
 7091TIP3    H245469   1.624   2.641   9.062 -0.0416 -0.2988  0.2044
 7092TIP3   OH245470   7.652   3.114   9.200 -1.0300 -0.3190  0.1408
 7092TIP3    H145471   7.722   3.178   9.190 -1.7867  0.4219 -0.7177
 7092TIP3    H245472   7.694   3.036   9.236 -0.0755  0.6397  1.1635
 7093TIP3   OH245473   5.949   1.306   8.685 -0.6224  0.3083 -0.5536
 7093TIP3    H145474   6.005   1.376   8.716  0.1141  0.3418 -1.8687
 7093TIP3    H245475   5.860   1.338   8.699 -0.3103  0.8770  0.1918
 7094TIP3   OH245476   3.356   1.331   9.927  0.1152  0.3400  0.5377
 7094TIP3    H145477   3.313   1.410   9.961  0.3974  1.1268 -0.8637
 7094TIP3    H245478   3.317   1.317   9.841  1.7101  0.3181 -0.2180
 7095TIP3   OH245479   3.063   1.428   8.260 -0.3248 -0.4295  0.2173
 7095TIP3    H145480   3.123   1.423   8.335 -0.6392 -1.0070  0.4418
 7095TIP3    H245481   2.991   1.368   8.283 -0.3884 -0.6709 -0.5762
 7096TIP3   OH245482   0.548   0.617   9.889  0.0320  0.1822 -0.4619
 7096TIP3    H145483   0.470   0.617   9.943 -0.1352 -0.8434 -0.6801
 7096TIP3    H245484   0.570   0.710   9.878 -0.0086  0.4213  1.2196
 7097TIP3   OH245485   5.616   2.845  10.254 -0.5699 -0.2738  0.1345
 7097TIP3    H145486   5.583   2.771  10.305  0.3277  0.5375  1.9666
 7097TIP3    H245487   5.711   2.835  10.256 -0.4931  0.1985 -0.7558
 7098TIP3   OH245488   8.158   7.348   9.375  0.1772  0.2425  0.3424
 7098TIP3    H145489   8.236   7.390   9.340  0.8670  0.5688  2.2042
 7098TIP3    H245490   8.161   7.259   9.339  0.5944  0.6751 -0.7615
 7099TIP3   OH245491   4.361   2.757   9.854  0.5944 -0.2708 -0.0298
 7099TIP3    H145492   4.300   2.688   9.828  0.2429 -0.2641  0.7294
 7099TIP3    H245493   4.445   2.712   9.862  0.8209 -0.1708 -1.6094
 7100TIP3   OH245494   5.936   0.882   8.571 -0.1714  0.1418 -0.0961
 7100TIP3    H145495   5.990   0.958   8.596 -0.2954 -0.0798  0.8809
 7100TIP3    H245496   5.999   0.816   8.545 -0.0364  0.3931 -0.4110
 7101TIP3   OH245497   0.497   6.653   9.736 -0.5399  0.2988  0.9094
 7101TIP3    H145498   0.584   6.613   9.735 -0.7193 -0.2107  2.2940
 7101TIP3    H245499   0.440   6.586   9.774 -1.3326  1.0005  1.0051
 7102TIP3   OH245500   2.749   8.408   9.129 -0.5035 -0.1412 -0.1678
 7102TIP3    H145501   2.761   8.409   9.034 -0.9270  0.3662 -0.2253
 7102TIP3    H245502   2.794   8.487   9.160 -1.1134  0.1796 -0.0612
 7103TIP3   OH245503   3.388   8.259   9.204  0.0126 -0.5944 -0.2821
 7103TIP3    H145504   3.373   8.165   9.211  0.6676 -0.6590  0.2960
 7103TIP3    H245505   3.381   8.291   9.294 -0.6721 -0.0109 -0.5290
 7104TIP3   OH245506   0.532   3.410  11.032 -0.6864  0.1807  0.4612
 7104TIP3    H145507   0.582   3.466  11.092 -1.0823  0.8529  0.1693
 7104TIP3    H245508   0.460   3.465  11.002 -1.7594 -0.8701  1.0772
 7105TIP3   OH245509   7.354   5.509   8.865  0.3396 -0.1545  0.3387
 7105TIP3    H145510   7.320   5.420   8.875 -0.0168 -0.0055  0.4740
 7105TIP3    H245511   7.288   5.554   8.812 -0.2036  0.4315  1.4853
 7106TIP3   OH245512   6.313   0.980   9.924  0.2897  0.0490 -0.2123
 7106TIP3    H145513   6.326   0.947   9.834  0.8185  0.8574 -0.4379
 7106TIP3    H245514   6.323   1.075   9.916 -2.3404  0.4508  0.2219
 7107TIP3   OH245515   2.628   7.228  10.089  0.2895  0.1213 -0.2027
 7107TIP3    H145516   2.634   7.243  10.183 -0.5329  2.4353 -0.4511
 7107TIP3    H245517   2.647   7.313  10.049  0.6073 -0.7912 -2.1420
 7108TIP3   OH245518   0.121   3.588  10.461 -0.6351  0.2452 -0.0871
 7108TIP3    H145519   0.047   3.594  10.521 -1.1036 -1.4550 -0.4446
 7108TIP3    H245520   0.164   3.506  10.484 -0.7013 -0.3381 -1.8984
 7109TIP3   OH245521   2.304   6.418  10.162  0.2110  0.4585  0.0528
 7109TIP3    H145522   2.350   6.418  10.246  0.5208  0.5820 -0.1147
 7109TIP3    H245523   2.225   6.367  10.178  0.2308  0.5449  0.4414
 7110TIP3   OH245524   8.300   4.687  11.368  0.7061 -0.3283 -0.6829
 7110TIP3    H145525   8.234   4.691  11.299  1.4360  0.3106 -1.3618
 7110TIP3    H245526   8.312   4.593  11.384 -1.5058 -0.4642  0.5993
 7111TIP3   OH245527   8.078   1.763  10.061  0.0968 -0.6571  0.5803
 7111TIP3    H145528   8.083   1.808   9.977  0.6896  0.8205  1.3459
 7111TIP3    H245529   8.005   1.702  10.052 -0.5617  0.2556 -0.6386
 7112TIP3   OH245530   5.132   1.850   9.500 -0.1448 -0.0922  0.1555
 7112TIP3    H145531   5.076   1.872   9.425 -1.6811  0.4313  1.4105
 7112TIP3    H245532   5.215   1.894   9.481 -0.1175 -0.8284 -1.7127
 7113TIP3   OH245533   0.268   1.355  10.432 -0.2526 -0.1186 -0.1678
 7113TIP3    H145534   0.279   1.274  10.383 -0.1777  0.8670 -1.8554
 7113TIP3    H245535   0.306   1.337  10.518  0.5347 -1.5906 -0.7968
 7114TIP3   OH245536   2.441   6.915   8.853 -0.0715 -0.1638 -0.1652
 7114TIP3    H145537   2.356   6.870   8.850  0.1972 -0.9750  2.1436
 7114TIP3    H245538   2.477   6.891   8.938  2.0291  1.0199 -0.6623
 7115TIP3   OH245539   1.578   6.908   8.818 -0.1675 -0.2017 -0.4979
 7115TIP3    H145540   1.635   6.835   8.796 -0.8937 -1.1984  0.7484
 7115TIP3    H245541   1.546   6.941   8.733  1.8212  0.0722 -1.1806
 7116TIP3   OH245542   4.887   4.579  10.060  0.4150 -1.0033 -0.5422
 7116TIP3    H145543   4.829   4.531  10.119  0.6170 -1.8322 -1.0044
 7116TIP3    H245544   4.850   4.563   9.973 -1.0720  1.8342 -0.5393
 7117TIP3   OH245545   6.389   3.182   9.088  0.0371  0.0583  0.3806
 7117TIP3    H145546   6.318   3.198   9.027  0.6660  3.3158  0.2938
 7117TIP3    H245547   6.363   3.105   9.137 -2.6007  0.0173 -0.9440
 7118TIP3   OH245548   1.636   6.318   8.918  0.0008 -0.2723 -0.0477
 7118TIP3    H145549   1.562   6.266   8.952 -0.6760  0.0904 -0.9503
 7118TIP3    H245550   1.713   6.267   8.944 -0.6045 -1.2328 -0.0514
 7119TIP3   OH245551   1.040   3.287  10.825  0.2467  0.4119 -0.5557
 7119TIP3    H145552   0.949   3.293  10.852  0.4226 -0.3519  0.2501
 7119TIP3    H245553   1.053   3.194  10.804  1.4091  0.0566  1.4915
 7120TIP3   OH245554   1.517   6.011   9.737 -0.5857  0.2397 -0.1758
 7120TIP3    H145555   1.501   5.998   9.830 -1.0892  0.1665 -0.2727
 7120TIP3    H245556   1.560   6.097   9.733  1.1893 -0.5787  0.2919
 7121TIP3   OH245557   5.017   0.158   9.185 -0.1962 -0.0830  0.5963
 7121TIP3    H145558   4.939   0.206   9.155  0.3009  0.1128 -0.4204
 7121TIP3    H245559   5.086   0.224   9.188 -0.1231 -0.1895  1.7994
 7122TIP3   OH245560   3.467   3.931   9.796 -0.0292 -0.2451  0.1595
 7122TIP3    H145561   3.461   3.895   9.885 -0.9160 -0.6662 -0.0468
 7122TIP3    H245562   3.421   4.015   9.801 -0.2166 -0.3411  0.0704
 7123TIP3   OH245563   7.401   7.991  10.198 -0.1845  0.4901 -0.3980
 7123TIP3    H145564   7.459   8.029  10.264  0.5054  1.2771 -1.4222
 7123TIP3    H245565   7.421   7.897  10.200  1.0561  0.7258 -0.6371
 7124TIP3   OH245566   1.298   2.716   9.850  0.0232  0.6120  0.3447
 7124TIP3    H145567   1.227   2.652   9.857 -1.9367  2.5727 -0.3556
 7124TIP3    H245568   1.289   2.770   9.928  0.4356  1.1689  0.0144
 7125TIP3   OH245569   2.262   5.058   9.444 -0.0022  0.1604  0.5996
 7125TIP3    H145570   2.253   5.136   9.498 -1.3022  0.5662 -0.1549
 7125TIP3    H245571   2.181   5.008   9.459 -0.0556 -0.0739 -0.3851
 7126TIP3   OH245572   2.896   5.250   9.642 -0.0879 -0.2384 -0.4372
 7126TIP3    H145573   2.901   5.324   9.581  1.0983  0.5513  0.5498
 7126TIP3    H245574   2.879   5.174   9.587  0.3926  0.5332 -1.6853
 7127TIP3   OH245575   8.007   2.953  10.455  0.0983  0.0389 -0.1128
 7127TIP3    H145576   8.011   3.046  10.431  1.6935 -0.1055 -0.5284
 7127TIP3    H245577   7.953   2.913  10.387  1.4017  0.2922 -1.3672
 7128TIP3   OH245578   2.579   6.897   9.144  0.0070  0.1030 -0.0953
 7128TIP3    H145579   2.495   6.891   9.190  1.0515 -1.4083  1.7501
 7128TIP3    H245580   2.615   6.981   9.171  0.1501 -0.3259  1.1271
 7129TIP3   OH245581   0.283   1.361   9.692  0.0441 -0.2370 -0.6553
 7129TIP3    H145582   0.364   1.337   9.736  0.6803 -0.5971 -1.9767
 7129TIP3    H245583   0.305   1.441   9.643 -0.2191 -0.6790 -1.5092
 7130TIP3   OH245584   1.431   5.146   9.791 -0.6356 -0.2080 -0.2576
 7130TIP3    H145585   1.508   5.091   9.777 -0.3658  0.0362  0.2425
 7130TIP3    H245586   1.384   5.143   9.708 -1.5105 -2.5108  0.2522
 7131TIP3   OH245587   5.122   3.172   8.705  0.0322  0.0539  0.3591
 7131TIP3    H145588   5.187   3.108   8.674  0.1935  1.0362 -1.4916
 7131TIP3    H245589   5.037   3.129   8.691  0.1983 -0.6956  1.4959
 7132TIP3   OH245590   6.036   3.949   9.403  0.4783  0.0115 -0.3207
 7132TIP3    H145591   6.113   3.906   9.366  0.7127  1.5124 -1.6632
 7132TIP3    H245592   6.001   4.002   9.331  0.7153  2.7515  1.4661
 7133TIP3   OH245593   7.981   7.797   9.841 -0.1292 -0.0754  0.3514
 7133TIP3    H145594   8.075   7.781   9.835 -0.2768 -2.2901  2.2473
 7133TIP3    H245595   7.955   7.820   9.752  2.5210  3.2517  0.2170
 7134TIP3   OH245596   5.542   6.313   9.121  0.8008  0.2443  0.3341
 7134TIP3    H145597   5.611   6.286   9.181  0.7414  0.6203  0.5678
 7134TIP3    H245598   5.580   6.302   9.034  0.9854 -0.0159  0.4455
 7135TIP3   OH245599   4.997   3.022  11.406  0.2764 -0.1063  0.1439
 7135TIP3    H145600   4.907   3.057  11.405 -0.0568 -0.9076 -1.5026
 7135TIP3    H245601   5.051   3.095  11.376  0.1253  0.2732  0.7938
 7136TIP3   OH245602   2.676   4.175   8.771 -0.3297 -0.0766 -0.4630
 7136TIP3    H145603   2.620   4.112   8.725 -0.9084 -0.2481  0.4402
 7136TIP3    H245604   2.750   4.189   8.713 -0.3087 -1.4265 -0.7868
 7137TIP3   OH245605   4.051   6.445   8.795  0.3633 -0.7933  0.0706
 7137TIP3    H145606   3.974   6.411   8.749 -1.5314  3.1544 -0.1615
 7137TIP3    H245607   4.029   6.434   8.888 -0.5006  0.1672  0.0051
 7138TIP3   OH245608   4.568   4.116  10.501 -0.1620  0.3808 -0.0201
 7138TIP3    H145609   4.594   4.050  10.566  1.7318 -0.3941 -1.4386
 7138TIP3    H245610   4.603   4.198  10.535  0.8542 -0.0226 -0.0344
 7139TIP3   OH245611   0.732   4.233  10.736 -0.9252  0.1197 -0.4884
 7139TIP3    H145612   0.809   4.262  10.785 -1.0236  1.0659 -0.8673
 7139TIP3    H245613   0.763   4.228  10.645 -0.8012 -1.3985 -0.3883
 7140TIP3   OH245614   4.410   1.745  10.182 -0.5114 -0.0474  0.2404
 7140TIP3    H145615   4.457   1.798  10.119  0.6034 -0.6528  0.5376
 7140TIP3    H245616   4.412   1.656  10.145 -2.2468  0.0567 -0.1982
 7141TIP3   OH245617   2.807   6.080   9.189  0.3614 -0.0632  0.1463
 7141TIP3    H145618   2.767   6.004   9.231  0.0460  0.5297  0.9447
 7141TIP3    H245619   2.835   6.135   9.262 -0.8648  1.3429 -0.4078
 7142TIP3   OH245620   6.243   4.846   9.708  0.3253 -0.2209  0.1848
 7142TIP3    H145621   6.159   4.803   9.694 -0.5099  0.7603  1.8768
 7142TIP3    H245622   6.237   4.927   9.658  0.5716 -0.4791 -0.2742
 7143TIP3   OH245623   2.071   1.835   9.392  0.0223 -0.4615  0.0037
 7143TIP3    H145624   2.039   1.747   9.371  0.4090 -0.5519 -0.2097
 7143TIP3    H245625   2.087   1.832   9.487  1.0955 -0.9691 -0.1854
 7144TIP3   OH245626   8.440   5.301  10.204 -0.1719 -0.1245 -0.3092
 7144TIP3    H145627   8.535   5.308  10.214 -0.1890  0.0893 -0.2905
 7144TIP3    H245628   8.406   5.304  10.294 -0.4602  3.6893 -0.3629
 7145TIP3   OH245629   4.720   0.430  10.571 -0.9152  0.0089  0.8428
 7145TIP3    H145630   4.789   0.377  10.531  0.5548  2.7146 -0.5368
 7145TIP3    H245631   4.763   0.472  10.646 -1.3799  0.8118  0.6772
 7146TIP3   OH245632   3.603   8.375   8.684 -0.3077 -0.0603 -0.4722
 7146TIP3    H145633   3.567   8.310   8.743  0.3120 -0.5279 -0.5945
 7146TIP3    H245634   3.529   8.404   8.631 -0.7849  0.0816  0.2680
 7147TIP3   OH245635   4.181   2.032  10.050 -0.4898  0.1851  0.0266
 7147TIP3    H145636   4.155   1.940  10.042  3.1480 -1.0336  0.5188
 7147TIP3    H245637   4.142   2.061  10.132 -1.3054 -1.0501  0.1043
 7148TIP3   OH245638   0.262   4.010   9.708 -0.3699  0.4327 -0.6312
 7148TIP3    H145639   0.189   4.051   9.661 -1.6693  0.9046  1.6361
 7148TIP3    H245640   0.334   4.073   9.701 -0.9262  1.0479 -0.9243
 7149TIP3   OH245641   4.246   2.118   9.358  0.6921  0.1634  0.4192
 7149TIP3    H145642   4.176   2.177   9.384  0.4358  0.2409 -0.4349
 7149TIP3    H245643   4.226   2.035   9.402  0.0800  0.1917  0.1909
 7150TIP3   OH245644   5.931   4.292   8.849 -0.0371 -0.3741 -0.6076
 7150TIP3    H145645   5.877   4.311   8.772 -0.4288  1.0910 -0.0041
 7150TIP3    H245646   5.902   4.205   8.877 -0.8244 -0.3619 -1.3354
 7151TIP3   OH245647   8.107   2.756   9.734 -0.7773  0.3254  0.0911
 7151TIP3    H145648   8.196   2.754   9.700 -1.4074  0.1582 -1.6302
 7151TIP3    H245649   8.106   2.686   9.800  0.7202  1.2580  1.1779
 7152TIP3   OH245650   5.127   0.443  11.259  0.0347  0.3231  0.2031
 7152TIP3    H145651   5.211   0.454  11.304  0.6322  0.2092 -0.8468
 7152TIP3    H245652   5.145   0.379  11.190 -0.8912  0.3810 -0.1117
 7153TIP3   OH245653   0.256   0.739   9.250  0.6650 -0.1490  0.1064
 7153TIP3    H145654   0.290   0.764   9.336 -1.5321 -0.4924  1.1530
 7153TIP3    H245655   0.241   0.645   9.256 -0.1297 -0.0654 -0.4226
 7154TIP3   OH245656   7.641   7.169   9.099 -0.6895  0.3972 -0.0219
 7154TIP3    H145657   7.640   7.120   9.017 -1.4116 -1.1551  0.8750
 7154TIP3    H245658   7.663   7.259   9.073  0.6137 -0.3616 -1.7274
 7155TIP3   OH245659   2.709   7.758   8.799  0.1274 -0.2407  0.0102
 7155TIP3    H145660   2.693   7.816   8.873 -0.6530 -0.5167  0.0753
 7155TIP3    H245661   2.624   7.715   8.784  0.5641 -1.0038 -0.3340
 7156TIP3   OH245662   6.440   1.620  10.372  0.3794  0.0606 -0.6645
 7156TIP3    H145663   6.483   1.563  10.436 -1.1126  0.3454  0.6370
 7156TIP3    H245664   6.484   1.600  10.289  1.0802 -1.6989  0.0885
 7157TIP3   OH245665   2.620   8.238  10.017  0.0091  0.2310 -0.3295
 7157TIP3    H145666   2.627   8.171  10.085 -0.0848 -1.7178 -2.1280
 7157TIP3    H245667   2.630   8.190   9.935 -0.5678  2.3793 -1.7446
 7158TIP3   OH245668   5.490   5.982   9.528  0.7881  0.0594  0.1067
 7158TIP3    H145669   5.527   5.912   9.474 -0.2781  0.1253 -0.7511
 7158TIP3    H245670   5.538   6.060   9.502 -0.8791  0.4521 -2.1337
 7159TIP3   OH245671   1.567   3.541  10.331 -0.0262 -1.0709 -0.3436
 7159TIP3    H145672   1.610   3.562  10.248 -1.4105  1.8871 -0.4688
 7159TIP3    H245673   1.632   3.561  10.398  0.7651 -2.5264 -0.6390
 7160TIP3   OH245674   3.203   6.692  10.433  0.5198 -0.1020 -0.3107
 7160TIP3    H145675   3.207   6.658  10.343  0.9470 -0.0452 -0.3174
 7160TIP3    H245676   3.290   6.727  10.448 -0.1278  1.6940 -0.5698
 7161TIP3   OH245677   5.603   1.606  10.101 -0.0285  0.3086  0.3256
 7161TIP3    H145678   5.522   1.564  10.073  0.3912 -0.5549  0.3965
 7161TIP3    H245679   5.672   1.556  10.059  0.4369  2.9371 -2.4323
 7162TIP3   OH245680   3.492   1.798  11.020 -0.2746  0.4987 -0.2078
 7162TIP3    H145681   3.575   1.842  11.037 -0.3602  0.4305  0.4272
 7162TIP3    H245682   3.463   1.767  11.106  0.7640 -2.5718 -0.8457
 7163TIP3   OH245683   6.305   5.118  10.512  0.2184 -0.1560 -0.1880
 7163TIP3    H145684   6.335   5.156  10.595 -0.3455  1.1725 -0.5658
 7163TIP3    H245685   6.299   5.024  10.530 -0.3453  0.1484  1.4313
 7164TIP3   OH245686   8.436   1.407  10.390  0.0091 -0.2037  0.0407
 7164TIP3    H145687   8.531   1.419  10.379 -0.0421  1.4240  1.0173
 7164TIP3    H245688   8.399   1.442  10.309  0.2142 -0.5429 -0.2054
 7165TIP3   OH245689   6.095   5.624   9.932 -0.0276  0.7024 -0.9640
 7165TIP3    H145690   6.114   5.678   9.855  1.1833  1.9856  0.1911
 7165TIP3    H245691   6.074   5.687  10.001 -2.3936 -0.4540 -0.5186
 7166TIP3   OH245692   7.576   3.422  10.626  0.4037  0.0872  0.0177
 7166TIP3    H145693   7.563   3.446  10.717  1.1156  0.0615  0.1286
 7166TIP3    H245694   7.624   3.340  10.629  0.0731 -0.1260 -0.3794
 7167TIP3   OH245695   8.318   8.083   9.595  0.2280  0.3648 -0.0126
 7167TIP3    H145696   8.366   8.019   9.647 -0.7336  0.1940  0.6901
 7167TIP3    H245697   8.279   8.142   9.659  0.7226  1.3964 -0.6386
 7168TIP3   OH245698   0.754   0.628  11.045  0.2296 -0.4822 -0.2288
 7168TIP3    H145699   0.761   0.533  11.047 -1.4209 -0.7066 -1.8465
 7168TIP3    H245700   0.661   0.646  11.057  0.2579  0.7987 -1.5392
 7169TIP3   OH245701   6.330   5.845   9.536  0.3059  0.3136 -0.0972
 7169TIP3    H145702   6.399   5.782   9.557  0.2019 -0.0004 -0.6721
 7169TIP3    H245703   6.315   5.833   9.443 -1.5283 -0.6474  0.2701
 7170TIP3   OH245704   1.141   1.242  10.560 -0.2795  0.4347  0.5246
 7170TIP3    H145705   1.231   1.233  10.591 -0.3411 -1.3133  0.3391
 7170TIP3    H245706   1.108   1.320  10.604  1.4262  1.3255  0.2993
 7171TIP3   OH245707   7.646   5.264  10.125  0.1924  0.1282  0.6805
 7171TIP3    H145708   7.727   5.293  10.165  1.5845  1.3000 -2.6246
 7171TIP3    H245709   7.599   5.345  10.104 -0.2232 -0.3648 -0.3952
 7172TIP3   OH245710   5.481   0.703   9.879 -0.4674  0.3316 -0.3339
 7172TIP3    H145711   5.567   0.662   9.890 -1.5336 -2.3546 -1.1281
 7172TIP3    H245712   5.489   0.755   9.800 -0.0245 -1.4146 -1.5034
 7173TIP3   OH245713   0.774   7.886   9.321  0.4505 -0.2056 -0.1202
 7173TIP3    H145714   0.826   7.942   9.379  2.7936 -1.0870 -1.2328
 7173TIP3    H245715   0.777   7.930   9.236  1.4990 -1.4380 -0.7718
 7174TIP3   OH245716   7.697   0.398  11.239  0.1660 -0.4575 -0.1270
 7174TIP3    H145717   7.649   0.481  11.233 -0.3003 -0.8014 -4.4900
 7174TIP3    H245718   7.789   0.423  11.240  0.0930  0.0560  2.5307
 7175TIP3   OH245719   3.088   2.170   9.827 -0.2500 -0.8530 -0.1629
 7175TIP3    H145720   3.012   2.206   9.780  0.6483  1.6170  0.0969
 7175TIP3    H245721   3.060   2.165   9.918  0.2384  1.4350  0.1867
 7176TIP3   OH245722   6.038   0.266   9.146 -0.3318  0.3776 -0.1881
 7176TIP3    H145723   5.955   0.251   9.193 -0.3902 -0.4134 -0.5345
 7176TIP3    H245724   6.105   0.240   9.209 -0.3040  1.5913  0.3156
 7177TIP3   OH245725   4.668   2.404   9.707 -0.1647 -0.0642 -0.0743
 7177TIP3    H145726   4.578   2.429   9.686 -0.4570  0.7687  1.9675
 7177TIP3    H245727   4.659   2.324   9.759  0.2678  0.0004  0.1035
 7178TIP3   OH245728   0.722   5.321  10.298 -0.3889 -0.0676 -0.3848
 7178TIP3    H145729   0.777   5.251  10.333 -0.5228 -1.3483 -2.5393
 7178TIP3    H245730   0.665   5.345  10.371  1.8745  0.1957  1.4318
 7179TIP3   OH245731   3.853   0.001   8.895  0.3570 -0.2004  0.8472
 7179TIP3    H145732   3.806  -0.047   8.827  1.0258  0.4578 -0.1096
 7179TIP3    H245733   3.793   0.070   8.923  0.2683 -0.1598  0.5558
 7180TIP3   OH245734   2.218   2.573  10.834  0.9250  0.5809 -0.1705
 7180TIP3    H145735   2.233   2.548  10.742  0.7507 -1.6646  0.3377
 7180TIP3    H245736   2.187   2.492  10.875 -1.0340  2.0480  1.4227
 7181TIP3   OH245737   5.923   2.696   9.061  0.1038 -0.5159 -0.6199
 7181TIP3    H145738   6.014   2.697   9.090 -0.1057 -0.7486  0.0626
 7181TIP3    H245739   5.891   2.609   9.086 -0.2548 -0.5006 -1.0197
 7182TIP3   OH245740   6.800   4.715  10.530  0.0278  0.3881  0.5313
 7182TIP3    H145741   6.771   4.806  10.524 -2.9338 -0.4654 -0.1027
 7182TIP3    H245742   6.814   4.700  10.623 -2.0234  0.8583  0.9624
 7183TIP3   OH245743   0.372   1.043   9.929 -0.0641 -0.3099  0.2620
 7183TIP3    H145744   0.376   1.135   9.954 -0.2755  0.2258 -1.5184
 7183TIP3    H245745   0.452   1.005   9.966  1.1130  1.0834 -0.7483
 7184TIP3   OH245746   6.539   8.205  10.176 -0.4063  0.2411 -0.6535
 7184TIP3    H145747   6.504   8.116  10.171 -1.7889  0.8139 -1.7142
 7184TIP3    H245748   6.586   8.217  10.093  3.0924 -0.7538  1.0019
 7185TIP3   OH245749   1.333   8.379   9.254  0.3500  0.3160 -0.1632
 7185TIP3    H145750   1.306   8.460   9.210  1.6354  0.7680 -0.1384
 7185TIP3    H245751   1.405   8.405   9.311  0.6332 -0.8117  0.0079
 7186TIP3   OH245752   7.646   4.239   9.959  1.1772  0.0546  0.0207
 7186TIP3    H145753   7.646   4.301  10.031  0.0680 -0.6254  0.6396
 7186TIP3    H245754   7.724   4.186   9.972  1.5837  0.6607  0.0698
 7187TIP3   OH245755   7.419   7.882  10.981 -0.4956  0.6205  0.5384
 7187TIP3    H145756   7.361   7.957  10.971 -1.1801  0.1896  1.1965
 7187TIP3    H245757   7.472   7.881  10.901 -1.2812  1.1136  0.0082
 7188TIP3   OH245758   6.750   1.043  10.081 -0.2418 -0.3259  0.6395
 7188TIP3    H145759   6.690   0.985  10.034 -0.8563 -0.1221  1.1667
 7188TIP3    H245760   6.762   1.117  10.021  2.4541 -2.0147 -1.1383
 7189TIP3   OH245761   2.470   3.970  10.291  0.0370  0.2995 -0.1191
 7189TIP3    H145762   2.408   3.990  10.221 -0.0508  0.5221  0.0249
 7189TIP3    H245763   2.475   4.050  10.343  0.5209  0.3187 -0.1892
 7190TIP3   OH245764   4.178   8.183   9.863  0.8859  0.0966  0.6454
 7190TIP3    H145765   4.103   8.233   9.896  0.4991 -0.2785  0.3474
 7190TIP3    H245766   4.214   8.139   9.940  0.2361 -0.4526  0.6440
 7191TIP3   OH245767   5.632   8.324   9.384 -0.1813 -0.3095 -0.2751
 7191TIP3    H145768   5.637   8.411   9.346  0.1387 -0.0505  0.3390
 7191TIP3    H245769   5.723   8.302   9.405 -0.3639 -0.3830  0.4581
 7192TIP3   OH245770   0.506   3.353  10.688  0.0797  0.2969 -0.2186
 7192TIP3    H145771   0.565   3.400  10.747  1.8063 -0.5245 -1.2188
 7192TIP3    H245772   0.554   3.273  10.666 -2.4571 -1.6700  0.9057
 7193TIP3   OH245773   7.374   3.658  10.840 -0.1253 -0.0637  0.1249
 7193TIP3    H145774   7.393   3.748  10.866  3.2277 -0.4504 -0.6063
 7193TIP3    H245775   7.449   3.607  10.872 -1.8560 -2.6325  0.4104
 7194TIP3   OH245776   1.155   6.073   9.813  0.7078 -0.6842  0.2079
 7194TIP3    H145777   1.194   6.119   9.739 -1.4083 -0.1549 -0.6639
 7194TIP3    H245778   1.210   5.996   9.825  2.5420  0.5057 -0.2826
 7195TIP3   OH245779   3.377   3.778   9.568  0.3751  0.5365  0.5819
 7195TIP3    H145780   3.454   3.757   9.516  1.1927  0.1172  1.9099
 7195TIP3    H245781   3.410   3.835   9.638 -0.8463  1.8333  0.1667
 7196TIP3   OH245782   1.901   1.612   9.483  0.1822  0.4185 -0.0872
 7196TIP3    H145783   1.816   1.582   9.514  0.8663 -1.2848  0.2818
 7196TIP3    H245784   1.944   1.647   9.561  1.0950 -1.9300  0.5632
 7197TIP3   OH245785   5.252   7.645   8.888 -0.0350  0.5395 -0.3692
 7197TIP3    H145786   5.205   7.691   8.958  2.2885  1.3762  0.7253
 7197TIP3    H245787   5.185   7.629   8.821 -2.0517  0.8973  1.4442
 7198TIP3   OH245788   3.470   7.965   9.789  0.3644  0.2851 -0.0915
 7198TIP3    H145789   3.548   7.910   9.791  1.1905  1.4283  0.2619
 7198TIP3    H245790   3.407   7.919   9.844  0.9363 -0.4384 -0.0287
 7199TIP3   OH245791   2.255   0.911   9.490  0.0181 -0.0273 -0.0784
 7199TIP3    H145792   2.328   0.863   9.529 -0.1098  0.5763  0.9359
 7199TIP3    H245793   2.296   0.988   9.450 -0.0035  0.0580  0.0625
 7200TIP3   OH245794   2.614   6.564   8.956  0.1128  0.5883  0.5664
 7200TIP3    H145795   2.653   6.485   8.994 -0.9408  0.1945  0.8614
 7200TIP3    H245796   2.681   6.631   8.968 -0.0838  0.4580  3.0327
 7201TIP3   OH245797   7.168   4.991  10.164  0.4233 -0.4865  0.2103
 7201TIP3    H145798   7.139   4.916  10.113  0.5794  1.5430 -3.2035
 7201TIP3    H245799   7.250   5.018  10.124  0.4801  1.3707  1.4225
 7202TIP3   OH245800   3.185   8.052  10.097 -0.0244 -0.2987  0.0690
 7202TIP3    H145801   3.166   8.142  10.124 -2.7857 -0.3804 -1.2770
 7202TIP3    H245802   3.176   8.000  10.177 -0.2987  0.3794  0.4835
 7203TIP3   OH245803   6.131   7.135   9.733 -0.6143  0.5821 -0.7642
 7203TIP3    H145804   6.219   7.148   9.768 -0.2591 -0.9373 -1.0220
 7203TIP3    H245805   6.143   7.079   9.656 -1.6659  1.5126 -1.6447
 7204TIP3   OH245806   0.712   1.401   9.390 -0.1308 -0.0197  0.4581
 7204TIP3    H145807   0.655   1.443   9.455  0.1246 -1.5533  1.7206
 7204TIP3    H245808   0.791   1.377   9.439  1.4263  1.5313 -1.1286
 7205TIP3   OH245809   8.330   3.937   9.470  0.0188 -0.6264 -0.1123
 7205TIP3    H145810   8.282   3.899   9.544 -0.7044 -2.2142 -1.3266
 7205TIP3    H245811   8.401   3.987   9.510 -0.8474 -0.7412  1.6644
 7206TIP3   OH245812   1.069   0.372  10.610 -0.1102 -0.0904  0.7552
 7206TIP3    H145813   1.064   0.290  10.561 -2.2638 -0.0856  0.9019
 7206TIP3    H245814   1.155   0.408  10.587 -1.4579  0.6221 -4.1835
 7207TIP3   OH245815   3.519   0.490  10.138 -0.0144 -0.1349  0.1411
 7207TIP3    H145816   3.464   0.430  10.087  1.0534 -1.1938  0.1804
 7207TIP3    H245817   3.558   0.435  10.205 -0.1266  0.9193  1.0935
 7208TIP3   OH245818   2.654   6.881  10.572 -0.0911  0.3140  0.0262
 7208TIP3    H145819   2.734   6.827  10.572 -0.3250 -0.0341 -0.4828
 7208TIP3    H245820   2.685   6.969  10.550  0.4958  0.7183  2.2468
 7209TIP3   OH245821   1.936   2.825  10.211  0.1501  0.0582 -0.0155
 7209TIP3    H145822   2.017   2.828  10.262  1.5175 -1.1528 -1.9622
 7209TIP3    H245823   1.949   2.890  10.142  0.0016 -0.9166 -1.0010
 7210TIP3   OH245824   6.706   5.824   8.768 -0.0326 -0.9041 -0.2232
 7210TIP3    H145825   6.628   5.869   8.802 -0.0983  0.3823 -1.9303
 7210TIP3    H245826   6.737   5.880   8.697  2.3128 -1.5167  0.2063
 7211TIP3   OH245827   8.149   3.632  10.793 -0.2708 -0.2853  0.2014
 7211TIP3    H145828   8.071   3.577  10.790 -0.2539 -0.3670  1.0719
 7211TIP3    H245829   8.125   3.706  10.848  0.8980 -1.3906  2.3524
 7212TIP3   OH245830   1.972   0.655  10.524 -1.0259  0.1859  0.3971
 7212TIP3    H145831   1.889   0.674  10.569 -0.3732 -0.6729  2.0286
 7212TIP3    H245832   1.985   0.730  10.465 -2.5496  0.7187  0.6929
 7213TIP3   OH245833   8.333   5.860  10.667 -0.2926  0.0515  0.0808
 7213TIP3    H145834   8.316   5.906  10.585 -1.6062  0.5004  0.5712
 7213TIP3    H245835   8.294   5.917  10.734 -0.1274 -0.7894  0.9070
 7214TIP3   OH245836   5.951   7.354   9.700  0.2544  0.1501 -0.9447
 7214TIP3    H145837   5.856   7.355   9.703  0.2734 -0.3150  0.1655
 7214TIP3    H245838   5.975   7.262   9.708  0.7768  0.0592 -3.0600
 7215TIP3   OH245839   6.180   0.980   9.331  0.0299  0.4765  0.2225
 7215TIP3    H145840   6.175   1.051   9.267 -0.1110 -0.2227 -0.5556
 7215TIP3    H245841   6.240   1.013   9.398  1.0483  0.8077 -0.8185
 7216TIP3   OH245842   0.512   3.158  10.957 -0.1597  0.2945 -0.2073
 7216TIP3    H145843   0.496   3.229  11.020 -0.6402 -0.9428  1.1272
 7216TIP3    H245844   0.593   3.117  10.988 -0.2829 -0.1856 -0.5180
 7217TIP3   OH245845   2.470   0.698  10.821 -0.8489  0.3487  0.5298
 7217TIP3    H145846   2.516   0.772  10.860 -0.1610  0.2563 -0.0776
 7217TIP3    H245847   2.390   0.735  10.784 -0.3412  0.8655 -0.0839
 7218TIP3   OH245848   4.589   2.154  10.922  0.0048 -0.2304  0.2156
 7218TIP3    H145849   4.509   2.193  10.886  1.2290  2.0324 -0.2100
 7218TIP3    H245850   4.627   2.223  10.975  2.4795 -0.6839 -0.8555
 7219TIP3   OH245851   1.339   0.916   8.998  0.3728  0.4500  0.3247
 7219TIP3    H145852   1.391   0.836   8.989 -0.4080 -0.0881  0.4984
 7219TIP3    H245853   1.353   0.943   9.088  2.4911  1.8347 -0.3620
 7220TIP3   OH245854   3.066   4.870  11.143 -0.5095 -0.0302  0.0809
 7220TIP3    H145855   2.988   4.853  11.196  0.0221 -1.8517  0.3496
 7220TIP3    H245856   3.120   4.792  11.155  1.7554  1.5245  0.5915
 7221TIP3   OH245857   4.557   1.947   8.892 -0.3119 -0.2712 -0.3009
 7221TIP3    H145858   4.615   2.000   8.838  0.9244 -0.7726  0.4996
 7221TIP3    H245859   4.499   2.011   8.934 -0.5359  0.2101 -1.2987
 7222TIP3   OH245860   1.239   4.659   9.953 -0.4817  0.1922 -0.2624
 7222TIP3    H145861   1.273   4.703   9.875  3.1606 -0.6784  0.6132
 7222TIP3    H245862   1.145   4.656   9.941 -0.1646  1.1686 -4.0240
 7223TIP3   OH245863   4.287   3.253   9.521 -0.1922  0.0674  0.3902
 7223TIP3    H145864   4.223   3.194   9.560 -0.1722 -0.5386 -0.4735
 7223TIP3    H245865   4.280   3.238   9.427 -0.6438  1.9224  0.0886
 7224TIP3   OH245866   3.942   3.255   9.720 -0.1813 -0.1666 -0.1260
 7224TIP3    H145867   3.995   3.176   9.731 -1.5510 -1.0805  0.1941
 7224TIP3    H245868   3.945   3.272   9.626  1.1149  0.1362 -0.0493
 7225TIP3   OH245869   6.930   8.159   8.773  0.7631 -0.2230 -0.2261
 7225TIP3    H145870   7.010   8.108   8.788  1.1754  0.8168  1.2756
 7225TIP3    H245871   6.951   8.247   8.804 -0.9975  0.0440  0.3107
 7226TIP3   OH245872   5.324   5.267   9.898 -0.1943  0.0241  0.3616
 7226TIP3    H145873   5.349   5.302   9.812  1.8728  0.8155  1.2155
 7226TIP3    H245874   5.391   5.201   9.917 -0.2509  0.3128  1.6238
 7227TIP3   OH245875   6.659   0.571   9.602  0.1531  0.0962 -0.2159
 7227TIP3    H145876   6.657   0.659   9.639 -0.1735 -0.1691  0.4034
 7227TIP3    H245877   6.569   0.554   9.575 -0.0869 -0.5981  0.9772
 7228TIP3   OH245878   2.225   4.028   9.887 -0.1577 -0.0548  0.1216
 7228TIP3    H145879   2.146   4.036   9.834  0.4231 -0.6611 -0.8781
 7228TIP3    H245880   2.226   3.937   9.916  0.6828 -0.3493 -0.7519
 7229TIP3   OH245881   4.434   4.250  10.748  0.0063  0.6858 -0.3999
 7229TIP3    H145882   4.442   4.345  10.750 -1.1455  0.7929  1.7254
 7229TIP3    H245883   4.510   4.218  10.797  1.5281  0.3310 -2.8165
 7230TIP3   OH245884   4.741   3.598   9.575 -0.0953 -0.8522 -0.5124
 7230TIP3    H145885   4.727   3.541   9.499  0.8231 -1.4504 -0.2420
 7230TIP3    H245886   4.667   3.578   9.632 -2.5806  1.8359 -2.5126
 7231TIP3   OH245887   4.842   0.426   9.395  0.2450 -0.7937 -0.0352
 7231TIP3    H145888   4.886   0.510   9.376  0.7581 -0.9518  0.4325
 7231TIP3    H245889   4.816   0.393   9.309 -0.7579  0.2630 -0.1643
 7232TIP3   OH245890   6.218   7.300  10.070  0.4464 -0.1282 -0.1040
 7232TIP3    H145891   6.274   7.228  10.096  2.2679  1.3229  0.2318
 7232TIP3    H245892   6.251   7.327   9.984  1.8733  2.1800  1.0558
 7233TIP3   OH245893   5.339   5.346  10.338  0.8513 -0.1546  0.5249
 7233TIP3    H145894   5.314   5.380  10.424  1.0207 -0.4960  0.7111
 7233TIP3    H245895   5.260   5.302  10.306  0.3596  1.1276 -0.0888
 7234TIP3   OH245896   2.234   2.808   9.925 -0.3621  0.0774 -0.2230
 7234TIP3    H145897   2.230   2.756  10.005 -0.6304  0.7121  0.1860
 7234TIP3    H245898   2.149   2.852   9.920 -0.4419 -0.1495 -0.9898
 7235TIP3   OH245899   6.336   7.764  11.114  0.1345  0.2568 -0.1657
 7235TIP3    H145900   6.345   7.786  11.207  0.6720 -0.3015 -0.0804
 7235TIP3    H245901   6.413   7.803  11.072 -1.0982  2.2230 -0.7189
 7236TIP3   OH245902   3.959   2.962   9.194 -0.1087 -0.0450  0.6724
 7236TIP3    H145903   4.034   3.019   9.211 -0.0697  0.2529 -0.4184
 7236TIP3    H245904   3.883   3.021   9.195 -0.2167 -0.1843  0.7941
 7237TIP3   OH245905   1.075   4.913  10.384  0.3943  0.2638  0.5296
 7237TIP3    H145906   1.053   5.004  10.404 -0.5540  0.1004  0.2930
 7237TIP3    H245907   1.093   4.913  10.290  1.9298  0.4799  0.7969
 7238TIP3   OH245908   4.363   7.112   9.784  0.0400 -0.1071  0.9288
 7238TIP3    H145909   4.351   7.199   9.746 -0.2618 -0.2039  0.8076
 7238TIP3    H245910   4.429   7.126   9.853 -0.5519  0.3669  1.4181
 7239TIP3   OH245911   5.228   6.173  10.273 -0.2640  0.0552 -0.4171
 7239TIP3    H145912   5.173   6.171  10.351  0.9122 -0.0526  0.4433
 7239TIP3    H245913   5.168   6.157  10.201 -1.3927  0.2112  0.4546
 7240TIP3   OH245914   3.279   2.400   8.783 -0.3967  1.4152 -0.3724
 7240TIP3    H145915   3.254   2.312   8.756 -1.1926  1.8934 -1.2655
 7240TIP3    H245916   3.257   2.455   8.708 -0.6022  2.4783  0.4432
 7241TIP3   OH245917   6.624   4.136  10.278 -0.3242 -0.2822 -0.0462
 7241TIP3    H145918   6.684   4.209  10.291 -1.9047  0.8818  1.1966
 7241TIP3    H245919   6.665   4.062  10.323 -0.3013  0.7713  1.7709
 7242TIP3   OH245920   6.245   5.817  10.524  0.6226  0.1102  0.2541
 7242TIP3    H145921   6.266   5.910  10.539  0.8626  0.0734  0.1587
 7242TIP3    H245922   6.327   5.780  10.490 -0.4514  0.6433 -3.2964
 7243TIP3   OH245923   7.290   1.112   9.859  0.2021  0.5958  0.0626
 7243TIP3    H145924   7.200   1.127   9.831  0.9156  1.1067 -2.1119
 7243TIP3    H245925   7.290   1.022   9.892 -0.8581  0.1539 -1.0639
 7244TIP3   OH245926   4.499   2.234  10.342  0.3312  0.1172 -0.8384
 7244TIP3    H145927   4.595   2.229  10.332  0.3171 -0.3409 -0.7331
 7244TIP3    H245928   4.466   2.213  10.254  0.3169 -0.1305 -0.7749
 7245TIP3   OH245929   0.621   1.746  10.528  0.1010 -0.6769 -0.4275
 7245TIP3    H145930   0.583   1.714  10.610  0.1367 -0.4890 -0.3350
 7245TIP3    H245931   0.591   1.684  10.462 -3.5937  1.4317 -1.0476
 7246TIP3   OH245932   2.895   5.779   8.997  0.1647 -0.3551  0.2826
 7246TIP3    H145933   2.952   5.711   8.960 -1.4542 -1.8328  0.3892
 7246TIP3    H245934   2.811   5.768   8.952 -0.5842  0.6146  1.3647
 7247TIP3   OH245935   4.696   1.783  10.419  0.2321 -0.0364  0.3764
 7247TIP3    H145936   4.645   1.710  10.455  0.5355 -0.7336 -0.5578
 7247TIP3    H245937   4.701   1.846  10.490  0.6863 -1.3026  1.5224
 7248TIP3   OH245938   7.294   6.408  10.405 -0.0117  0.3343  0.1380
 7248TIP3    H145939   7.273   6.498  10.429 -0.6736  0.0071  0.8362
 7248TIP3    H245940   7.317   6.366  10.488 -1.7256 -0.6557  0.1620
 7249TIP3   OH245941   5.033   1.046   9.119  0.4363  0.0537  0.4930
 7249TIP3    H145942   4.997   1.072   9.203 -0.2117  0.8779 -0.0266
 7249TIP3    H245943   4.964   1.067   9.056  0.7844 -0.8426 -0.2156
 7250TIP3   OH245944   3.380   1.337   9.159 -0.1731  0.0327 -0.1067
 7250TIP3    H145945   3.413   1.274   9.223 -0.1208 -1.8731 -1.9366
 7250TIP3    H245946   3.285   1.322   9.156 -0.5003  1.5803  0.9844
 7251TIP3   OH245947   2.613   4.793   9.194  0.1909  0.5922  0.6747
 7251TIP3    H145948   2.703   4.760   9.199  0.0845 -0.0065 -0.9110
 7251TIP3    H245949   2.568   4.752   9.268  0.7761 -0.5497  0.4158
 7252TIP3   OH245950   2.428   7.960   8.922 -0.1290 -0.1533  0.2237
 7252TIP3    H145951   2.405   7.868   8.911  1.5189 -0.4589 -1.2406
 7252TIP3    H245952   2.515   7.958   8.964  0.6244  0.6482 -1.2249
 7253TIP3   OH245953   6.734   2.472   9.517 -0.5361 -0.1452  0.3222
 7253TIP3    H145954   6.774   2.441   9.598 -1.1386 -0.6718  0.4326
 7253TIP3    H245955   6.674   2.541   9.545 -1.4174 -0.9351  0.4584
 7254TIP3   OH245956   5.594   2.980   9.770  0.1983  0.2193 -0.0696
 7254TIP3    H145957   5.550   2.991   9.854 -1.2064 -0.6730 -0.6546
 7254TIP3    H245958   5.647   2.901   9.779  0.7115  0.5858  0.2202
 7255TIP3   OH245959   5.630   4.748   9.827  0.2812  0.3886 -0.2980
 7255TIP3    H145960   5.658   4.818   9.885 -0.4115  1.1549 -0.8713
 7255TIP3    H245961   5.622   4.789   9.741 -0.7865 -0.2225 -0.5089
 7256TIP3   OH245962   5.839   1.494   9.982 -0.3660  0.3646 -0.7669
 7256TIP3    H145963   5.876   1.582   9.983 -0.8878  0.5888 -1.0483
 7256TIP3    H245964   5.889   1.446  10.049 -1.9869  1.6669  1.5022
 7257TIP3   OH245965   7.316   0.596  10.496  0.2016 -0.2560  0.0207
 7257TIP3    H145966   7.270   0.554  10.569 -0.7299  3.2768  1.6978
 7257TIP3    H245967   7.408   0.588  10.519 -0.0545  0.3305  1.3945
 7258TIP3   OH245968   5.631   0.112  10.716 -0.5712  0.8034 -0.9313
 7258TIP3    H145969   5.591   0.129  10.801  0.7420  0.9668 -0.3206
 7258TIP3    H245970   5.719   0.081  10.737 -0.9035 -1.1571 -2.1855
 7259TIP3   OH245971   1.449   2.290   8.937  0.1886 -0.4807  0.5079
 7259TIP3    H145972   1.397   2.370   8.944  1.2827  0.2768  0.2729
 7259TIP3    H245973   1.533   2.320   8.902  1.7591 -1.2432  3.3250
 7260TIP3   OH245974   1.034   1.268   8.489  0.6551  0.3108 -0.0584
 7260TIP3    H145975   1.129   1.272   8.498  0.9552 -0.6106 -2.1730
 7260TIP3    H245976   1.011   1.177   8.510  0.5710 -0.0806 -1.7092
 7261TIP3   OH245977   2.034   5.746   9.816 -0.5737  0.4579  0.0158
 7261TIP3    H145978   2.086   5.696   9.878 -0.4442 -0.4684 -0.8142
 7261TIP3    H245979   1.969   5.684   9.783 -0.0399  0.6558 -1.4751
 7262TIP3   OH245980   1.307   5.710  10.311  0.5977 -0.0918  0.3852
 7262TIP3    H145981   1.303   5.724  10.406  1.8347  0.9244  0.3172
 7262TIP3    H245982   1.401   5.704  10.292  0.4047  0.6467 -0.8876
 7263TIP3   OH245983   3.039   7.965   8.783 -0.2946 -0.1485  0.1982
 7263TIP3    H145984   2.968   7.904   8.768 -0.0342 -0.5415  0.5541
 7263TIP3    H245985   3.054   8.006   8.697 -1.1766  0.1983  0.1963
 7264TIP3   OH245986   4.708   5.367   9.072 -0.2472 -0.0859  0.0603
 7264TIP3    H145987   4.672   5.417   9.145 -0.5163  1.0351 -0.8131
 7264TIP3    H245988   4.716   5.277   9.106  1.0749  0.6880  1.9355
 7265TIP3   OH245989   1.498   6.748  14.972  0.0609  0.2803 -0.5950
 7265TIP3    H145990   1.407   6.740  14.942  0.0452 -3.1786 -0.0514
 7265TIP3    H245991   1.551   6.729  14.895  0.1888 -0.9399 -0.2336
 7266TIP3   OH245992   7.480   2.582  10.306  0.1811 -0.9554 -0.3592
 7266TIP3    H145993   7.411   2.621  10.359  0.1548 -0.3352 -0.8373
 7266TIP3    H245994   7.561   2.611  10.348  0.1591 -0.5606 -0.5828
 7267TIP3   OH245995   2.439   8.031   9.312 -0.1828 -0.2847 -0.4280
 7267TIP3    H145996   2.443   8.109   9.257  0.6293 -1.4827 -2.1632
 7267TIP3    H245997   2.477   8.058   9.396 -2.2217  1.8230 -0.0970
 7268TIP3   OH245998   1.731   1.790  10.201  0.0596 -0.2074  0.4867
 7268TIP3    H145999   1.764   1.718  10.147  0.4998  0.4523 -0.1410
 7268TIP3    H246000   1.645   1.809  10.164 -1.8455 -2.9522  3.0827
 7269TIP3   OH246001   6.442   6.657  10.620 -0.2662 -0.6689 -1.0947
 7269TIP3    H146002   6.535   6.636  10.621  0.1397  0.9216 -1.8899
 7269TIP3    H246003   6.436   6.745  10.656 -1.3084 -0.2895 -2.0933
 7270TIP3   OH246004   2.628   6.367  10.804 -0.0156  0.1367  0.7631
 7270TIP3    H146005   2.598   6.386  10.893 -1.4797  1.7827 -0.0181
 7270TIP3    H246006   2.551   6.383  10.749  1.2950  0.7574 -0.9703
 7271TIP3   OH246007   7.437   1.263   9.629  0.0097 -0.0824  0.4227
 7271TIP3    H146008   7.458   1.188   9.573  1.6006 -0.0347  0.8880
 7271TIP3    H246009   7.379   1.227   9.696  0.5527 -0.8577  0.4929
 7272TIP3   OH246010   6.799   5.610   9.422 -0.7770  0.3900  0.4972
 7272TIP3    H146011   6.829   5.614   9.513  1.6764 -0.5315 -0.2056
 7272TIP3    H246012   6.863   5.663   9.374 -2.0616  0.8925 -0.7237
 7273TIP3   OH246013   8.331   5.084   8.808  0.4805  0.1801  0.3419
 7273TIP3    H146014   8.371   5.008   8.850 -0.3425  0.0818  0.9836
 7273TIP3    H246015   8.354   5.076   8.716 -0.3649 -1.3789  0.2315
 7274TIP3   OH246016   7.156   7.997   8.815  0.4800 -0.1167 -0.0361
 7274TIP3    H146017   7.091   7.966   8.878 -0.0766 -1.4375 -1.1901
 7274TIP3    H246018   7.225   8.035   8.868 -0.5987  0.0629  1.2976
 7275TIP3   OH246019   4.297   1.197   9.533 -0.5929 -0.3813  0.3337
 7275TIP3    H146020   4.354   1.200   9.456  0.7117  1.0243  1.2965
 7275TIP3    H246021   4.303   1.107   9.563 -3.2015 -1.7540 -2.6032
 7276TIP3   OH246022   2.518   4.310  10.721  0.3706 -0.0236 -0.1832
 7276TIP3    H146023   2.525   4.227  10.674  1.2881  1.1545 -2.2813
 7276TIP3    H246024   2.424   4.318  10.741  0.5242 -2.5482  2.1574
 7277TIP3   OH246025   7.940   5.953   8.930 -0.6157 -0.2654  0.1756
 7277TIP3    H146026   7.860   5.930   8.883 -0.8737  0.9657 -0.0279
 7277TIP3    H246027   7.967   6.037   8.891 -0.0845  0.1032  1.2989
 7278TIP3   OH246028   5.101   3.133   9.840 -0.5600 -0.0630 -0.2229
 7278TIP3    H146029   5.103   3.056   9.784  2.0683 -0.9018  0.8476
 7278TIP3    H246030   5.139   3.103   9.923  0.1257  2.2463  0.3771
 7279TIP3   OH246031   6.489   6.265  11.259  0.4240 -0.0599 -0.3932
 7279TIP3    H146032   6.442   6.336  11.303  1.3109  0.8459 -0.8803
 7279TIP3    H246033   6.423   6.196  11.249 -0.7240  1.0329 -0.7425
 7280TIP3   OH246034   1.908   3.961  10.083 -0.0974 -0.2073 -0.3737
 7280TIP3    H146035   1.930   3.871  10.109  1.3302 -0.0527 -0.9898
 7280TIP3    H246036   1.926   3.964   9.989 -0.2768  0.6924 -0.3876
 7281TIP3   OH246037   1.718   2.411   9.165  0.6782  0.0358 -0.8014
 7281TIP3    H146038   1.769   2.492   9.170 -1.4557  1.5783 -2.0607
 7281TIP3    H246039   1.682   2.399   9.253  0.2266  1.0505 -0.8306
 7282TIP3   OH246040   7.346   2.417  10.581  0.5919 -0.6602  0.3148
 7282TIP3    H146041   7.281   2.455  10.523  0.1963 -1.5063  0.1958
 7282TIP3    H246042   7.382   2.343  10.533  1.6944 -0.1760  0.3503
 7283TIP3   OH246043   6.190   0.703   9.725  0.6157 -0.6469 -0.3518
 7283TIP3    H146044   6.117   0.737   9.777  1.8107 -0.3651  1.2193
 7283TIP3    H246045   6.176   0.739   9.638  0.3959  1.7307  0.5995
 7284TIP3   OH246046   2.219   6.471   8.732  0.4207 -0.1279 -0.0466
 7284TIP3    H146047   2.313   6.453   8.725  0.5879  0.9404 -0.8191
 7284TIP3    H246048   2.212   6.566   8.727 -0.6684 -0.1559  0.6166
 7285TIP3   OH246049   2.126   4.670  10.818 -0.2268 -0.6205 -0.4071
 7285TIP3    H146050   2.030   4.675  10.815 -0.2079 -0.6730 -2.2869
 7285TIP3    H246051   2.144   4.597  10.878 -1.4113 -1.3754 -0.9234
 7286TIP3   OH246052   3.720   6.860  10.169  0.6955  0.2111 -0.5335
 7286TIP3    H146053   3.630   6.843  10.198  1.1522 -2.0355 -0.2638
 7286TIP3    H246054   3.774   6.840  10.245  1.5644 -0.9131 -1.4166
 7287TIP3   OH246055   0.448   1.675  10.740  0.3636  0.0563 -0.0064
 7287TIP3    H146056   0.490   1.655  10.824  2.9843 -0.8931 -1.4280
 7287TIP3    H246057   0.404   1.759  10.755  2.8527  1.1779  1.6628
 7288TIP3   OH246058   7.712   3.850   9.684 -0.6468  0.0597  0.0568
 7288TIP3    H146059   7.713   3.945   9.677 -0.4993  0.3502  2.8772
 7288TIP3    H246060   7.804   3.824   9.670 -0.2394  0.5959  1.6343
 7289TIP3   OH246061   5.044   1.803  10.413 -0.2834 -0.0215  0.4016
 7289TIP3    H146062   5.129   1.818  10.371  0.1523  2.5255  1.9422
 7289TIP3    H246063   5.056   1.722  10.463  0.8957 -0.2514 -0.2238
 7290TIP3   OH246064   3.686   4.729   9.470 -0.0798  0.5231  0.0080
 7290TIP3    H146065   3.648   4.754   9.554 -0.2404 -1.2771  0.5172
 7290TIP3    H246066   3.739   4.652   9.490 -0.2401 -0.0343 -1.5679
 7291TIP3   OH246067   6.550   3.547  10.073  0.2543 -0.2655  0.2255
 7291TIP3    H146068   6.575   3.468  10.120 -0.2107 -0.5704 -0.0333
 7291TIP3    H246069   6.459   3.533  10.049  0.4594 -0.0810 -0.6928
 7292TIP3   OH246070   2.877   2.780   8.497 -0.2609 -0.2036 -0.0398
 7292TIP3    H146071   2.901   2.737   8.416  2.9585  0.5274  0.4112
 7292TIP3    H246072   2.860   2.709   8.558  1.5124 -0.8504 -0.2548
 7293TIP3   OH246073   2.017   6.340   9.948 -0.0334 -0.3212  0.1081
 7293TIP3    H146074   2.041   6.357  10.039  1.4362  2.9643 -0.7332
 7293TIP3    H246075   2.032   6.246   9.936 -0.0721 -0.8044  3.1550
 7294TIP3   OH246076   0.900   3.584  10.030  0.8092  0.0705  0.2310
 7294TIP3    H146077   0.854   3.537  10.099  0.0458 -0.2627 -0.4898
 7294TIP3    H246078   0.902   3.523   9.956 -1.0953  1.4700 -1.0717
 7295TIP3   OH246079   1.943   0.425   9.536 -0.4457  0.0539 -0.0741
 7295TIP3    H146080   1.992   0.348   9.508  0.2861  0.7743 -0.8609
 7295TIP3    H246081   1.950   0.486   9.462 -1.4138  0.6958  0.3334
 7296TIP3   OH246082   4.175   6.955   9.951  0.3722  0.5526 -0.6225
 7296TIP3    H146083   4.185   7.006  10.032 -0.6769  0.2628 -0.2850
 7296TIP3    H246084   4.239   6.992   9.891  1.6384  0.3385  0.5538
 7297TIP3   OH246085   1.880   5.789  10.777  0.2496 -0.2905 -0.1852
 7297TIP3    H146086   1.825   5.825  10.708  0.5016  2.4574  0.9027
 7297TIP3    H246087   1.963   5.838  10.770  0.7399 -0.8594  1.2425
 7298TIP3   OH246088   0.600   4.694  10.744 -0.0182 -0.0658 -0.3097
 7298TIP3    H146089   0.604   4.739  10.660 -1.4181 -0.3878 -0.5810
 7298TIP3    H246090   0.523   4.730  10.787 -0.4832 -1.3202 -0.0321
 7299TIP3   OH246091   0.929   3.516   9.163  0.1490  0.1450 -0.3582
 7299TIP3    H146092   0.973   3.568   9.095 -1.8395  0.0579 -1.7968
 7299TIP3    H246093   0.938   3.425   9.134 -0.3078  0.0674 -0.2638
 7300TIP3   OH246094   1.491   4.039  10.417 -0.2630  0.1787  0.2806
 7300TIP3    H146095   1.492   4.022  10.323 -1.0984 -3.0930  0.7478
 7300TIP3    H246096   1.399   4.034  10.441 -0.0486  0.8921  1.3085
 7301TIP3   OH246097   5.095   2.660  10.450 -0.2493 -0.8748 -0.0775
 7301TIP3    H146098   5.013   2.696  10.416  0.7051  0.3376 -1.2021
 7301TIP3    H246099   5.163   2.716  10.413  1.0700 -1.5532  1.2272
 7302TIP3   OH246100   4.904   2.469  10.440  0.8006  0.3296 -0.7385
 7302TIP3    H146101   4.869   2.453  10.527  0.7240  1.5973 -0.5082
 7302TIP3    H246102   4.959   2.547  10.450  1.7747 -0.2250 -1.5840
 7303TIP3   OH246103   7.118   8.403  10.064  0.9259  0.3072 -0.3044
 7303TIP3    H146104   7.077   8.351  10.132 -1.4163 -0.1020 -1.8927
 7303TIP3    H246105   7.112   8.493  10.095 -0.4612  0.1645 -0.0758
 7304TIP3   OH246106   6.704   3.226   9.308 -0.6208 -0.8077  0.0731
 7304TIP3    H146107   6.768   3.290   9.340  0.9803 -1.6167 -1.3430
 7304TIP3    H246108   6.670   3.185   9.387  2.4278 -2.0330  0.8896
 7305TIP3   OH246109   1.190   7.754   9.710 -0.3859 -0.1562  0.9761
 7305TIP3    H146110   1.152   7.761   9.622  0.5558 -0.9050  0.4869
 7305TIP3    H246111   1.118   7.777   9.769 -1.1166  0.0911  0.0225
 7306TIP3   OH246112   3.395   5.778  10.685 -1.2059  0.1580 -0.5569
 7306TIP3    H146113   3.488   5.798  10.675 -1.1031 -0.9432 -2.1123
 7306TIP3    H246114   3.394   5.704  10.746 -1.1278  0.6174  0.0127
 7307TIP3   OH246115   8.107   1.784   9.784 -0.1525 -0.3748 -0.2843
 7307TIP3    H146116   8.200   1.807   9.778  0.0434 -0.8753  0.6635
 7307TIP3    H246117   8.103   1.693   9.754  0.2819 -1.6522  3.1281
 7308TIP3   OH246118   5.083   3.416   8.817 -0.0110  0.2063  0.3838
 7308TIP3    H146119   5.118   3.352   8.754  1.0128  0.1967  0.9482
 7308TIP3    H246120   5.121   3.499   8.789 -1.4408  0.6233 -0.4255
 7309TIP3   OH246121   2.385   1.126   9.395 -0.9574 -0.5973 -0.3509
 7309TIP3    H146122   2.390   1.107   9.302 -1.7001  0.3153 -0.5959
 7309TIP3    H246123   2.333   1.207   9.400  0.4485  0.2838  0.7359
 7310TIP3   OH246124   1.118   7.179   9.940 -0.1707 -0.0034  0.5140
 7310TIP3    H146125   1.095   7.087   9.930 -0.0636 -0.0358  0.5586
 7310TIP3    H246126   1.134   7.210   9.851  0.2679 -0.1535  0.5366
 7311TIP3   OH246127   7.007   0.925   8.965  0.5837  0.8886  0.1043
 7311TIP3    H146128   6.929   0.910   8.912  0.8016  0.5825 -0.1448
 7311TIP3    H246129   7.005   1.018   8.986 -0.1170  0.7794  0.5427
 7312TIP3   OH246130   0.595   5.593   9.888  0.2808  0.2418 -0.4153
 7312TIP3    H146131   0.530   5.556   9.827 -0.8091 -1.0737  1.4158
 7312TIP3    H246132   0.591   5.687   9.874 -2.2589  0.2304 -0.2227
 7313TIP3   OH246133   8.063   8.032   8.933 -0.0852  0.5836  0.0483
 7313TIP3    H146134   8.008   8.069   9.002 -0.8267 -2.0092  0.9693
 7313TIP3    H246135   8.032   8.073   8.853 -3.5393 -0.7630  0.5100
 7314TIP3   OH246136   0.655   0.767  10.808  0.1560 -0.2374 -0.2141
 7314TIP3    H146137   0.750   0.773  10.820  0.5586 -3.0966 -1.1146
 7314TIP3    H246138   0.619   0.773  10.896  0.9992  2.0491  0.0511
 7315TIP3   OH246139   2.800   8.022   8.410 -0.8285 -0.1333  0.4763
 7315TIP3    H146140   2.768   7.938   8.444  2.0884 -0.8596  1.7246
 7315TIP3    H246141   2.732   8.085   8.434 -3.2309 -2.1039 -0.7099
 7316TIP3   OH246142   7.063   2.648  10.009  1.0189 -0.3912 -0.4650
 7316TIP3    H146143   6.999   2.588   9.971  0.2894 -0.0691  0.2234
 7316TIP3    H246144   7.148   2.614   9.980  0.5426 -0.7688 -1.4796
 7317TIP3   OH246145   1.329   2.145   8.695 -0.3938 -0.2407  0.4091
 7317TIP3    H146146   1.386   2.206   8.742  1.7623 -1.2855 -0.6817
 7317TIP3    H246147   1.250   2.195   8.677  0.3730  1.4713  1.5570
 7318TIP3   OH246148   6.497   0.528   9.207  0.4069  0.0792  0.2864
 7318TIP3    H146149   6.463   0.551   9.120 -0.5070  1.0324  0.8723
 7318TIP3    H246150   6.591   0.539   9.199  0.5632 -1.7533 -1.1277
 7319TIP3   OH246151   1.103   0.433   8.818  0.0074  0.1111 -0.0304
 7319TIP3    H146152   1.163   0.362   8.839  1.2011  0.6621 -1.4548
 7319TIP3    H246153   1.145   0.511   8.854 -1.8891  0.0447  2.6642
 7320TIP3   OH246154   7.817   8.420  10.240 -0.7737 -0.9195 -0.2500
 7320TIP3    H146155   7.908   8.430  10.267 -0.0709 -1.3828 -2.2977
 7320TIP3    H246156   7.786   8.343  10.289 -0.0099 -0.9116  0.2647
 7321TIP3   OH246157   5.780   6.514   9.745  0.2733  0.7992 -0.0028
 7321TIP3    H146158   5.854   6.496   9.803  0.1636 -1.9554 -0.5886
 7321TIP3    H246159   5.820   6.531   9.660  0.3256 -1.6756 -0.5588
 7322TIP3   OH246160   1.457   7.620   9.741 -0.2511  0.0575 -0.3075
 7322TIP3    H146161   1.372   7.584   9.765 -0.4746  1.2766  0.8760
 7322TIP3    H246162   1.479   7.680   9.813  0.6859  1.2674 -1.5367
 7323TIP3   OH246163   7.585   3.949   8.784  0.5203 -0.1774 -0.9125
 7323TIP3    H146164   7.580   3.854   8.781 -0.9491 -0.1087 -1.3942
 7323TIP3    H246165   7.521   3.975   8.850  1.0151  0.4814 -0.6739
 7324TIP3   OH246166   1.459   4.355  10.085  0.1699  0.2302 -0.0421
 7324TIP3    H146167   1.436   4.448  10.094 -2.1006 -0.1020 -1.5191
 7324TIP3    H246168   1.492   4.347   9.996  0.1959 -0.4060  0.0185
 7325TIP3   OH246169   3.470   0.190   8.711 -0.3172 -0.6337  0.3704
 7325TIP3    H146170   3.563   0.169   8.703 -0.2609  0.0369 -0.9964
 7325TIP3    H246171   3.466   0.261   8.775  0.1871 -0.2153 -0.0589
 7326TIP3   OH246172   3.144   7.639  10.822 -0.3518  0.0845 -0.5670
 7326TIP3    H146173   3.087   7.595  10.886 -1.0410  0.8012 -0.6566
 7326TIP3    H246174   3.119   7.601  10.738 -0.5792  0.2638 -0.5838
 7327TIP3   OH246175   7.439   7.550  10.911  0.3229 -0.3010 -0.3132
 7327TIP3    H146176   7.522   7.530  10.867 -0.7619 -1.4941 -1.9484
 7327TIP3    H246177   7.462   7.613  10.979  2.6800 -1.1280 -0.2500
 7328TIP3   OH246178   2.250   4.638   9.197  0.4262 -0.2640 -0.3066
 7328TIP3    H146179   2.248   4.544   9.184 -1.2691 -0.7140  2.4909
 7328TIP3    H246180   2.159   4.666   9.188  0.3908  0.5360  1.9099
 7329TIP3   OH246181   3.116   1.508   9.561  0.4395  0.3842  0.1938
 7329TIP3    H146182   3.087   1.511   9.470 -2.3173  0.8350  0.9686
 7329TIP3    H246183   3.120   1.600   9.589  0.9596  0.2405  0.6143
 7330TIP3   OH246184   7.674   3.755  10.718 -0.6959 -0.3145  0.8294
 7330TIP3    H146185   7.595   3.728  10.671 -1.4280 -0.0758  1.8687
 7330TIP3    H246186   7.670   3.850  10.718  0.5153 -0.2294 -0.5848
 7331TIP3   OH246187   2.627   2.129   9.090  0.3645 -0.5012  0.6380
 7331TIP3    H146188   2.620   2.070   9.015  0.2973 -1.4068  1.3484
 7331TIP3    H246189   2.560   2.099   9.152 -1.8137  2.2024 -0.2045
 7332TIP3   OH246190   0.546   7.686   8.617 -0.1983  0.0719 -0.0440
 7332TIP3    H146191   0.460   7.647   8.601  0.6286 -1.5078 -0.8990
 7332TIP3    H246192   0.534   7.779   8.598 -1.8604  0.0072  0.4870
 7333TIP3   OH246193   5.968   2.997   9.269  0.0777 -0.3732 -0.3843
 7333TIP3    H146194   6.029   3.004   9.342  0.2291 -1.6789 -0.3736
 7333TIP3    H246195   5.884   3.023   9.305  0.4879  0.7938 -0.2282
 7334TIP3   OH246196   6.411   4.217   9.771  0.0965 -0.1507  0.3005
 7334TIP3    H146197   6.423   4.152   9.702 -0.9870 -1.7556  1.5625
 7334TIP3    H246198   6.471   4.189   9.840  1.7062  1.8530 -0.1777
 7335TIP3   OH246199   5.394   5.369   9.657 -0.3444  0.3461  0.2637
 7335TIP3    H146200   5.473   5.415   9.685  0.3635 -0.8110  0.2327
 7335TIP3    H246201   5.415   5.337   9.569  0.3944 -2.6113  1.3877
 7336TIP3   OH246202   2.955   2.028   8.605  1.1995  0.4720  0.0602
 7336TIP3    H146203   2.895   1.960   8.573 -0.4814  1.6109  0.6613
 7336TIP3    H246204   3.039   2.005   8.566  0.1365 -0.5279 -1.8041
 7337TIP3   OH246205   7.877   5.725   9.595  0.1851  0.2407  0.4247
 7337TIP3    H146206   7.942   5.783   9.554 -0.2807  1.3681  1.2302
 7337TIP3    H246207   7.793   5.760   9.566 -0.0940 -0.5090  0.3174
 7338TIP3   OH246208   4.780   0.896   9.277 -0.1737 -0.0783  0.2638
 7338TIP3    H146209   4.791   0.870   9.186  0.6172  0.0864  0.3078
 7338TIP3    H246210   4.768   0.991   9.273  1.7601  0.1979  0.4630
 7339TIP3   OH246211   7.720   6.762   9.486 -0.4157 -0.1847  0.0694
 7339TIP3    H146212   7.671   6.827   9.537  1.8555  1.4418  0.3104
 7339TIP3    H246213   7.714   6.793   9.396 -0.9324 -0.7291 -0.0860
 7340TIP3   OH246214   2.079   4.884   9.534  0.0570 -0.1684 -0.2590
 7340TIP3    H146215   2.019   4.922   9.598  0.6534 -0.6818  0.6281
 7340TIP3    H246216   2.022   4.840   9.471 -0.5843  1.1327 -0.6235
 7341TIP3   OH246217   0.655   3.260   8.892 -0.6727  0.0291 -0.7128
 7341TIP3    H146218   0.568   3.252   8.853 -0.6070  1.2959 -1.1923
 7341TIP3    H246219   0.648   3.336   8.950 -0.0576 -0.2669 -0.2389
 7342TIP3   OH246220   3.237   6.927   9.452  0.6534 -0.3822  0.3152
 7342TIP3    H146221   3.178   6.896   9.520  0.3867  0.4169  0.4683
 7342TIP3    H246222   3.287   6.998   9.494  1.0579 -0.4267 -0.0834
 7343TIP3   OH246223   2.736   1.254   8.444 -0.3011  0.0769 -0.5548
 7343TIP3    H146224   2.679   1.306   8.500 -0.9240 -1.4541  0.2860
 7343TIP3    H246225   2.752   1.173   8.493  1.7128 -0.0022 -1.2451
 7344TIP3   OH246226   1.826   0.928   9.043  0.2936 -0.5498  0.2063
 7344TIP3    H146227   1.876   0.847   9.052 -0.1119 -0.7651  0.5344
 7344TIP3    H246228   1.892   0.997   9.041  0.5530 -0.7338  1.8206
 7345TIP3   OH246229   8.300   2.409   9.851  0.1871 -0.1030 -0.3933
 7345TIP3    H146230   8.219   2.455   9.876  1.2799  1.5083  0.3782
 7345TIP3    H246231   8.307   2.422   9.757 -0.0892  0.3755 -0.3509
 7346TIP3   OH246232   7.059   6.977  10.415 -0.7769 -0.0092 -0.2551
 7346TIP3    H146233   7.063   6.884  10.395 -0.4292  0.0791 -0.5982
 7346TIP3    H246234   7.120   7.018  10.353  0.5890  0.2335  1.2083
 7347TIP3   OH246235   0.573   3.887   9.005  0.5755 -0.1459 -0.5161
 7347TIP3    H146236   0.511   3.940   8.956  1.3041  0.9807 -0.2682
 7347TIP3    H246237   0.628   3.846   8.938  0.3361 -0.1603 -0.7019
 7348TIP3   OH246238   5.066   6.648   8.863  0.2761  0.3348 -0.2914
 7348TIP3    H146239   5.072   6.739   8.835 -1.0938  0.2712 -0.8972
 7348TIP3    H246240   4.974   6.637   8.887  0.7953 -0.4192  1.4921
 7349TIP3   OH246241   8.137   4.375   8.729 -0.0654 -0.2450 -0.2148
 7349TIP3    H146242   8.109   4.311   8.795 -1.5147 -0.5768 -1.0887
 7349TIP3    H246243   8.167   4.322   8.656 -2.9141 -0.1011 -1.6500
 7350TIP3   OH246244   3.469   1.750   8.202 -0.2091 -0.5200 -0.4279
 7350TIP3    H146245   3.490   1.811   8.273 -2.5471 -0.1174 -0.0010
 7350TIP3    H246246   3.543   1.757   8.141  0.3294  1.5536  0.3907
 7351TIP3   OH246247   7.181   4.583  10.382  0.1838  0.0731  0.7189
 7351TIP3    H146248   7.198   4.599  10.475 -0.0759 -0.3969  0.8496
 7351TIP3    H246249   7.261   4.541  10.350  0.6777  1.1407  0.4845
 7352TIP3   OH246250   0.343   0.801   8.991 -0.8689  0.2559  0.0227
 7352TIP3    H146251   0.294   0.774   9.069 -1.1660 -0.9015 -0.5264
 7352TIP3    H246252   0.286   0.776   8.918 -0.9774  2.0846 -0.5686
 7353TIP3   OH246253   2.322   7.104   8.203 -0.3190 -0.1242 -0.5392
 7353TIP3    H146254   2.325   7.011   8.223 -1.4179 -0.3640 -1.3835
 7353TIP3    H246255   2.243   7.136   8.247 -0.5480  0.1654 -1.1428
 7354TIP3   OH246256   0.812   5.359   8.992  0.3822  0.0096  0.2234
 7354TIP3    H146257   0.719   5.338   8.982 -0.3278  2.6352  0.3998
 7354TIP3    H246258   0.829   5.424   8.924  2.1219 -0.4734  0.1582
 7355TIP3   OH246259   6.777   5.415   9.861 -0.4771 -0.7684  0.6102
 7355TIP3    H146260   6.795   5.505   9.833 -3.1574 -0.1348  0.6719
 7355TIP3    H246261   6.768   5.420   9.956 -2.6474 -0.6266  0.4477
 7356TIP3   OH246262   0.287   0.229   9.568 -0.3228  0.0596  0.1446
 7356TIP3    H146263   0.261   0.317   9.597 -1.1239 -0.0979 -0.0500
 7356TIP3    H246264   0.382   0.230   9.572 -0.2724 -0.5247  4.5800
 7357TIP3   OH246265   4.433   0.745  10.687  0.5993  0.3604  0.3843
 7357TIP3    H146266   4.479   0.776  10.765  0.2875 -0.6135  0.9870
 7357TIP3    H246267   4.503   0.728  10.623  1.0191 -0.3001  0.9952
 7358TIP3   OH246268   8.244   6.892  10.893 -0.1611 -0.3695 -0.3280
 7358TIP3    H146269   8.292   6.900  10.811  0.9816  1.8818  0.4735
 7358TIP3    H246270   8.159   6.934  10.876 -0.4347 -1.0505 -0.6904
 7359TIP3   OH246271   5.411   1.407  10.823  0.5711  0.1029 -0.3739
 7359TIP3    H146272   5.349   1.469  10.863 -0.4820 -2.2112  1.8352
 7359TIP3    H246273   5.460   1.460  10.760 -2.1122  2.5612 -0.6256
 7360TIP3   OH246274   1.882   0.324  10.526 -0.2644  0.0153 -0.5470
 7360TIP3    H146275   1.789   0.327  10.504 -0.6551 -1.4880  0.7257
 7360TIP3    H246276   1.916   0.409  10.498 -2.0220  0.6060 -1.0032
 7361TIP3   OH246277   2.006   6.459  11.046  0.5103  0.0637 -0.3676
 7361TIP3    H146278   2.012   6.397  11.118 -0.7277  0.4613  0.1153
 7361TIP3    H246279   2.097   6.482  11.025  1.0063 -2.1382 -0.8034
 7362TIP3   OH246280   2.823   3.808   9.648  0.0300 -0.2487 -0.1074
 7362TIP3    H146281   2.751   3.745   9.644 -0.2262 -0.0015  0.5147
 7362TIP3    H246282   2.790   3.879   9.703  0.9767 -0.4452  0.7507
 7363TIP3   OH246283   5.462   3.214  10.606 -0.5290 -0.0771 -1.0272
 7363TIP3    H146284   5.462   3.134  10.554 -0.8642 -2.0303  1.7223
 7363TIP3    H246285   5.383   3.207  10.660 -0.9218  2.4773 -1.1585
 7364TIP3   OH246286   0.308   4.686   9.420 -0.1501 -0.2621  0.0757
 7364TIP3    H146287   0.222   4.706   9.382 -0.6371  1.3862  1.9051
 7364TIP3    H246288   0.370   4.732   9.364 -0.6931  0.6251  0.1775
 7365TIP3   OH246289   5.266   8.432  10.379 -0.1243  0.0642 -0.4367
 7365TIP3    H146290   5.298   8.439  10.469 -0.6585 -0.9538 -0.1516
 7365TIP3    H246291   5.204   8.359  10.381 -1.3554  1.0441 -1.2824
 7366TIP3   OH246292   4.841   0.040  10.644 -0.1090  0.0754  0.6583
 7366TIP3    H146293   4.852  -0.030  10.579  0.7509  0.0695  0.7982
 7366TIP3    H246294   4.848  -0.004  10.728 -0.6011  0.1767  0.7516
 7367TIP3   OH246295   7.166   6.141   9.809 -0.2791  0.3041  0.2353
 7367TIP3    H146296   7.258   6.117   9.822 -0.2341  0.7302  0.7318
 7367TIP3    H246297   7.139   6.091   9.733 -0.9737 -3.5011  2.6944
 7368TIP3   OH246298   4.076   4.190   9.554 -0.0714  0.6341 -0.4415
 7368TIP3    H146299   4.127   4.159   9.480  0.5683  5.0203 -2.1334
 7368TIP3    H246300   4.134   4.253   9.598 -2.2322  1.9958  0.6243
 7369TIP3   OH246301   0.447   5.908  10.757 -0.1960  0.4341  0.8539
 7369TIP3    H146302   0.429   5.979  10.819 -1.3954  1.3347 -0.4526
 7369TIP3    H246303   0.363   5.893  10.713  0.1415 -1.5160  0.7697
 7370TIP3   OH246304   5.446   0.928  10.091 -0.3767 -0.2878 -0.3933
 7370TIP3    H146305   5.463   0.958  10.002  1.0052  0.2635  0.0420
 7370TIP3    H246306   5.520   0.871  10.112 -0.8591 -0.6744  0.2937
 7371TIP3   OH246307   4.586   7.438   9.365 -0.1042 -0.5825  0.0790
 7371TIP3    H146308   4.533   7.501   9.414  0.0533 -1.2939  1.2025
 7371TIP3    H246309   4.528   7.362   9.355 -0.0760 -0.5074 -0.7187
 7372TIP3   OH246310   3.007   0.092   9.083  0.6922  0.7161 -0.0534
 7372TIP3    H146311   3.059   0.074   9.162  0.0632  1.4049  0.5254
 7372TIP3    H246312   2.974   0.181   9.096 -0.3260  0.4236 -0.5859
 7373TIP3   OH246313   6.613   1.493  10.583  0.1421 -0.0307  1.3880
 7373TIP3    H146314   6.685   1.473  10.523 -0.3280  0.2982  0.7035
 7373TIP3    H246315   6.615   1.588  10.592  0.6320 -0.1256  2.4435
 7374TIP3   OH246316   2.176   4.006  10.488 -0.0146  0.0121 -0.7415
 7374TIP3    H146317   2.254   4.061  10.482 -0.0587  0.2392  0.5298
 7374TIP3    H246318   2.113   4.048  10.428  0.8944 -0.3187 -1.9658
 7375TIP3   OH246319   5.168   0.835   9.998 -0.1391  0.2977 -0.1543
 7375TIP3    H146320   5.240   0.842  10.061 -0.5230  0.7098  0.2462
 7375TIP3    H246321   5.136   0.745  10.008  0.6041 -0.0325 -0.6589
 7376TIP3   OH246322   8.335   4.492   9.972 -0.2245  0.1248 -0.5508
 7376TIP3    H146323   8.415   4.536  10.002  0.7578 -1.5622 -0.5640
 7376TIP3    H246324   8.355   4.463   9.883 -0.5296 -1.0135 -0.2714
 7377TIP3   OH246325   8.142   2.605  10.495 -0.5205  0.2239  0.2353
 7377TIP3    H146326   8.149   2.519  10.538 -0.0037  0.8555  1.4740
 7377TIP3    H246327   8.100   2.661  10.560 -0.5558  0.9933 -0.4377
 7378TIP3   OH246328   7.132   6.308   8.869  0.1701 -0.3577  0.4362
 7378TIP3    H146329   7.194   6.381   8.877  1.5285 -1.4982  0.7588
 7378TIP3    H246330   7.092   6.300   8.956 -1.0977  0.9004  0.0137
 7379TIP3   OH246331   8.428   2.120   9.977 -0.9316  0.8740  0.0211
 7379TIP3    H146332   8.458   2.102  10.066  0.3250  0.1586 -0.5378
 7379TIP3    H246333   8.332   2.121   9.985 -0.9047 -0.6866  1.1038
 7380TIP3   OH246334   1.490   1.101   9.514 -0.0023 -0.0221 -0.1231
 7380TIP3    H146335   1.555   1.166   9.487 -0.7569  1.6585  1.8538
 7380TIP3    H246336   1.534   1.050   9.582  0.5448 -1.5845 -1.5835
 7381TIP3   OH246337   6.313   3.178   9.863 -0.4548  0.1707 -0.2404
 7381TIP3    H146338   6.282   3.138   9.781 -3.0887 -0.2158  0.8269
 7381TIP3    H246339   6.317   3.105   9.925  3.3824  0.0900 -0.3512
 7382TIP3   OH246340   2.739   2.644   9.374 -0.0917  0.2897  0.1174
 7382TIP3    H146341   2.682   2.644   9.298  1.4211  0.8348 -1.0683
 7382TIP3    H246342   2.690   2.597   9.441 -0.3082 -2.9039 -2.0742
 7383TIP3   OH246343   6.480   1.775   9.359  0.7473 -0.0677  0.8166
 7383TIP3    H146344   6.557   1.829   9.344  0.7870 -0.2588  0.3181
 7383TIP3    H246345   6.406   1.832   9.337  0.8257 -0.5337 -0.7241
 7384TIP3   OH246346   5.434   3.393   8.797 -0.2956  0.2247  0.3580
 7384TIP3    H146347   5.361   3.445   8.763 -0.1162  1.5548  1.9082
 7384TIP3    H246348   5.393   3.329   8.855 -0.3718 -0.2854 -0.2484
 7385TIP3   OH246349   7.474   2.858  10.148 -0.0063 -0.0283  0.0755
 7385TIP3    H146350   7.390   2.820  10.175  0.2972 -0.0668  1.0050
 7385TIP3    H246351   7.537   2.786  10.159  0.6221  0.7546  2.0921
 7386TIP3   OH246352   0.285   3.586  10.897  0.1163 -0.5402  0.0106
 7386TIP3    H146353   0.258   3.506  10.851 -0.3576 -0.7502  0.6292
 7386TIP3    H246354   0.225   3.591  10.972  0.7948 -0.1477  0.5320
 7387TIP3   OH246355   1.771   3.112   9.651  0.4204  0.0388 -0.0782
 7387TIP3    H146356   1.747   3.056   9.577 -0.8932  0.3263  0.1131
 7387TIP3    H246357   1.716   3.190   9.642  0.8760  0.4696  0.7179
 7388TIP3   OH246358   0.479   2.541  10.749 -0.1068  0.5506 -0.2546
 7388TIP3    H146359   0.427   2.483  10.805 -1.4693  0.3755 -1.6310
 7388TIP3    H246360   0.554   2.566  10.803 -0.1853 -1.4014  0.8604
 7389TIP3   OH246361   5.856   3.727   8.883 -0.3329 -0.1393  0.1947
 7389TIP3    H146362   5.792   3.723   8.813  0.9746 -1.4907 -0.9791
 7389TIP3    H246363   5.840   3.649   8.935 -0.1971 -0.0175  0.4221
 7390TIP3   OH246364   6.521   7.335   9.884  0.0718 -0.2448 -0.0507
 7390TIP3    H146365   6.565   7.347   9.968 -0.4730 -2.4786  0.5957
 7390TIP3    H246366   6.451   7.400   9.884  0.4994  0.2375  0.9023
 7391TIP3   OH246367   8.321   5.509   9.618  0.6093  0.5473 -0.4261
 7391TIP3    H146368   8.292   5.542   9.703  0.0453 -1.3025  0.1509
 7391TIP3    H246369   8.248   5.456   9.587  1.9540 -1.2624 -0.6304
 7392TIP3   OH246370   6.221   8.318  10.230 -0.3230 -0.2453  0.2706
 7392TIP3    H146371   6.289   8.312  10.297  0.4275 -2.1728 -0.5771
 7392TIP3    H246372   6.265   8.357  10.155 -0.9119  1.0377  0.5711
 7393TIP3   OH246373   2.245   6.506  10.970 -0.2281  0.4491  0.3916
 7393TIP3    H146374   2.239   6.473  10.880 -2.2080 -0.4996  0.8376
 7393TIP3    H246375   2.284   6.593  10.960  0.8138 -0.1456 -1.2379
 7394TIP3   OH246376   1.483   8.166   9.131 -0.5639 -0.1340  0.6535
 7394TIP3    H146377   1.412   8.225   9.157 -0.5024  1.1181 -1.7757
 7394TIP3    H246378   1.549   8.224   9.093 -0.1283 -1.6834 -1.0653
 7395TIP3   OH246379   2.583   7.752   9.825  0.2636 -0.0009 -0.4126
 7395TIP3    H146380   2.665   7.702   9.817 -0.0949 -0.9925  1.5709
 7395TIP3    H246381   2.611   7.843   9.827  1.0375 -0.1155 -2.8616
 7396TIP3   OH246382   5.716   6.235   9.310 -0.8567 -0.3572 -0.0931
 7396TIP3    H146383   5.651   6.264   9.374  0.1668  0.9541  0.4023
 7396TIP3    H246384   5.785   6.194   9.361 -0.4084 -0.0128 -0.4069
 7397TIP3   OH246385   2.257   1.545   9.237  0.3198 -0.2437  0.0110
 7397TIP3    H146386   2.275   1.469   9.291  0.6424 -0.1708  0.0092
 7397TIP3    H246387   2.163   1.540   9.218  0.1709 -0.1754  0.7145
 7398TIP3   OH246388   6.266   0.470  10.578  0.7938 -0.1034 -0.0478
 7398TIP3    H146389   6.351   0.459  10.535  0.3870  1.6203 -1.4331
 7398TIP3    H246390   6.207   0.412  10.529  0.9264 -0.3765  0.1153
 7399TIP3   OH246391   0.540   1.245  10.363 -0.4421  0.6363 -0.0733
 7399TIP3    H146392   0.463   1.204  10.324 -0.5070  1.4923 -0.8824
 7399TIP3    H246393   0.515   1.261  10.454 -0.2036 -1.6029  0.4429
 7400TIP3   OH246394   2.417   6.195   9.074  0.0451 -0.1459 -0.1473
 7400TIP3    H146395   2.451   6.191   8.985  1.6880 -0.1407  0.4428
 7400TIP3    H246396   2.463   6.269   9.114 -1.3717  0.4542  0.4406
 7401TIP3   OH246397   4.455   1.771   9.744  0.1650  0.1282 -0.2761
 7401TIP3    H146398   4.437   1.719   9.666 -1.0520 -1.1266  0.7781
 7401TIP3    H246399   4.535   1.819   9.724  0.1575 -0.5591 -2.0841
 7402TIP3   OH246400   1.904   3.694   8.886  0.2132  0.1302 -0.5632
 7402TIP3    H146401   1.826   3.655   8.926  0.0766  0.7875 -0.1778
 7402TIP3    H246402   1.973   3.631   8.903 -0.0531 -0.0557 -0.1394
 7403TIP3   OH246403   6.816   0.169  10.995  0.4243  0.1696  0.0140
 7403TIP3    H146404   6.774   0.128  11.070  1.5368 -0.7025  0.1805
 7403TIP3    H246405   6.751   0.232  10.963 -1.3714 -1.7307 -0.2906
 7404TIP3   OH246406   4.011   0.371   9.018  0.4108 -0.4864  0.1141
 7404TIP3    H146407   4.047   0.286   9.043 -0.5252 -0.8212  0.3550
 7404TIP3    H246408   4.074   0.435   9.051  1.2142 -1.0866 -0.2306
 7405TIP3   OH246409   1.477   7.471  10.746 -0.8273  0.2322  0.2400
 7405TIP3    H146410   1.529   7.521  10.682  1.6691 -0.5697  1.5305
 7405TIP3    H246411   1.397   7.522  10.755  0.3882  2.4768 -0.6298
 7406TIP3   OH246412   1.591   5.723  10.601  0.1675  0.1196 -0.0909
 7406TIP3    H146413   1.673   5.765  10.575 -0.3214  1.7418  0.8706
 7406TIP3    H246414   1.557   5.778  10.672 -1.8046 -0.4401 -0.5470
 7407TIP3   OH246415   1.440   6.978   8.596  0.1300 -0.2747 -0.4847
 7407TIP3    H146416   1.388   7.054   8.568  0.2382  0.0597  0.2039
 7407TIP3    H246417   1.409   6.906   8.542 -0.9714 -0.0530 -0.1644
 7408TIP3   OH246418   7.990   6.712   9.425 -0.5109  0.0652 -0.7250
 7408TIP3    H146419   8.029   6.667   9.500  0.3831  0.0761 -1.1708
 7408TIP3    H246420   7.896   6.716   9.445 -0.1136  1.4864  1.1481
 7409TIP3   OH246421   6.976   7.609   9.040 -0.0409  0.1139 -0.3203
 7409TIP3    H146422   7.056   7.563   9.013  1.0059  0.2603  2.2102
 7409TIP3    H246423   6.936   7.552   9.105  0.8520  2.2439  2.2988
 7410TIP3   OH246424   7.254   5.543   9.745 -0.0447  0.0779  0.1603
 7410TIP3    H146425   7.315   5.515   9.677  0.1757  2.4027 -0.7053
 7410TIP3    H246426   7.186   5.476   9.746  1.4265 -1.4798 -0.3128
 7411TIP3   OH246427   7.721   3.758   9.297  0.4147  0.1359 -0.2095
 7411TIP3    H146428   7.769   3.841   9.297  0.3719  0.1639 -0.7553
 7411TIP3    H246429   7.768   3.703   9.360 -0.4136  1.0640  1.2599
 7412TIP3   OH246430   3.080   7.887  10.310  0.3494 -0.3760  0.4572
 7412TIP3    H146431   3.042   7.799  10.308  1.6555 -0.9670 -0.0988
 7412TIP3    H246432   3.015   7.941  10.354  0.1571 -1.9422  2.1903
 7413TIP3   OH246433   1.020   5.169  10.415 -0.1166  1.2078  0.0515
 7413TIP3    H146434   1.020   5.229  10.341  1.2177  1.3645  0.1589
 7413TIP3    H246435   1.099   5.191  10.464 -0.0553 -0.0611  0.5603
 7414TIP3   OH246436   0.734   7.684   9.490  0.4391 -0.3794  0.6682
 7414TIP3    H146437   0.747   7.745   9.418 -0.0219  1.5825  2.1725
 7414TIP3    H246438   0.753   7.598   9.453 -0.3658  0.4906 -1.9296
 7415TIP3   OH246439   0.450   3.713   9.230 -0.2504  0.6115  0.5321
 7415TIP3    H146440   0.458   3.774   9.157 -1.2480 -0.4342 -0.4815
 7415TIP3    H246441   0.537   3.673   9.236 -0.2329  0.5183 -0.2484
 7416TIP3   OH246442   0.473   6.230   9.589 -0.0368 -1.3311 -0.1314
 7416TIP3    H146443   0.424   6.294   9.539  0.9016  0.4500  1.1101
 7416TIP3    H246444   0.418   6.210   9.665  0.8778  0.3242  1.0260
 7417TIP3   OH246445   6.796   5.223  10.474  0.3092  0.0407  0.0268
 7417TIP3    H146446   6.749   5.166  10.535  1.3606  0.6443  1.4609
 7417TIP3    H246447   6.784   5.182  10.389  0.0881 -1.7102  0.8559
 7418TIP3   OH246448   4.488   2.874   8.693  0.3484  0.0774 -0.1126
 7418TIP3    H146449   4.407   2.823   8.688  0.2244  0.3650 -1.3715
 7418TIP3    H246450   4.470   2.953   8.642  0.7637  1.0970  1.2608
 7419TIP3   OH246451   0.545   2.935   9.755 -0.2434  0.3626 -0.2147
 7419TIP3    H146452   0.631   2.936   9.713 -0.2972 -0.2544 -0.3510
 7419TIP3    H246453   0.554   2.874   9.828 -0.0163  1.7817  0.9931
 7420TIP3   OH246454   4.582   8.005   9.675 -0.2320  0.1916  0.1146
 7420TIP3    H146455   4.659   7.952   9.696  0.7171  1.1096 -0.9378
 7420TIP3    H246456   4.607   8.094   9.699 -1.4739  0.3302  0.9976
 7421TIP3   OH246457   6.282   2.205   9.071 -0.3273  0.0487  0.1444
 7421TIP3    H146458   6.351   2.148   9.037 -0.2125  0.8579 -1.0021
 7421TIP3    H246459   6.207   2.190   9.012 -1.0072 -0.4990  1.1157
 7422TIP3   OH246460   2.932   7.434  10.018  0.7714  0.6475 -0.5060
 7422TIP3    H146461   3.010   7.392  10.053  0.7156 -0.5093 -1.7105
 7422TIP3    H246462   2.869   7.430  10.090  1.6080  1.0890  0.2886
 7423TIP3   OH246463   5.136   5.779  10.064  1.0182 -0.3469  0.0020
 7423TIP3    H146464   5.082   5.852  10.034 -0.6731 -1.5942 -0.1467
 7423TIP3    H246465   5.135   5.785  10.159  0.4432 -0.4567  0.0076
 7424TIP3   OH246466   8.379   7.209   9.519 -0.2601 -0.0051  0.6518
 7424TIP3    H146467   8.350   7.210   9.428 -0.3182 -0.6056  0.6627
 7424TIP3    H246468   8.416   7.122   9.532 -0.4533  0.0004  1.2676
 7425TIP3   OH246469   0.177   6.716   8.827  0.2099 -0.4978 -0.1722
 7425TIP3    H146470   0.223   6.694   8.908  2.3705 -0.8057 -1.4170
 7425TIP3    H246471   0.117   6.643   8.812  0.6166 -0.9861  0.5564
 7426TIP3   OH246472   7.480   3.283   9.973  0.1417  0.0424 -0.0767
 7426TIP3    H146473   7.481   3.263  10.067  0.7310  0.0868 -0.0717
 7426TIP3    H246474   7.488   3.197   9.931  1.2974  0.1443 -0.0700
 7427TIP3   OH246475   5.747   1.090   8.628 -0.6115  0.2618  0.2009
 7427TIP3    H146476   5.794   1.173   8.641  1.6719 -1.0053  0.5596
 7427TIP3    H246477   5.814   1.030   8.596 -2.0922 -1.6008  0.4643
 7428TIP3   OH246478   2.667   7.637   9.482 -0.5361  0.3899  0.1428
 7428TIP3    H146479   2.603   7.651   9.552 -0.3759  1.7016  0.0548
 7428TIP3    H246480   2.750   7.624   9.528 -0.9750 -2.4947  0.3112
 7429TIP3   OH246481   6.592   0.875   9.903 -0.3107  0.1867 -0.5695
 7429TIP3    H146482   6.679   0.847   9.874 -0.2960 -0.2794 -0.1041
 7429TIP3    H246483   6.550   0.911   9.825 -0.2528 -0.9860 -1.1555
 7430TIP3   OH246484   6.758   7.419   8.848  0.0240  0.2857  0.2473
 7430TIP3    H146485   6.677   7.374   8.874  0.4127 -0.0233  0.9340
 7430TIP3    H246486   6.826   7.378   8.901  0.8619 -0.4282 -1.3488
 7431TIP3   OH246487   6.697   7.697  10.811  0.4636 -0.4889 -0.3825
 7431TIP3    H146488   6.788   7.725  10.820 -0.2687  2.5341 -1.1651
 7431TIP3    H246489   6.688   7.676  10.718  0.4946 -1.4578 -0.1771
 7432TIP3   OH246490   0.896   7.300  10.801 -0.0833  0.0862 -0.1045
 7432TIP3    H146491   0.916   7.387  10.836 -2.2076  1.0090 -0.9583
 7432TIP3    H246492   0.975   7.273  10.755  0.6374  1.5420  0.2374
 7433TIP3   OH246493   8.199   0.482  10.529 -0.4646 -0.3741  0.0010
 7433TIP3    H146494   8.132   0.549  10.543  0.7762  0.8034  0.4028
 7433TIP3    H246495   8.232   0.462  10.617  1.8140  1.2871 -0.3893
 7434TIP3   OH246496   4.149   4.474  10.002 -0.0527 -0.0870  0.1494
 7434TIP3    H146497   4.234   4.444   9.969 -0.9003 -0.6716 -1.6670
 7434TIP3    H246498   4.099   4.393  10.015 -0.0619  0.1854  2.1322
 7435TIP3   OH246499   4.124   3.146  10.939 -0.0321  0.0487  0.3697
 7435TIP3    H146500   4.134   3.070  10.881  0.5630 -0.8201  1.5630
 7435TIP3    H246501   4.034   3.175  10.926 -0.3128 -0.9556 -0.0020
 7436TIP3   OH246502   3.982   5.426   9.255  0.0404 -0.2946  0.6802
 7436TIP3    H146503   3.909   5.460   9.307  0.4356 -0.3690  1.2941
 7436TIP3    H246504   3.941   5.394   9.175 -0.4439  0.8740  0.4395
 7437TIP3   OH246505   7.468   2.324   9.480  0.0231 -0.5595 -0.2085
 7437TIP3    H146506   7.542   2.363   9.433  0.8386 -2.6355 -0.7442
 7437TIP3    H246507   7.444   2.248   9.427 -0.4850 -1.6839  1.5757
 7438TIP3   OH246508   4.537   2.468   9.052  0.4000 -0.2262 -0.3131
 7438TIP3    H146509   4.504   2.379   9.041  0.6333 -0.0591 -2.8390
 7438TIP3    H246510   4.632   2.459   9.048  0.4083  0.2002 -1.2326
 7439TIP3   OH246511   6.559   6.085  10.817 -1.2367 -0.1375 -0.1583
 7439TIP3    H146512   6.526   6.171  10.843 -0.7005  0.1927 -0.5661
 7439TIP3    H246513   6.624   6.063  10.883 -0.6930  0.1950 -0.5787
 7440TIP3   OH246514   4.686   5.964   8.488 -0.0602 -0.1467 -0.2098
 7440TIP3    H146515   4.757   5.919   8.532  0.2025  2.4181  2.2762
 7440TIP3    H246516   4.726   6.043   8.451 -1.5204  1.4379  1.3867
 7441TIP3   OH246517   2.903   7.733   9.240 -0.0911  0.2054  0.1643
 7441TIP3    H146518   2.947   7.817   9.222  0.9115 -0.0250  1.3725
 7441TIP3    H246519   2.820   7.758   9.282 -0.4659  0.6167 -0.8036
 7442TIP3   OH246520   6.497   7.243   9.548  0.0130 -0.2099 -0.5087
 7442TIP3    H146521   6.460   7.322   9.510 -0.4319 -0.0622  0.2155
 7442TIP3    H246522   6.531   7.270   9.633  2.0447 -0.2863 -1.2445
 7443TIP3   OH246523   7.357   5.266   8.971  0.6743  0.0402  0.6258
 7443TIP3    H146524   7.349   5.181   8.927  1.1257  0.4726 -0.3010
 7443TIP3    H246525   7.447   5.268   9.004  0.4363 -0.1468  1.3156
 7444TIP3   OH246526   6.261   7.496   9.866  0.1323 -0.0388 -0.2115
 7444TIP3    H146527   6.217   7.517   9.784 -0.3222  0.4398  0.1540
 7444TIP3    H246528   6.203   7.529   9.934  1.3000  1.1044  0.2638
 7445TIP3   OH246529   1.021   0.906   9.172 -0.4035 -0.1299 -0.4181
 7445TIP3    H146530   1.035   0.865   9.257 -1.0069 -1.5717 -0.9847
 7445TIP3    H246531   1.007   0.999   9.192 -1.7594 -0.6380  1.1705
 7446TIP3   OH246532   1.227   8.032   8.628  0.3066 -0.0459 -0.0931
 7446TIP3    H146533   1.227   7.998   8.538 -1.5403  1.3778 -0.6757
 7446TIP3    H246534   1.136   8.027   8.656  0.8076 -0.1690  1.6209
 7447TIP3   OH246535   0.844   2.520  11.327  0.1824  0.1491  0.0032
 7447TIP3    H146536   0.782   2.593  11.330 -1.7749 -1.3683 -1.1607
 7447TIP3    H246537   0.866   2.510  11.234 -0.7197 -1.5813 -0.0734
 7448TIP3   OH246538   2.502   6.451   8.735  0.4084  0.1719  0.1672
 7448TIP3    H146539   2.548   6.500   8.803  1.1316 -1.2490  0.7474
 7448TIP3    H246540   2.541   6.481   8.653  1.5185 -0.0966  0.5785
 7449TIP3   OH246541   3.685   2.630   9.516 -0.2714  0.6713  0.4297
 7449TIP3    H146542   3.739   2.560   9.551  0.6243  0.3160 -1.5212
 7449TIP3    H246543   3.747   2.699   9.492 -0.8771  1.0706 -0.0165
 7450TIP3   OH246544   0.314   5.916  11.044  0.0820 -0.2174 -0.0012
 7450TIP3    H146545   0.315   5.824  11.070  0.3646 -0.6480 -1.4362
 7450TIP3    H246546   0.237   5.925  10.988  1.1493 -0.1236 -1.5462
 7451TIP3   OH246547   5.257   2.193  10.692  0.1450  0.6029  0.1396
 7451TIP3    H146548   5.249   2.228  10.780  1.5312  0.0800  0.5028
 7451TIP3    H246549   5.342   2.225  10.661  1.1616 -1.7582  0.2299
 7452TIP3   OH246550   7.325   4.108   9.455 -0.1387  0.3099 -0.3849
 7452TIP3    H146551   7.345   4.169   9.385  0.0624 -1.1665 -1.6656
 7452TIP3    H246552   7.313   4.024   9.411  0.5031 -0.7684  1.4019
 7453TIP3   OH246553   0.925   1.347   9.078  0.1592  0.0069 -0.9397
 7453TIP3    H146554   0.941   1.384   8.990  1.2913 -1.3440 -1.3395
 7453TIP3    H246555   1.012   1.328   9.112 -0.1728  1.6523  1.0415
 7454TIP3   OH246556   1.524   1.923  10.481 -0.3472  0.2632 -0.4669
 7454TIP3    H146557   1.505   1.942  10.573  1.9793 -1.0694  0.3836
 7454TIP3    H246558   1.609   1.964  10.465  0.7801 -2.0928 -1.0315
 7455TIP3   OH246559   7.393   1.506   9.933 -0.2229 -0.3796 -0.3633
 7455TIP3    H146560   7.384   1.575   9.998 -0.0663 -1.7700  1.2167
 7455TIP3    H246561   7.484   1.477   9.941 -0.4079 -1.0748 -0.6554
 7456TIP3   OH246562   2.250   1.182   9.980 -0.2916  0.1190  0.7197
 7456TIP3    H146563   2.178   1.136   9.937 -0.1566  0.6691 -0.1025
 7456TIP3    H246564   2.302   1.112  10.020  0.8501 -0.6669 -1.9268
 7457TIP3   OH246565   8.096   1.563  10.562 -0.3152  0.0770  0.0260
 7457TIP3    H146566   8.054   1.482  10.591 -0.6573 -0.2065 -1.1861
 7457TIP3    H246567   8.047   1.589  10.484  1.1626  0.2598 -0.8824
 7458TIP3   OH246568   1.311   6.993  10.209 -0.1316  0.1334  0.7356
 7458TIP3    H146569   1.286   6.989  10.302 -0.1313  0.7726  0.7625
 7458TIP3    H246570   1.265   6.918  10.170  0.9314 -0.9602  1.4827
 7459TIP3   OH246571   4.757   1.869  10.172  0.3758 -0.0726 -0.1522
 7459TIP3    H146572   4.685   1.849  10.113  1.0113  0.7198 -1.2332
 7459TIP3    H246573   4.736   1.821  10.252 -0.9301 -0.4999 -0.7184
 7460TIP3   OH246574   5.911   0.800   9.821 -0.2359  0.3592  0.2437
 7460TIP3    H146575   5.896   0.841   9.736  1.4764  0.0690 -0.2277
 7460TIP3    H246576   5.839   0.831   9.875 -2.1956 -0.5730 -1.6680
 7461TIP3   OH246577   2.134   0.987   9.825 -0.0110  0.0036  0.1414
 7461TIP3    H146578   2.184   0.906   9.835  1.6471  1.0002  0.3387
 7461TIP3    H246579   2.135   1.005   9.731 -1.0744 -0.6047  0.0026
 7462TIP3   OH246580   6.111   5.899  11.025 -0.1354  0.5106 -0.1360
 7462TIP3    H146581   6.063   5.928  10.948 -0.7884 -0.6654 -0.1909
 7462TIP3    H246582   6.071   5.815  11.048  2.2891 -0.8536 -0.5496
 7463TIP3   OH246583   1.109   3.476  10.495 -0.4615  0.2191 -0.1158
 7463TIP3    H146584   1.075   3.474  10.584  3.6042 -4.0253  1.7616
 7463TIP3    H246585   1.189   3.528  10.502 -0.8462  1.0949 -1.7504
 7464TIP3   OH246586   6.822   1.627   9.856 -0.6682  0.6162  0.4122
 7464TIP3    H146587   6.822   1.655   9.765 -0.6744  1.2411  0.6019
 7464TIP3    H246588   6.737   1.656   9.890 -0.5140  0.7092  0.7162
 7465TIP3   OH246589   1.130   6.467  10.409  0.2230 -0.1070  0.3871
 7465TIP3    H146590   1.156   6.389  10.459  0.1570  0.1232  0.7865
 7465TIP3    H246591   1.198   6.477  10.342 -0.0054 -0.7678  0.0475
 7466TIP3   OH246592   3.215   3.844   9.242 -0.2315 -0.1611  0.0988
 7466TIP3    H146593   3.250   3.893   9.317 -1.8100  0.9490  0.1590
 7466TIP3    H246594   3.202   3.910   9.174  0.1922 -0.9869 -0.8176
 7467TIP3   OH246595   3.600   2.171   8.871  0.5294 -0.5759  0.6409
 7467TIP3    H146596   3.679   2.184   8.924 -0.9161  1.4147  2.4678
 7467TIP3    H246597   3.553   2.254   8.877  0.7587  0.3399 -4.8216
 7468TIP3   OH246598   4.116   2.915  10.732 -0.0102  0.7532  0.1875
 7468TIP3    H146599   4.031   2.877  10.755 -0.2022  1.2502  0.2963
 7468TIP3    H246600   4.117   2.913  10.636 -0.2910  1.0694  0.1768
 7469TIP3   OH246601   4.058   5.801  10.136 -0.1172 -0.4543 -0.0983
 7469TIP3    H146602   4.120   5.753  10.081 -0.1468  0.5284 -1.0221
 7469TIP3    H246603   3.994   5.736  10.163 -0.7976 -0.7577 -2.2572
 7470TIP3   OH246604   2.143   5.454  10.763 -0.3581  0.0964  0.2579
 7470TIP3    H146605   2.080   5.447  10.836 -1.7650  1.0797 -0.8011
 7470TIP3    H246606   2.088   5.463  10.685  1.1000  2.0681 -0.6180
 7471TIP3   OH246607   1.421   3.458   8.942 -0.1633  0.3337  0.0107
 7471TIP3    H146608   1.332   3.449   8.907  0.1527  0.9075 -0.9982
 7471TIP3    H246609   1.432   3.552   8.955 -0.2578  0.1368  1.6868
 7472TIP3   OH246610   7.451   1.060   9.435  0.1186  0.0448 -0.7466
 7472TIP3    H146611   7.360   1.031   9.445 -0.0403  1.2157  1.8875
 7472TIP3    H246612   7.502   0.979   9.438 -0.6545 -0.4199  0.9776
 7473TIP3   OH246613   6.581   2.950  10.519 -0.2031  0.0866 -0.2381
 7473TIP3    H146614   6.565   3.042  10.496 -0.2160  0.1362 -0.0292
 7473TIP3    H246615   6.497   2.917  10.549 -0.8258 -0.6948 -2.6392
 7474TIP3   OH246616   5.725   0.617   9.932 -0.6277  0.2529 -0.3009
 7474TIP3    H146617   5.751   0.568   9.854 -0.7013 -0.4920  0.1324
 7474TIP3    H246618   5.803   0.616   9.987 -1.2265 -1.1624  0.5873
 7475TIP3   OH246619   4.685   1.472   9.851  0.3821  0.7673  0.5198
 7475TIP3    H146620   4.714   1.557   9.818  0.7941 -0.0730 -1.4077
 7475TIP3    H246621   4.756   1.443   9.908 -0.0723  1.9850  1.7702
 7476TIP3   OH246622   3.461   7.552   9.537 -0.6743  0.1593 -0.5247
 7476TIP3    H146623   3.524   7.498   9.489 -0.2497  1.1397 -1.1019
 7476TIP3    H246624   3.379   7.541   9.490 -1.5514 -2.8127  1.4502
 7477TIP3   OH246625   5.461   0.163   8.970  0.1213  0.4313 -0.0231
 7477TIP3    H146626   5.385   0.133   8.921  1.3394  0.4727 -2.0393
 7477TIP3    H246627   5.465   0.257   8.954  2.0858  0.0569 -2.2622
 7478TIP3   OH246628   6.732   0.879   8.863  0.2859  0.2603  0.1012
 7478TIP3    H146629   6.750   0.787   8.881  2.3241  0.5873 -0.0434
 7478TIP3    H246630   6.650   0.878   8.813  0.2785 -1.4557  0.0975
 7479TIP3   OH246631   1.167   0.672  13.813 -0.4039  0.5853  0.1940
 7479TIP3    H146632   1.248   0.633  13.845 -1.3739 -2.2138 -0.5164
 7479TIP3    H246633   1.104   0.659  13.884 -1.0912 -0.4927 -0.5711
 7480TIP3   OH246634   7.193   7.086   9.367 -0.0040  0.2521  0.9574
 7480TIP3    H146635   7.166   7.175   9.391 -0.1638 -0.1985  2.6255
 7480TIP3    H246636   7.272   7.098   9.315 -0.7330  1.4136  0.0828
 7481TIP3   OH246637   4.088   4.943   8.887 -0.5772  0.1551  0.3291
 7481TIP3    H146638   4.040   5.015   8.928  0.2415  0.9204 -0.0277
 7481TIP3    H246639   4.170   4.937   8.936  0.3283  0.9525 -1.0164
 7482TIP3   OH246640   8.137   4.472   9.239 -0.0581 -0.4626 -0.1356
 7482TIP3    H146641   8.194   4.408   9.197 -0.8111 -0.4575 -1.1965
 7482TIP3    H246642   8.073   4.419   9.286  0.9763 -0.4712  1.3424
 7483TIP3   OH246643   3.001   3.565   9.402  1.0431  0.0992 -0.1512
 7483TIP3    H146644   2.998   3.653   9.362  2.2435 -0.4210 -1.5039
 7483TIP3    H246645   3.015   3.581   9.495 -0.1058  1.3600 -0.1717
 7484TIP3   OH246646   4.748   6.190  10.049 -0.2416  0.2669  0.0644
 7484TIP3    H146647   4.653   6.188  10.040 -0.0911 -0.3079 -1.8221
 7484TIP3    H246648   4.774   6.099  10.056  0.2461  0.3302 -0.7330
 7485TIP3   OH246649   3.186   7.274   8.824 -0.1941 -0.1383  0.1126
 7485TIP3    H146650   3.173   7.180   8.829 -0.0996 -0.0980  1.6003
 7485TIP3    H246651   3.278   7.287   8.848  0.4928  0.1802 -2.4413
 7486TIP3   OH246652   0.990   3.106   9.786  0.0806 -0.1647 -0.2498
 7486TIP3    H146653   0.991   3.047   9.710  0.9434 -0.6682  0.1370
 7486TIP3    H246654   1.075   3.093   9.827  0.0984  0.9948  0.1288
 7487TIP3   OH246655   4.397   2.368   9.990  0.2739 -0.4438 -0.2123
 7487TIP3    H146656   4.457   2.442   9.980  1.3890 -1.3715 -0.6438
 7487TIP3    H246657   4.339   2.393  10.062  0.4911  0.9333 -0.5008
 7488TIP3   OH246658   1.540   5.173   8.534  0.7726  0.3154 -0.1083
 7488TIP3    H146659   1.561   5.100   8.474 -1.4488 -0.6293  0.1694
 7488TIP3    H246660   1.625   5.198   8.571  1.6631 -2.0218 -0.3552
 7489TIP3   OH246661   7.417   5.426   9.560  0.0698 -0.6294 -0.1613
 7489TIP3    H146662   7.408   5.348   9.615 -0.7604  1.3301  2.7422
 7489TIP3    H246663   7.507   5.455   9.574 -0.4670  0.4929  1.1543
 7490TIP3   OH246664   7.776   0.321   8.954 -0.0943 -0.1594  0.2970
 7490TIP3    H146665   7.770   0.393   9.017  3.9487  0.1781  0.5146
 7490TIP3    H246666   7.786   0.363   8.869 -1.4811 -0.5815 -0.1018
 7491TIP3   OH246667   1.930   0.403  10.249 -0.3921 -0.6011 -0.2661
 7491TIP3    H146668   1.856   0.464  10.251  0.1170  0.0080  0.5216
 7491TIP3    H246669   2.007   0.458  10.242 -0.0451 -1.2922 -2.5002
 7492TIP3   OH246670   2.837   0.685   9.028  0.5335 -0.1945 -0.1834
 7492TIP3    H146671   2.911   0.663   9.084 -0.5762 -0.0228  1.4469
 7492TIP3    H246672   2.791   0.602   9.015  1.0916 -0.3370 -1.3537
 7493TIP3   OH246673   1.767   1.616   9.980  0.5882 -0.1123 -0.6199
 7493TIP3    H146674   1.765   1.573   9.894 -2.2667 -1.3993 -0.0430
 7493TIP3    H246675   1.774   1.543  10.042  0.2422  0.6246  0.2947
 7494TIP3   OH246676   2.878   1.200   9.102 -0.9546 -0.1194 -0.1636
 7494TIP3    H146677   2.877   1.186   9.197  0.9849 -0.3732 -0.1354
 7494TIP3    H246678   2.834   1.123   9.066  1.5710 -1.9856  0.4200
 7495TIP3   OH246679   7.774   4.271   9.167 -0.3068 -0.0575 -0.0171
 7495TIP3    H146680   7.805   4.283   9.257  2.3027  0.2434 -0.8632
 7495TIP3    H246681   7.712   4.343   9.153  1.6590  1.8538  0.5994
 7496TIP3   OH246682   1.393   5.186   8.775 -0.7578  0.1944  0.0770
 7496TIP3    H146683   1.413   5.096   8.799 -0.4892  0.6990  1.8905
 7496TIP3    H246684   1.436   5.199   8.691  1.2653 -0.6497  0.9249
 7497TIP3   OH246685   6.830   6.307   9.190 -0.7058  0.0844 -0.2058
 7497TIP3    H146686   6.896   6.251   9.150  0.3576  0.8195  0.4913
 7497TIP3    H246687   6.847   6.394   9.155 -1.9875  0.1062 -0.8326
 7498TIP3   OH246688   2.198   7.965   9.214 -0.1481  0.1830  0.0937
 7498TIP3    H146689   2.269   7.937   9.273  0.1878 -0.1428 -0.4529
 7498TIP3    H246690   2.237   7.961   9.127 -0.7720  0.2386 -0.1906
 7499TIP3   OH246691   0.886   0.697  10.025 -0.2567 -0.3397  0.1017
 7499TIP3    H146692   0.806   0.725  10.068 -1.3481 -1.4069 -1.1714
 7499TIP3    H246693   0.895   0.604  10.047  0.1132 -0.4662 -0.5516
 7500TIP3   OH246694   3.482   2.732   8.949  0.0462 -0.0335 -0.1752
 7500TIP3    H146695   3.435   2.809   8.981 -0.3152 -0.4022  0.1943
 7500TIP3    H246696   3.506   2.754   8.859 -0.3233  0.3890 -0.1732
 7501TIP3   OH246697   5.292   1.064   9.367  0.2905  0.1125  0.1635
 7501TIP3    H146698   5.347   1.098   9.296  0.2233 -0.4318 -0.1583
 7501TIP3    H246699   5.287   0.970   9.350  1.5090 -0.2782  1.7228
 7502TIP3   OH246700   1.343   3.615  10.468 -0.3163 -0.0407  0.2251
 7502TIP3    H146701   1.424   3.578  10.432 -0.4687  0.4342 -0.6382
 7502TIP3    H246702   1.309   3.671  10.398 -0.4326  1.2110  1.2300
 7503TIP3   OH246703   4.264   6.871   9.434 -0.0020 -0.0664  0.0695
 7503TIP3    H146704   4.188   6.836   9.480 -1.0223  1.5118 -0.3502
 7503TIP3    H246705   4.231   6.947   9.386  1.3115 -0.7737 -2.1123
 7504TIP3   OH246706   6.427   6.503   9.171  0.3292 -0.6181  0.2081
 7504TIP3    H146707   6.366   6.437   9.137 -1.0251  0.3000  0.7295
 7504TIP3    H246708   6.460   6.466   9.252  0.5110 -1.1597 -0.1103
 7505TIP3   OH246709   8.440   0.695   9.921 -0.2557 -0.0033  0.2013
 7505TIP3    H146710   8.425   0.695  10.016 -0.1824  1.2344  0.2344
 7505TIP3    H246711   8.463   0.786   9.901 -2.1686  0.2073 -1.2947
 7506TIP3   OH246712   2.860   3.095   8.942  0.0628 -0.4190  0.0906
 7506TIP3    H146713   2.837   3.181   8.906  1.3157  0.2871  0.8832
 7506TIP3    H246714   2.924   3.060   8.881 -1.7290 -1.6285 -1.1978
 7507TIP3   OH246715   1.855   8.256   9.424 -0.1814 -0.1428  0.8006
 7507TIP3    H146716   1.951   8.257   9.414  0.0662 -0.4372  2.7749
 7507TIP3    H246717   1.836   8.170   9.462 -1.2933 -0.2218  0.1154
 7508TIP3   OH246718   6.735   1.480   9.196  0.1334 -0.3234  0.1222
 7508TIP3    H146719   6.800   1.440   9.139  0.3043  0.0334  0.0661
 7508TIP3    H246720   6.771   1.566   9.217 -0.7156  0.2290 -0.6117
 7509TIP3   OH246721   5.460   8.182   9.570 -0.0819 -0.5404  0.1519
 7509TIP3    H146722   5.475   8.088   9.561  0.7435 -0.4375  0.4160
 7509TIP3    H246723   5.508   8.221   9.497  2.2857 -0.0996  1.8412
 7510TIP3   OH246724   0.535   5.404  10.104 -0.5440  0.2922 -0.2483
 7510TIP3    H146725   0.563   5.481  10.054  0.7622 -0.7450 -1.1820
 7510TIP3    H246726   0.611   5.378  10.155 -0.3607 -1.4177 -1.3176
 7511TIP3   OH246727   3.842   6.208   9.708  0.4657  0.1054 -0.0965
 7511TIP3    H146728   3.879   6.233   9.793 -1.4853 -1.4286  1.3158
 7511TIP3    H246729   3.811   6.290   9.670 -1.0391  0.6006  1.9681
 7512TIP3   OH246730   1.087   4.143  10.641  0.0781  0.4702 -0.6544
 7512TIP3    H146731   1.039   4.216  10.680 -2.6116 -0.9397 -1.1014
 7512TIP3    H246732   1.118   4.091  10.715 -2.6195 -0.7058 -0.2308
 7513TIP3   OH246733   0.886   1.116  10.591 -0.0035  0.2469  0.7548
 7513TIP3    H146734   0.972   1.156  10.590  0.5511 -0.8965  0.3795
 7513TIP3    H246735   0.837   1.163  10.659 -0.4601  3.6277 -1.6901
 7514TIP3   OH246736   5.972   0.956   9.063  0.0742  0.4974 -0.2074
 7514TIP3    H146737   6.046   0.912   9.104 -0.5073 -1.0576 -0.7492
 7514TIP3    H246738   5.934   0.890   9.005 -0.8707  1.7191 -1.0345
 7515TIP3   OH246739   7.295   1.289   9.264  0.2094  0.2440 -0.1329
 7515TIP3    H146740   7.258   1.377   9.261  1.9314  0.9936 -2.5988
 7515TIP3    H246741   7.372   1.297   9.321 -0.2681  0.0583  0.5380
 7516TIP3   OH246742   5.709   1.658   9.063 -0.0304 -0.4645  0.0687
 7516TIP3    H146743   5.799   1.628   9.072 -0.8613 -3.0939  0.4710
 7516TIP3    H246744   5.716   1.753   9.057  2.6775 -0.5224  0.9778
 7517TIP3   OH246745   8.421   4.231   9.791 -0.1251  0.0475  0.2610
 7517TIP3    H146746   8.327   4.213   9.785 -0.2439  0.7781 -0.1549
 7517TIP3    H246747   8.443   4.211   9.882 -0.7840  0.3197  0.4849
 7518TIP3   OH246748   4.934   5.900   8.635 -0.6031 -0.3186  0.2055
 7518TIP3    H146749   5.024   5.923   8.615 -0.6215 -0.3042  0.1382
 7518TIP3    H246750   4.935   5.874   8.727 -0.5364 -0.2875  0.2133
 7519TIP3   OH246751   7.589   4.060   9.067 -0.2099  0.1174 -0.1533
 7519TIP3    H146752   7.659   4.103   9.115  0.2172 -1.5377  0.8014
 7519TIP3    H246753   7.532   4.131   9.038  1.4575  1.4476 -0.3377
 7520TIP3   OH246754   0.626   7.419   9.880  0.4558  0.0943  0.5984
 7520TIP3    H146755   0.716   7.443   9.858  0.4828  0.5194  1.1493
 7520TIP3    H246756   0.634   7.340   9.934  0.4196 -0.6040 -0.3783
 7521TIP3   OH246757   0.157   1.120   9.262  0.2053 -0.1017  0.1959
 7521TIP3    H146758   0.247   1.100   9.287  0.0762  0.5262  1.2288
 7521TIP3    H246759   0.105   1.048   9.298  0.0944  0.4797  1.2417
 7522TIP3   OH246760   6.540   5.678   9.595 -0.4313  0.7609 -0.5752
 7522TIP3    H146761   6.632   5.705   9.589 -0.2554 -0.0530 -2.0879
 7522TIP3    H246762   6.526   5.624   9.517 -1.4212 -1.4966  1.0427
 7523TIP3   OH246763   8.059   2.334   9.466  0.1575  0.2699 -0.2890
 7523TIP3    H146764   7.985   2.278   9.440  0.9736 -2.0512  1.9887
 7523TIP3    H246765   8.035   2.367   9.552  1.4323  0.1439  0.1225
 7524TIP3   OH246766   3.180   8.327  10.192 -0.5006 -0.0157 -0.5591
 7524TIP3    H146767   3.122   8.344  10.267 -0.8933  2.1145 -1.2755
 7524TIP3    H246768   3.266   8.356  10.222 -0.5146  0.1508 -0.6789
 7525TIP3   OH246769   2.666   6.342  10.471  0.2631  0.5883  0.3363
 7525TIP3    H146770   2.677   6.312  10.562 -0.1340  1.9852  0.8703
 7525TIP3    H246771   2.750   6.383  10.450 -0.1153  1.5061  0.5753
 7526TIP3   OH246772   7.856   7.101   9.460  0.1624  0.4249  0.1477
 7526TIP3    H146773   7.898   7.156   9.526 -2.0897 -0.1938  2.1982
 7526TIP3    H246774   7.763   7.116   9.471 -0.3403  0.6445 -3.2696
 7527TIP3   OH246775   4.209   5.610   9.270  0.1554 -0.1330 -0.3997
 7527TIP3    H146776   4.200   5.624   9.176 -1.4893  1.4115 -0.0726
 7527TIP3    H246777   4.142   5.544   9.290  1.1710 -1.2031 -0.4294
 7528TIP3   OH246778   6.832   3.860   9.923 -0.3846 -0.2171 -0.0712
 7528TIP3    H146779   6.909   3.830   9.875  1.1217  0.0169  2.0037
 7528TIP3    H246780   6.818   3.794   9.991 -0.6124  0.8205  0.9438
 7529TIP3   OH246781   2.352   2.730   8.608  0.4905  0.1074  0.5700
 7529TIP3    H146782   2.418   2.719   8.539  0.9963  1.4923  0.7876
 7529TIP3    H246783   2.346   2.645   8.650  0.7008 -0.5743 -0.7257
 7530TIP3   OH246784   0.734   6.535   9.759  0.6752  0.5281 -0.8392
 7530TIP3    H146785   0.725   6.462   9.698 -0.1110 -0.0912 -0.0019
 7530TIP3    H246786   0.825   6.565   9.747  2.7810 -3.6441  2.0647
 7531TIP3   OH246787   5.180   1.435   9.295 -0.5387 -0.1841 -0.2528
 7531TIP3    H146788   5.173   1.340   9.310 -0.0233 -0.0184  1.2048
 7531TIP3    H246789   5.151   1.474   9.377 -1.1069  0.9505 -0.9762
 7532TIP3   OH246790   0.544   3.858   9.880 -0.0885 -0.3055  1.0488
 7532TIP3    H146791   0.590   3.787   9.925  1.2900 -0.8341 -1.0337
 7532TIP3    H246792   0.479   3.814   9.826 -1.3276  0.2654  2.0513
 7533TIP3   OH246793   2.506   1.509   9.508  0.0680  0.2185  0.0065
 7533TIP3    H146794   2.566   1.435   9.497 -1.6118 -1.0855 -1.1082
 7533TIP3    H246795   2.521   1.539   9.597  0.9931 -1.3234  0.4182
 7534TIP3   OH246796   7.503   1.965   9.896 -0.1895 -0.2128  0.3094
 7534TIP3    H146797   7.457   1.913   9.830  0.2977 -0.2646  0.0076
 7534TIP3    H246798   7.486   2.056   9.870 -2.0172 -0.1543  1.4939
 7535TIP3   OH246799   2.446   4.700   9.398  0.2413 -0.2153  0.1050
 7535TIP3    H146800   2.394   4.656   9.466  1.6777 -2.0549  0.0868
 7535TIP3    H246801   2.388   4.701   9.321 -0.6470  0.0113  0.7615
 7536TIP3   OH246802   2.215   5.046   9.183  0.5806 -0.0550 -0.4664
 7536TIP3    H146803   2.285   4.991   9.147  0.9331  0.3137 -0.3410
 7536TIP3    H246804   2.251   5.082   9.263  0.1512 -0.0675 -0.2668
 7537TIP3   OH246805   3.362   2.964   9.011  0.3055 -0.0053 -0.4255
 7537TIP3    H146806   3.327   2.979   8.923 -0.2836  0.1934 -0.1656
 7537TIP3    H246807   3.313   3.024   9.066  1.6463  0.8655 -0.1600
 7538TIP3   OH246808   5.190   8.151   9.346  0.2436  0.1380 -0.2446
 7538TIP3    H146809   5.251   8.099   9.398 -1.4008 -0.5045  1.1340
 7538TIP3    H246810   5.232   8.236   9.337  0.4966  0.3467  2.3910
 7539TIP3   OH246811   2.383   3.355   9.683  0.1548  0.1378 -0.3991
 7539TIP3    H146812   2.394   3.347   9.588  2.3977  0.1532 -0.1923
 7539TIP3    H246813   2.426   3.277   9.719 -1.0203 -0.0750  0.6056
 7540TIP3   OH246814   7.364   6.141  10.969 -0.0065 -0.1810 -0.3910
 7540TIP3    H146815   7.370   6.190  11.051  0.4536 -1.1145  0.1410
 7540TIP3    H246816   7.449   6.153  10.927  0.1360 -0.5956 -0.2204
 7541TIP3   OH246817   1.582   3.242   8.927  0.5835 -0.2527 -0.6982
 7541TIP3    H146818   1.505   3.298   8.932  1.4272  0.8706  0.2181
 7541TIP3    H246819   1.655   3.302   8.909  1.6101 -0.9097  1.0147
 7542TIP3   OH246820   8.190   0.049   9.349  0.1297  0.0810 -0.4971
 7542TIP3    H146821   8.129   0.104   9.299 -2.2354 -0.8374  1.1908
 7542TIP3    H246822   8.134   0.001   9.411  2.6997  0.0812  2.0444
 7543TIP3   OH246823   3.268   7.584   9.350  0.1127 -0.1706 -0.1848
 7543TIP3    H146824   3.231   7.589   9.262  0.3691  0.7123 -0.2495
 7543TIP3    H246825   3.232   7.660   9.396  0.5925 -0.1906  0.2338
 7544TIP3   OH246826   1.898   0.460   9.045 -0.3434 -0.1086  0.3782
 7544TIP3    H146827   1.966   0.398   9.020  2.4298  2.5335  0.7994
 7544TIP3    H246828   1.823   0.437   8.989  2.0079 -1.0681 -2.6804
 7545TIP3   OH246829   0.646   7.039  10.447 -0.0513  0.0822  0.3797
 7545TIP3    H146830   0.585   7.084  10.505  1.2557  0.6872  1.3254
 7545TIP3    H246831   0.665   6.956  10.491  0.1037  0.0605  0.2721
 7546TIP3   OH246832   0.394   0.425   8.801  0.4494  0.1165  0.2332
 7546TIP3    H146833   0.320   0.428   8.861  0.7154 -0.4036  0.5903
 7546TIP3    H246834   0.375   0.351   8.744 -0.4621  1.3900 -1.2084
 7547TIP3   OH246835   0.692   4.825  10.486 -0.2023 -0.1400  0.4437
 7547TIP3    H146836   0.750   4.788  10.420  1.1970 -0.1130  1.6123
 7547TIP3    H246837   0.747   4.884  10.537 -1.5650  0.8807  0.8170
 7548TIP3   OH246838   1.805   1.405  10.156  0.3370 -0.1359  0.1595
 7548TIP3    H146839   1.899   1.404  10.139  0.3917 -1.1672  0.4177
 7548TIP3    H246840   1.781   1.312  10.159 -0.9349  0.1329 -1.1707
 7549TIP3   OH246841   0.034   4.980  10.552 -0.3610 -0.6821 -0.0085
 7549TIP3    H146842  -0.015   4.991  10.633  1.9845 -0.3567  1.4633
 7549TIP3    H246843   0.090   5.057  10.547  0.5062 -1.3632 -1.2401
 7550TIP3   OH246844   1.774   2.200   9.559 -0.2316  0.7273 -0.2003
 7550TIP3    H146845   1.860   2.161   9.542 -0.9579 -0.9548 -0.2374
 7550TIP3    H246846   1.721   2.127   9.590 -1.0843  2.1496  1.9269
 7551TIP3   OH246847   1.372   3.697   9.382  0.1945 -0.4881  0.3673
 7551TIP3    H146848   1.435   3.723   9.450 -0.6815 -1.0524  1.4357
 7551TIP3    H246849   1.426   3.669   9.308  1.1752  0.9814  0.4822
 7552TIP3   OH246850   7.856   1.124  11.021  0.3305  0.1870  0.3918
 7552TIP3    H146851   7.896   1.053  11.071 -0.3646  0.9317  2.0871
 7552TIP3    H246852   7.777   1.085  10.983  1.5811 -0.7702 -1.4210
 7553TIP3   OH246853   4.631   0.690  10.502 -0.0900  0.1610 -0.5092
 7553TIP3    H146854   4.644   0.669  10.410 -2.0983 -1.5090 -0.5001
 7553TIP3    H246855   4.640   0.606  10.548 -2.5897  0.2290  0.2987
 7554TIP3   OH246856   6.123   7.673  10.960 -0.3669  0.5488  0.0780
 7554TIP3    H146857   6.174   7.618  10.901  0.4028  0.0858  1.1336
 7554TIP3    H246858   6.187   7.714  11.017 -1.0648  1.2544  0.3758
 7555TIP3   OH246859   4.529   1.278   9.348 -0.9894 -0.3014  0.5130
 7555TIP3    H146860   4.577   1.340   9.404  0.1418  1.3559 -2.0764
 7555TIP3    H246861   4.448   1.324   9.326 -1.3484 -0.8667  0.6428
 7556TIP3   OH246862   2.101   4.145   9.131 -0.2966 -0.2212 -0.1862
 7556TIP3    H146863   2.086   4.087   9.057  2.2866  0.6187 -1.5207
 7556TIP3    H246864   2.016   4.184   9.149 -0.9699 -0.0824 -3.0829
 7557TIP3   OH246865   0.250   8.255   9.697 -0.4812  0.2619  0.1265
 7557TIP3    H146866   0.275   8.285   9.610  2.0570  0.5262  0.8538
 7557TIP3    H246867   0.244   8.160   9.690 -1.5847  0.3772 -0.6126
 7558TIP3   OH246868   5.360   0.408   8.909  0.0655 -0.5553  0.0278
 7558TIP3    H146869   5.296   0.429   8.841 -1.0870  1.4182  1.5913
 7558TIP3    H246870   5.407   0.490   8.925 -0.9888 -0.3680  2.8207
 7559TIP3   OH246871   7.941   0.804  10.755  0.2202  0.6899 -0.0494
 7559TIP3    H146872   7.873   0.751  10.714  0.7126 -1.7490  1.9508
 7559TIP3    H246873   7.916   0.807  10.848  1.3901  2.1137  0.2579
 7560TIP3   OH246874   5.527   4.312  10.136  0.3587  0.5986 -0.4826
 7560TIP3    H146875   5.441   4.334  10.171  0.7465 -0.5793  1.3299
 7560TIP3    H246876   5.521   4.219  10.113  1.0751  0.5551 -0.5240
 7561TIP3   OH246877   2.343   7.195   8.647 -0.2030 -0.8663 -0.6181
 7561TIP3    H146878   2.417   7.198   8.709  0.1125 -0.2240 -1.0169
 7561TIP3    H246879   2.269   7.230   8.697  0.5306  1.7406 -1.2174
 7562TIP3   OH246880   1.625   4.999   8.976 -0.1818  0.3194 -0.3256
 7562TIP3    H146881   1.667   4.919   9.009  0.1825  1.1665  1.3782
 7562TIP3    H246882   1.585   4.972   8.894  1.2833 -1.2214 -0.5958
 7563TIP3   OH246883   1.300   0.629   9.229  0.4576 -0.3728 -0.0772
 7563TIP3    H146884   1.277   0.648   9.320 -0.1709  0.9022 -0.4765
 7563TIP3    H246885   1.384   0.583   9.235  1.2720  1.1553  1.0840
 7564TIP3   OH246886   7.550   4.819   8.906 -0.7162 -0.7529 -0.0418
 7564TIP3    H146887   7.602   4.795   8.983 -1.1158  1.9568  1.1900
 7564TIP3    H246888   7.605   4.794   8.831  2.4494  1.8206  1.1701
 7565TIP3   OH246889   0.121   7.898   9.629  0.3072  0.3171 -0.3724
 7565TIP3    H146890   0.134   7.804   9.614  0.3685  0.3537 -0.5476
 7565TIP3    H246891   0.106   7.935   9.542  1.8597  0.7183 -0.5069
 7566TIP3   OH246892   3.894   1.769   8.570  0.5511  0.7194  0.0408
 7566TIP3    H146893   3.806   1.732   8.566  1.0433 -0.4706 -0.0836
 7566TIP3    H246894   3.946   1.714   8.513  1.2877  1.7174 -0.2800
 7567TIP3   OH246895   7.207   2.787  10.191 -0.4031 -0.1335  0.3022
 7567TIP3    H146896   7.225   2.744  10.275  0.5276  0.2486  0.3129
 7567TIP3    H246897   7.141   2.732  10.149 -0.8589 -0.3447  1.2717
 7568TIP3   OH246898   6.438   6.398   8.673 -0.0191 -0.0542  0.6512
 7568TIP3    H146899   6.487   6.415   8.753  1.7954 -0.9236 -0.2064
 7568TIP3    H246900   6.351   6.374   8.703  1.1180 -2.2821  2.5580
 7569TIP3   OH246901   4.101   4.781   9.773 -0.6641  0.2033 -0.4511
 7569TIP3    H146902   4.012   4.813   9.787 -0.3453  0.2785  1.9407
 7569TIP3    H246903   4.153   4.861   9.763 -0.6272  0.2501  0.0618
 7570TIP3   OH246904   0.391   2.650   9.708  0.0334  0.1129 -0.2685
 7570TIP3    H146905   0.374   2.574   9.765  0.3871 -1.0554 -1.6735
 7570TIP3    H246906   0.444   2.709   9.762 -1.1388 -0.1191  1.2168
 7571TIP3   OH246907   1.327   3.721   8.913 -0.5277  0.3045 -0.2512
 7571TIP3    H146908   1.342   3.804   8.957 -1.6500  0.5229 -0.2456
 7571TIP3    H246909   1.300   3.745   8.824 -1.7158  0.0076  0.0014
 7572TIP3   OH246910   0.058   5.724   9.301 -0.3711 -0.1497  0.0253
 7572TIP3    H146911   0.004   5.778   9.358  1.0157  1.1464  0.1886
 7572TIP3    H246912   0.076   5.779   9.225  0.0903 -0.8217 -0.3691
 7573TIP3   OH246913   6.033   4.772  10.551 -0.0382  0.4129  0.1933
 7573TIP3    H146914   6.069   4.834  10.615  1.7914 -0.3067 -0.0934
 7573TIP3    H246915   5.939   4.790  10.552  0.0541  1.1415  2.3054
 7574TIP3   OH246916   2.929   3.481  10.048 -0.0401 -0.0940 -0.1270
 7574TIP3    H146917   2.929   3.439   9.962 -0.8876  0.7682 -0.5658
 7574TIP3    H246918   2.988   3.427  10.101 -1.3570 -2.0593 -0.5581
 7575TIP3   OH246919   5.900   2.883  10.353  0.6105  0.0570  0.2160
 7575TIP3    H146920   5.912   2.969  10.393 -1.0809  0.0281  0.8509
 7575TIP3    H246921   5.867   2.828  10.424 -0.6534 -0.4754 -0.7430
 7576TIP3   OH246922   2.203   1.614   8.553  0.0726 -0.2968 -0.2192
 7576TIP3    H146923   2.151   1.536   8.570 -1.3024  0.3179 -1.3589
 7576TIP3    H246924   2.142   1.687   8.566  0.3934  0.4155 -2.3021
 7577TIP3   OH246925   6.615   0.504   8.629  0.2251 -0.1397 -0.4764
 7577TIP3    H146926   6.702   0.543   8.616 -0.1895  1.0882  0.2152
 7577TIP3    H246927   6.557   0.556   8.574 -0.5043  0.9356  1.2394
 7578TIP3   OH246928   0.923   2.764   9.403 -0.8090  0.7489  0.0895
 7578TIP3    H146929   0.992   2.701   9.423 -1.5253  0.4153  1.6764
 7578TIP3    H246930   0.880   2.729   9.325  1.1160  1.2608 -1.2810
 7579TIP3   OH246931   2.720   2.411   8.348 -0.2092  0.0358  0.1682
 7579TIP3    H146932   2.679   2.362   8.277 -1.2353  1.7074 -0.4607
 7579TIP3    H246933   2.673   2.384   8.427  0.5382 -1.3809  0.1666
 7580TIP3   OH246934   4.367   7.955   9.489  0.8952 -0.6794  0.0368
 7580TIP3    H146935   4.440   8.004   9.527  0.7391 -0.5914  0.2212
 7580TIP3    H246936   4.301   7.953   9.558  2.2677 -4.3229  1.5213
 7581TIP3   OH246937   0.695   0.888   9.027  0.3801 -0.1316  0.4423
 7581TIP3    H146938   0.613   0.838   9.023 -0.1727  0.7606  0.1300
 7581TIP3    H246939   0.677   0.956   9.092  2.0338 -1.8808  2.9107
 7582TIP3   OH246940   0.471   7.709   9.001  0.2307  0.3461 -0.2255
 7582TIP3    H146941   0.548   7.669   8.961  0.6958  0.9798  0.0229
 7582TIP3    H246942   0.472   7.677   9.092  0.2904  0.4776 -0.1796
 7583TIP3   OH246943   7.362   4.393  10.289  0.0110  0.0180 -0.2707
 7583TIP3    H146944   7.321   4.324  10.342 -0.3459 -1.5320 -2.4219
 7583TIP3    H246945   7.454   4.368  10.287 -0.1184 -0.4201 -1.0487
 7584TIP3   OH246946   8.341   6.050   9.906 -0.6494 -0.4465  0.3731
 7584TIP3    H146947   8.306   5.974   9.861 -0.8654  1.6771 -3.4418
 7584TIP3    H246948   8.435   6.033   9.914 -0.8264 -1.4382  0.3816
 7585TIP3   OH246949   7.189   1.397   9.772  0.2310 -0.3736 -0.2230
 7585TIP3    H146950   7.262   1.427   9.825 -0.3198 -0.3739  0.5454
 7585TIP3    H246951   7.118   1.380   9.834 -0.7945  0.6990 -1.0470
 7586TIP3   OH246952   8.397   2.766   9.992 -0.7074  0.5005  0.5637
 7586TIP3    H146953   8.327   2.818  10.031  0.0626  0.4832  2.0286
 7586TIP3    H246954   8.478   2.807  10.023 -0.0475  0.3763 -0.8994
 7587TIP3   OH246955   0.381   1.332   8.944  0.2932 -0.4461 -0.2470
 7587TIP3    H146956   0.377   1.334   8.849  0.5849 -2.1701 -0.3253
 7587TIP3    H246957   0.475   1.333   8.963  0.2773 -1.5432 -0.0524
 7588TIP3   OH246958   2.007   5.405  11.018 -0.1645 -0.4281 -0.4350
 7588TIP3    H146959   1.921   5.362  11.015 -0.5219 -0.0242  1.9040
 7588TIP3    H246960   2.069   5.334  11.035 -0.4810 -0.3551  1.1743
 7589TIP3   OH246961   7.622   6.998   8.542  0.0659  0.6059 -0.3439
 7589TIP3    H146962   7.588   7.016   8.454  2.4719  0.6327 -1.3476
 7589TIP3    H246963   7.677   7.074   8.562  3.5161 -1.5183 -1.0023
 7590TIP3   OH246964   5.120   0.396  10.433  0.6155  0.4728  0.1946
 7590TIP3    H146965   5.048   0.334  10.448  1.0370  0.4770  2.6617
 7590TIP3    H246966   5.091   0.476  10.476  1.0011  1.3340 -1.1035
 7591TIP3   OH246967   8.161   0.677   9.766 -0.1417 -0.0559 -0.3334
 7591TIP3    H146968   8.091   0.664   9.829  0.7472  0.9740  0.9271
 7591TIP3    H246969   8.237   0.635   9.806  0.2194 -0.2563 -1.1977
 7592TIP3   OH246970   6.354   7.102   9.893 -0.0281  0.1995 -0.4274
 7592TIP3    H146971   6.403   7.183   9.880 -1.3366  1.0635 -0.1923
 7592TIP3    H246972   6.349   7.092   9.989 -0.0307 -0.0528 -0.4530
 7593TIP3   OH246973   3.610   6.548  10.552  0.0751 -0.4282 -0.2231
 7593TIP3    H146974   3.539   6.504  10.599 -1.0305 -0.0410 -1.4570
 7593TIP3    H246975   3.581   6.639  10.546  1.2986  0.0255  0.3633
 7594TIP3   OH246976   3.402   3.202   8.620  0.6162  0.0582 -0.3644
 7594TIP3    H146977   3.397   3.219   8.714 -0.0647 -3.0965  0.3020
 7594TIP3    H246978   3.312   3.206   8.590  0.6338 -0.6027 -0.5139
 7595TIP3   OH246979   6.532   5.287   9.745 -0.1450 -0.8696 -0.4021
 7595TIP3    H146980   6.482   5.274   9.826 -0.9620  2.0345 -0.2925
 7595TIP3    H246981   6.615   5.326   9.773 -0.1990 -0.3733 -0.8966
 7596TIP3   OH246982   4.310   0.597   8.670  0.1115  0.2213 -0.0486
 7596TIP3    H146983   4.354   0.512   8.672 -2.6757 -1.3667  2.4582
 7596TIP3    H246984   4.220   0.578   8.699 -0.9911  3.8514 -0.6265
 7597TIP3   OH246985   5.353   2.035  10.110 -0.2464 -0.2030 -0.6175
 7597TIP3    H146986   5.354   1.998  10.198 -1.4742  0.2603 -0.3849
 7597TIP3    H246987   5.391   1.967  10.054  0.3407 -0.5849  0.2263
 7598TIP3   OH246988   3.186   7.233   9.123 -0.0269 -0.1569 -0.1314
 7598TIP3    H146989   3.243   7.196   9.191  0.8752  0.6195 -0.4463
 7598TIP3    H246990   3.211   7.187   9.043 -0.6710 -0.6470 -0.0535
 7599TIP3   OH246991   6.480   0.999   9.314 -0.2837  0.4922  0.0193
 7599TIP3    H146992   6.432   0.917   9.326 -0.2754  0.4554 -0.1854
 7599TIP3    H246993   6.432   1.045   9.245  0.4723  0.0600 -0.8230
 7600TIP3   OH246994   1.843   5.572   9.996 -0.2654  0.3123 -0.3671
 7600TIP3    H146995   1.860   5.525   9.915 -0.1629 -0.1182 -0.0984
 7600TIP3    H246996   1.826   5.662   9.969  0.2517  0.2746 -0.8238
 7601TIP3   OH246997   6.483   8.303   9.262 -0.5022  0.6085  0.0769
 7601TIP3    H146998   6.426   8.364   9.309 -1.5810 -1.0301  0.9830
 7601TIP3    H246999   6.425   8.231   9.236  0.4481  0.5616 -2.1601
 7602TIP3   OH247000   1.994   1.772   9.968  0.0168 -0.6892 -0.0566
 7602TIP3    H147001   1.932   1.843   9.983  0.9186 -0.2621  1.9863
 7602TIP3    H247002   1.941   1.692   9.976 -0.3935 -0.3204  1.1409
 7603TIP3   OH247003   6.053   1.642  10.556 -0.2697 -0.5448  0.5948
 7603TIP3    H147004   6.128   1.697  10.576  0.3145 -1.2704  0.4283
 7603TIP3    H247005   5.979   1.686  10.598 -0.6395  2.6311 -2.8497
 7604TIP3   OH247006   6.774   4.693  10.825  0.1028  0.0726 -0.2321
 7604TIP3    H147007   6.691   4.704  10.779  0.9223  0.8720 -1.5961
 7604TIP3    H247008   6.760   4.618  10.882 -2.0967  1.2465  0.8891
 7605TIP3   OH247009   1.358   3.973   9.875 -0.0198  0.2424 -0.1143
 7605TIP3    H147010   1.404   3.900   9.915 -0.9306 -0.0630  0.3806
 7605TIP3    H247011   1.296   3.933   9.815  0.4543  0.6616 -0.9071
 7606TIP3   OH247012   1.557   4.374   9.080  0.6252 -0.2353  0.9006
 7606TIP3    H147013   1.542   4.325   8.999 -0.9638  1.1942  0.2827
 7606TIP3    H247014   1.471   4.409   9.103  1.4031  0.9129  2.1977
 7607TIP3   OH247015   4.478   3.518  10.098  0.0749  0.0435  0.5864
 7607TIP3    H147016   4.547   3.571  10.140  0.7992  1.4055 -2.0916
 7607TIP3    H247017   4.506   3.512  10.007 -1.8725 -1.9889  0.0562
 7608TIP3   OH247018   5.783   2.769  10.814 -0.0010 -1.3577  0.5611
 7608TIP3    H147019   5.805   2.709  10.884 -1.5674 -0.7141  1.6504
 7608TIP3    H247020   5.777   2.855  10.856 -0.5095 -0.8758 -0.4468
 7609TIP3   OH247021   2.472   5.600  10.217 -0.0173 -0.5309 -0.1576
 7609TIP3    H147022   2.393   5.638  10.254  0.4367  0.5666 -0.2854
 7609TIP3    H247023   2.518   5.563  10.292 -0.7726 -1.4519 -0.1194
 7610TIP3   OH247024   8.402   3.780  10.960  0.0846 -0.4006 -0.1958
 7610TIP3    H147025   8.429   3.689  10.954  1.1181 -0.1484  0.4365
 7610TIP3    H247026   8.402   3.812  10.869 -2.7232 -1.6718 -0.7473
 7611TIP3   OH247027   1.478   3.219   9.181  0.1796  0.4542 -0.1974
 7611TIP3    H147028   1.548   3.257   9.127 -0.7023 -0.4038 -2.0286
 7611TIP3    H247029   1.468   3.280   9.254  2.2276  1.0525 -0.3593
 7612TIP3   OH247030   7.820   6.691   9.880 -0.4805 -0.7504  0.2512
 7612TIP3    H147031   7.762   6.763   9.853  0.8745 -0.3117 -1.7342
 7612TIP3    H247032   7.763   6.629   9.924 -2.5054 -0.4101 -1.7390
 7613TIP3   OH247033   2.901   2.797   9.548  0.3875 -0.1618 -0.5388
 7613TIP3    H147034   2.861   2.734   9.488  2.9338 -2.1386 -0.3452
 7613TIP3    H247035   2.960   2.849   9.493  2.2155 -1.5250  0.0437
 7614TIP3   OH247036   2.483   6.830   9.595 -0.0832 -0.4629  0.1407
 7614TIP3    H147037   2.447   6.838   9.507  0.6338  2.1698 -0.0073
 7614TIP3    H247038   2.459   6.741   9.623 -0.1257 -1.4737 -2.7550
 7615TIP3   OH247039   0.924   4.338  10.289 -0.5447  0.3137  0.0805
 7615TIP3    H147040   0.890   4.265  10.341 -0.8366 -0.8783 -1.6923
 7615TIP3    H247041   0.858   4.352  10.221  1.6913 -1.0704 -2.5737
 7616TIP3   OH247042   3.746   1.003   9.759 -0.2677  0.0266  0.1210
 7616TIP3    H147043   3.691   1.026   9.684 -1.1392  1.4974  1.1600
 7616TIP3    H247044   3.729   1.072   9.824 -0.9434 -2.1345  2.4166
 7617TIP3   OH247045   8.090   3.863  11.039  0.0965  0.1465 -0.0575
 7617TIP3    H147046   8.101   3.958  11.028  0.5290  0.1372  0.2817
 7617TIP3    H247047   8.178   3.827  11.033  0.0484 -0.1319  0.7423
 7618TIP3   OH247048   5.291   7.710   9.236 -0.3370 -0.0394 -0.7233
 7618TIP3    H147049   5.264   7.789   9.189  2.5320  0.6599 -1.4054
 7618TIP3    H247050   5.336   7.657   9.171  0.5473 -0.7650  0.4329
 7619TIP3   OH247051   4.922   0.018  10.236  0.4515  0.0564  0.5957
 7619TIP3    H147052   4.833  -0.012  10.251  0.3521  0.9584  1.9476
 7619TIP3    H247053   4.966  -0.056  10.194 -1.0150 -0.2568 -0.4266
 7620TIP3   OH247054   8.100   2.805   9.225  0.0586 -0.0445  0.2282
 7620TIP3    H147055   8.170   2.782   9.164  0.1477  1.3580 -0.2234
 7620TIP3    H247056   8.088   2.899   9.215 -2.3229 -0.3239 -0.1593
 7621TIP3   OH247057   5.627   3.588   9.501 -0.2667  0.6370  0.1750
 7621TIP3    H147058   5.533   3.575   9.508 -0.4874  0.4454 -2.4475
 7621TIP3    H247059   5.638   3.668   9.450  0.9240 -0.4332 -1.3523
 7622TIP3   OH247060   3.660   7.756   9.575  0.6962  0.3504  0.7544
 7622TIP3    H147061   3.610   7.675   9.590  1.1760 -0.0489  0.2478
 7622TIP3    H247062   3.601   7.811   9.524  0.8688 -0.2384 -0.0938
 7623TIP3   OH247063   0.396   0.489  10.680  0.1898 -0.2787 -0.1050
 7623TIP3    H147064   0.417   0.489  10.773  1.4089  0.7178 -0.3488
 7623TIP3    H247065   0.480   0.499  10.636 -0.5302  1.3667 -1.2325
 7624TIP3   OH247066   6.773   0.799   9.387  0.3646  0.3371 -0.5550
 7624TIP3    H147067   6.847   0.787   9.447 -0.9022  0.0337  1.0363
 7624TIP3    H247068   6.762   0.713   9.346 -0.7181 -0.4442  1.2313
 7625TIP3   OH247069   7.653   1.555   8.982 -0.7712 -0.4595 -0.4977
 7625TIP3    H147070   7.650   1.631   9.038 -0.4145 -0.3669 -0.6018
 7625TIP3    H247071   7.622   1.483   9.037 -0.7954 -0.2990 -0.3012
 7626TIP3   OH247072   6.312   3.491   9.960 -0.4339 -0.3537 -0.3159
 7626TIP3    H147073   6.231   3.536   9.937 -0.1749  0.2377 -0.0972
 7626TIP3    H247074   6.315   3.415   9.902 -1.4814 -0.7684  0.1547
 7627TIP3   OH247075   6.248   1.877   9.014 -0.2590 -0.1868 -0.6555
 7627TIP3    H147076   6.274   1.881   9.106  0.8154  1.1282 -0.9905
 7627TIP3    H247077   6.152   1.869   9.017 -0.2824  0.2401  0.5726
 7628TIP3   OH247078   2.812   3.496   9.108  0.2686  0.0174  0.5797
 7628TIP3    H147079   2.727   3.461   9.136  0.8635 -0.1119  2.3319
 7628TIP3    H247080   2.805   3.590   9.121  0.0151  0.1364 -0.3715
 7629TIP3   OH247081   1.899   3.247   9.258  0.3434 -0.0444  0.3608
 7629TIP3    H147082   1.822   3.210   9.301 -0.6779  0.3477 -1.0476
 7629TIP3    H247083   1.910   3.194   9.179  1.8659 -0.4263  0.7948
 7630TIP3   OH247084   4.385   7.513   8.945 -0.4232  0.0058  0.0082
 7630TIP3    H147085   4.353   7.429   8.977  0.2934 -0.9890 -1.7582
 7630TIP3    H247086   4.462   7.531   8.998 -0.0530 -0.9144 -0.1998
 7631TIP3   OH247087   5.554   6.435   9.891  0.0139 -0.1775 -0.0961
 7631TIP3    H147088   5.627   6.467   9.838  0.1719 -1.0468 -0.4259
 7631TIP3    H247089   5.515   6.364   9.839 -1.8080  1.0146 -0.4446
 7632TIP3   OH247090   0.735   3.234  10.048 -0.2342  0.7763  0.1074
 7632TIP3    H147091   0.672   3.164  10.065 -0.9474  1.6439  1.2523
 7632TIP3    H247092   0.708   3.270   9.963  1.9512 -2.1358 -2.0300
 7633TIP3   OH247093   7.278   4.843   8.747  0.0832  0.1269  0.0174
 7633TIP3    H147094   7.325   4.868   8.827 -0.6930 -1.4071  0.9977
 7633TIP3    H247095   7.232   4.763   8.771 -2.5099  1.1958 -1.1047
 7634TIP3   OH247096   1.923   3.893  10.616 -0.8497  0.2177  0.5254
 7634TIP3    H147097   1.941   3.821  10.677 -0.5015  0.5653  0.8341
 7634TIP3    H247098   2.007   3.909  10.572 -1.4702 -1.1757 -1.3032
 7635TIP3   OH247099   3.606   2.545   9.158 -0.3066  0.0012  0.4906
 7635TIP3    H147100   3.558   2.469   9.124  1.8054 -0.1120 -2.6703
 7635TIP3    H247101   3.596   2.612   9.090  2.2579  0.6288  0.6326
 7636TIP3   OH247102   7.341   7.818   8.675  0.0231  0.1898 -0.3395
 7636TIP3    H147103   7.403   7.882   8.643  1.4752 -0.6765  0.6386
 7636TIP3    H247104   7.263   7.869   8.698  0.7522  1.4460 -0.5708
 7637TIP3   OH247105   8.007   6.194   8.761 -0.3272 -0.5650 -0.1731
 7637TIP3    H147106   7.957   6.272   8.739  0.7799  0.1284 -0.2749
 7637TIP3    H247107   8.032   6.156   8.677 -1.7112 -1.6302 -0.1552
 7638TIP3   OH247108   4.841   3.066  10.350  0.4317  0.2027 -0.4205
 7638TIP3    H147109   4.870   3.034  10.436  0.1528 -0.4831 -0.5787
 7638TIP3    H247110   4.906   3.133  10.327  0.3699  0.5649  0.4327
 7639TIP3   OH247111   0.065   3.433   9.139  0.0165  0.1527  0.3209
 7639TIP3    H147112   0.060   3.528   9.147 -0.4847  0.1443  0.1311
 7639TIP3    H247113   0.146   3.417   9.092 -0.2683  0.5284 -0.3158
 7640TIP3   OH247114   2.463   6.791  10.154 -0.3851  0.5059  0.2209
 7640TIP3    H147115   2.387   6.745  10.120  0.4891 -0.0182 -1.0820
 7640TIP3    H247116   2.441   6.810  10.246 -2.3285  0.9485 -0.3053
 7641TIP3   OH247117   3.087   1.046  10.416 -0.0415  0.0707 -0.0931
 7641TIP3    H147118   3.152   1.012  10.355 -1.0926 -0.4504 -0.9500
 7641TIP3    H247119   3.107   1.003  10.500 -0.3236 -1.4145 -0.7560
 7642TIP3   OH247120   1.778   5.380  10.383  0.3153  0.0790 -0.1126
 7642TIP3    H147121   1.865   5.404  10.415 -0.0633  0.5148  0.6393
 7642TIP3    H247122   1.718   5.416  10.449 -0.3454 -1.9189  0.4501
 7643TIP3   OH247123   7.854   4.271  10.613 -0.7151 -0.0331  0.1285
 7643TIP3    H147124   7.814   4.263  10.526 -0.2550 -0.7444 -0.0278
 7643TIP3    H247125   7.947   4.282  10.596 -0.8936  2.9123  0.4385
 7644TIP3   OH247126   2.570   2.690   8.413  0.2043 -0.4044 -0.0688
 7644TIP3    H147127   2.601   2.621   8.354  0.9271  0.3340 -0.5830
 7644TIP3    H247128   2.612   2.770   8.381 -0.4309  0.2423  0.6532
 7645TIP3   OH247129   7.247   4.040   8.876 -0.0013  0.0164  0.3586
 7645TIP3    H147130   7.171   4.026   8.818  1.7739 -0.2498 -2.0548
 7645TIP3    H247131   7.230   3.983   8.951 -3.0929  1.4301  0.8808
 7646TIP3   OH247132   3.455   7.522   9.125  0.4492  0.3592  0.2439
 7646TIP3    H147133   3.530   7.467   9.151 -0.5044 -0.7938  0.6658
 7646TIP3    H247134   3.423   7.559   9.207  0.7640  1.1545  0.0186
 7647TIP3   OH247135   4.205   7.656  10.607  0.1541 -0.4714  0.3075
 7647TIP3    H147136   4.153   7.587  10.565  0.7807 -1.4243  1.0398
 7647TIP3    H247137   4.157   7.737  10.589 -0.8330 -1.1493 -0.2112
 7648TIP3   OH247138   0.909   0.410  10.396  0.0147 -0.0297 -0.0926
 7648TIP3    H147139   0.949   0.467  10.461  0.6990  0.1656 -0.6745
 7648TIP3    H247140   0.944   0.323  10.415  0.8597  0.1654 -0.6938
 7649TIP3   OH247141   3.560   8.424   9.607  0.2584 -0.2645  0.6556
 7649TIP3    H147142   3.651   8.402   9.588  0.5604 -1.6626  3.2563
 7649TIP3    H247143   3.542   8.382   9.691 -2.6699  0.3610  0.4561
 7650TIP3   OH247144   2.835   1.542   9.643  0.0898 -0.0041 -0.0523
 7650TIP3    H147145   2.915   1.550   9.695 -0.0944  1.4992  0.0306
 7650TIP3    H247146   2.821   1.629   9.606 -0.6591 -0.6360 -1.3517
 7651TIP3   OH247147   4.943   5.406   9.518 -0.3134  0.1526  0.2186
 7651TIP3    H147148   4.854   5.406   9.551 -0.2572  0.8477  0.3653
 7651TIP3    H247149   4.935   5.430   9.426 -0.4924 -1.9860 -0.3962
 7652TIP3   OH247150   1.928   2.907   9.300  0.2197  0.2806 -0.5839
 7652TIP3    H147151   1.912   2.817   9.271 -0.1514  1.0291 -2.9689
 7652TIP3    H247152   1.891   2.912   9.388  0.1894 -1.8627 -0.4345
 7653TIP3   OH247153   5.949   5.169  10.942 -0.1410 -0.5599  0.6225
 7653TIP3    H147154   5.991   5.235  10.997 -0.8191 -0.5681  1.1594
 7653TIP3    H247155   5.859   5.201  10.930 -0.2853 -1.0545  0.3458
 7654TIP3   OH247156   3.288   0.296   9.739 -0.1166  0.2537  0.3872
 7654TIP3    H147157   3.200   0.306   9.702 -0.3555  0.0330  0.8908
 7654TIP3    H247158   3.338   0.252   9.670  0.2382  2.4243 -0.8289
 7655TIP3   OH247159   3.806   2.278   9.046 -0.6804  0.2409  0.5288
 7655TIP3    H147160   3.851   2.356   9.013 -0.5208  0.1391  0.5042
 7655TIP3    H247161   3.769   2.305   9.130 -1.3264  0.5870  0.1502
 7656TIP3   OH247162   4.051   5.381   9.661 -0.1178  0.4219  0.5578
 7656TIP3    H147163   3.969   5.426   9.642  0.3385  2.4354  2.8952
 7656TIP3    H247164   4.076   5.412   9.748  2.6875 -0.7845  0.2896
 7657TIP3   OH247165   1.289   2.526  10.147  0.1476 -0.0926 -0.2091
 7657TIP3    H147166   1.266   2.478  10.227  0.5695 -0.8380 -0.5200
 7657TIP3    H247167   1.375   2.492  10.123  0.1423  0.3201 -0.8356
 7658TIP3   OH247168   5.982   6.500   8.946  0.2641  0.0317 -0.5400
 7658TIP3    H147169   6.006   6.412   8.976 -0.2313 -0.0784 -0.4569
 7658TIP3    H247170   5.901   6.520   8.992  1.1052  1.1169  0.5251
 7659TIP3   OH247171   5.899   5.868   9.923  0.3203  0.3772  0.0973
 7659TIP3    H147172   5.971   5.859   9.860 -0.6359 -0.6241 -0.9025
 7659TIP3    H247173   5.820   5.858   9.870 -0.5164 -0.8164  1.5023
 7660TIP3   OH247174   7.943   0.974   9.505  0.4404  0.1580 -0.3598
 7660TIP3    H147175   8.033   0.943   9.515  0.2713  0.2190  2.0012
 7660TIP3    H247176   7.890   0.906   9.546 -0.3262  1.4229  0.8313
 7661TIP3   OH247177   6.092   7.251   9.480 -0.2277  0.7989  0.6951
 7661TIP3    H147178   5.997   7.241   9.484 -0.2211 -0.0867 -0.8679
 7661TIP3    H247179   6.119   7.250   9.572 -1.6099 -0.0614  1.1262
 7662TIP3   OH247180   0.257   6.997   8.731  0.8031 -0.2051 -0.0396
 7662TIP3    H147181   0.340   6.978   8.776  0.7634  0.7123  0.4458
 7662TIP3    H247182   0.216   6.911   8.720  0.1829 -0.4136  2.9433
 7663TIP3   OH247183   7.182   7.411   8.919  0.4667 -0.3723  0.1911
 7663TIP3    H147184   7.263   7.363   8.935 -0.6520 -1.9292  1.5989
 7663TIP3    H247185   7.200   7.466   8.843  2.8197 -0.6667  0.4830
 7664TIP3   OH247186   1.989   4.183   9.529 -0.0378 -0.5115  0.8064
 7664TIP3    H147187   1.911   4.177   9.586 -0.0467  0.8339  0.9688
 7664TIP3    H247188   1.958   4.153   9.443 -1.4828  2.3362  0.2134
 7665TIP3   OH247189   2.917   2.380  10.227  0.1398  0.4775  0.1268
 7665TIP3    H147190   2.982   2.393  10.158  0.2464  2.4505  0.5361
 7665TIP3    H247191   2.855   2.452  10.215 -0.2578  0.4100  1.6253
 7666TIP3   OH247192   5.693   1.765   9.829 -0.7470  0.2942 -0.3850
 7666TIP3    H147193   5.689   1.742   9.736 -0.6953 -0.0924 -0.2904
 7666TIP3    H247194   5.707   1.860   9.829 -3.0954  0.7153 -0.7747
 7667TIP3   OH247195   2.037   2.126   9.430 -0.1637  0.2204  0.0193
 7667TIP3    H147196   2.048   2.036   9.458  0.0255  0.0718 -0.5399
 7667TIP3    H247197   2.123   2.154   9.400 -0.4747  0.2119 -0.9068
 7668TIP3   OH247198   3.139   4.255   9.213 -0.0294  0.2483  0.7282
 7668TIP3    H147199   3.179   4.319   9.154  0.6940 -0.3418  0.5597
 7668TIP3    H247200   3.149   4.171   9.168  0.6133 -0.2287  1.7094
 7669TIP3   OH247201   5.254   7.408  10.398  0.0792  0.1721 -0.0581
 7669TIP3    H147202   5.266   7.381  10.489  0.3418 -0.2231 -0.2054
 7669TIP3    H247203   5.268   7.328  10.348 -3.7106 -0.5371 -0.2710
 7670TIP3   OH247204   1.415   5.411  10.880 -0.6622  0.2185 -0.0931
 7670TIP3    H147205   1.392   5.382  10.791 -0.8302  0.3280 -0.0842
 7670TIP3    H247206   1.366   5.352  10.938 -2.2184  1.4846 -0.0715
 7671TIP3   OH247207   2.895   1.068   9.358  0.8636 -0.3460  0.6858
 7671TIP3    H147208   2.934   1.130   9.420  1.5567 -0.5829  0.4994
 7671TIP3    H247209   2.807   1.054   9.390  1.1698 -0.3498  1.5351
 7672TIP3   OH247210   7.807   2.419  10.009  0.2911  0.0439 -0.0888
 7672TIP3    H147211   7.866   2.353   9.972 -1.0841 -0.8230 -0.7834
 7672TIP3    H247212   7.726   2.410   9.960 -0.4681  1.1601  0.9049
 7673TIP3   OH247213   0.494   4.449  10.801 -0.2543  0.3887  0.1090
 7673TIP3    H147214   0.480   4.458  10.707  1.8888 -0.5896 -0.3378
 7673TIP3    H247215   0.546   4.525  10.825 -0.0149  0.1550  0.3328
 7674TIP3   OH247216   3.329   8.257  10.617 -0.1439 -0.1046 -0.0745
 7674TIP3    H147217   3.339   8.239  10.710 -0.7796  1.3769  0.3205
 7674TIP3    H247218   3.414   8.290  10.589 -0.7695  2.5079  0.7931
 7675TIP3   OH247219   4.425   2.113  10.063 -0.4134  0.8854  0.6404
 7675TIP3    H147220   4.334   2.087  10.048 -0.3762  1.3628 -0.4743
 7675TIP3    H247221   4.424   2.208  10.058 -0.4026  1.1721  3.8516
 7676TIP3   OH247222   1.911   2.618   9.223  0.3417  0.6361  0.1624
 7676TIP3    H147223   1.987   2.660   9.182  0.2235  1.5193  0.8252
 7676TIP3    H247224   1.949   2.566   9.294  0.5573 -0.9812 -1.0859
 7677TIP3   OH247225   0.253   7.958  11.119  0.0601  0.1030 -0.3909
 7677TIP3    H147226   0.221   7.903  11.047  1.6081 -1.0560 -0.2517
 7677TIP3    H247227   0.229   7.911  11.198 -0.7247  0.8620 -0.1634
 7678TIP3   OH247228   4.837   8.325   9.016 -0.0674  0.0435 -0.8119
 7678TIP3    H147229   4.922   8.326   9.061 -0.5853 -0.9703  0.2454
 7678TIP3    H247230   4.793   8.247   9.051 -1.3628  0.4555 -1.4860
 7679TIP3   OH247231   4.343   0.941   9.628  0.4422 -0.3640  0.2873
 7679TIP3    H147232   4.340   0.865   9.686 -1.7728 -0.7170 -0.1897
 7679TIP3    H247233   4.415   0.921   9.567  0.1668 -1.8971  0.4139
 7680TIP3   OH247234   0.337   5.798   9.125 -0.3072 -0.0861 -0.1806
 7680TIP3    H147235   0.323   5.892   9.139  1.1816 -0.0934  1.9344
 7680TIP3    H247236   0.261   5.756   9.165 -0.6819  0.2166 -0.5793
 7681TIP3   OH247237   0.934   7.988  10.919  0.0509 -0.0264  0.0169
 7681TIP3    H147238   0.894   7.905  10.943 -0.2777 -0.1345 -0.8880
 7681TIP3    H247239   1.028   7.975  10.931 -0.1249  0.1717  1.9836
 7682TIP3   OH247240   5.035   3.881   9.017  0.0452 -0.4240 -0.0759
 7682TIP3    H147241   4.982   3.938   8.961  0.6407  0.3413  0.1191
 7682TIP3    H247242   5.013   3.792   8.989 -1.9756 -0.1769  0.5730
 7683TIP3   OH247243   2.147   7.242   9.836  0.1971  0.0424 -0.1680
 7683TIP3    H147244   2.089   7.241   9.912  1.3168 -1.6378  0.7474
 7683TIP3    H247245   2.232   7.214   9.871  0.9976  0.2459 -1.8559
 7684TIP3   OH247246   8.158   2.384  10.649 -0.5426  0.8879 -0.6625
 7684TIP3    H147247   8.203   2.309  10.609  1.5968  1.0735  1.1671
 7684TIP3    H247248   8.112   2.347  10.724  1.0246  1.4174  0.6113
 7685TIP3   OH247249   4.910   1.297   9.458  0.4157  0.2713 -0.2015
 7685TIP3    H147250   4.963   1.287   9.537  0.1020 -2.5835 -0.2432
 7685TIP3    H247251   4.842   1.359   9.482  0.7558  0.0168  1.5327
 7686TIP3   OH247252   1.706   2.073   8.494 -0.3937  0.1074 -0.0228
 7686TIP3    H147253   1.788   2.103   8.455 -0.0562 -0.0761  0.5204
 7686TIP3    H247254   1.665   2.152   8.528 -1.4036  0.4781 -2.0064
 7687TIP3   OH247255   6.167   6.296   8.756 -0.1120 -0.4630 -0.2088
 7687TIP3    H147256   6.080   6.294   8.715  0.1760  0.2208 -0.8740
 7687TIP3    H247257   6.191   6.204   8.766  0.0105 -0.6686 -2.0488
 7688TIP3   OH247258   1.279   5.464   9.160 -0.4193  0.8046 -0.0641
 7688TIP3    H147259   1.343   5.527   9.124  0.3145 -0.3789 -0.9073
 7688TIP3    H247260   1.313   5.379   9.134 -0.0692 -0.1396  3.1393
 7689TIP3   OH247261   0.383   7.358   9.717  0.3528  0.3080  0.0137
 7689TIP3    H147262   0.461   7.353   9.772 -0.9336 -0.1363  1.8783
 7689TIP3    H247263   0.323   7.415   9.765 -1.0190 -0.5257 -0.6434
 7690TIP3   OH247264   6.108   0.387  11.069  0.3442 -0.5638  0.3557
 7690TIP3    H147265   6.030   0.334  11.053  1.1922 -2.3028  1.6872
 7690TIP3    H247266   6.074   0.475  11.083 -1.2189 -0.9512 -0.7113
 7691TIP3   OH247267   0.111   4.555   8.807 -0.4893  0.5800  0.1934
 7691TIP3    H147268   0.105   4.480   8.866 -0.4383  0.5550  0.1677
 7691TIP3    H247269   0.021   4.574   8.782 -0.4522  0.0680 -0.3704
 7692TIP3   OH247270   3.468   7.258   8.891 -0.0443 -0.3781  0.4658
 7692TIP3    H147271   3.550   7.301   8.867  0.4215 -0.5727  1.6210
 7692TIP3    H247272   3.493   7.195   8.959 -1.3606  0.6723  2.0198
 7693TIP3   OH247273   3.989   2.877  14.839  0.3644  1.0014  0.3141
 7693TIP3    H147274   4.015   2.969  14.845  2.4109  0.3899  1.6552
 7693TIP3    H247275   4.041   2.842  14.767 -1.5688  1.1873 -1.2622
 7694TIP3   OH247276   5.525   4.113   9.860 -0.4400  0.0486  0.0089
 7694TIP3    H147277   5.528   4.086   9.952 -1.2835 -2.8859 -0.6997
 7694TIP3    H247278   5.482   4.198   9.861  0.8272  0.7325  2.4219
 7695TIP3   OH247279   3.526   5.491  10.218  0.0057  0.4019  0.0267
 7695TIP3    H147280   3.496   5.520  10.304  0.4537 -0.3514  0.4398
 7695TIP3    H247281   3.446   5.465  10.173 -0.0603 -1.1148  0.9476
 7696TIP3   OH247282   3.658   2.002   8.667  0.1183  0.2344 -0.5056
 7696TIP3    H147283   3.641   2.076   8.726  0.4861  1.2743 -1.6595
 7696TIP3    H247284   3.747   1.974   8.688 -0.4381 -0.6695  0.7434
 7697TIP3   OH247285   2.535   5.340  10.112  0.2038 -0.3738 -0.0430
 7697TIP3    H147286   2.624   5.337  10.147 -0.2121 -1.4113  0.9904
 7697TIP3    H247287   2.508   5.431  10.125  0.9604 -0.1437  0.0062
 7698TIP3   OH247288   5.885   7.701   9.528  0.4324  0.2118 -0.0010
 7698TIP3    H147289   5.836   7.672   9.452  0.6588  1.7906 -0.7950
 7698TIP3    H247290   5.821   7.746   9.583  0.8556  2.0930 -0.9405
 7699TIP3   OH247291   0.430   2.438   8.800  0.1007 -0.3380  0.2778
 7699TIP3    H147292   0.442   2.532   8.806 -1.6423 -0.0058 -0.7459
 7699TIP3    H247293   0.352   2.420   8.852  0.3753 -1.2133  0.4105
 7700TIP3   OH247294   8.357   3.269  10.192 -0.2476 -0.4964 -0.2930
 7700TIP3    H147295   8.418   3.232  10.255 -0.7258 -0.5202  0.1659
 7700TIP3    H247296   8.403   3.265  10.108  1.3244  1.7041  0.3860
 7701TIP3   OH247297   1.372   2.196   9.378 -0.4528 -0.2033  0.1499
 7701TIP3    H147298   1.429   2.271   9.394 -0.6368 -0.0342  0.0291
 7701TIP3    H247299   1.391   2.170   9.288 -2.1904  1.3151 -0.7521
 7702TIP3   OH247300   6.685   2.518  10.390 -0.3803  0.5591  0.2724
 7702TIP3    H147301   6.757   2.568  10.352 -0.0382  0.1375  0.3716
 7702TIP3    H247302   6.726   2.439  10.426 -1.1277 -0.5490 -1.2286
 7703TIP3   OH247303   5.481   3.432  10.437  0.1451 -0.2279  0.1428
 7703TIP3    H147304   5.485   3.364  10.505 -0.0731 -0.9507 -0.5598
 7703TIP3    H247305   5.390   3.459  10.436  0.5732  1.5002  1.7739
 7704TIP3   OH247306   7.770   1.140   9.368 -0.1278  0.3112  0.3987
 7704TIP3    H147307   7.790   1.111   9.279 -0.5265 -0.5389  0.5807
 7704TIP3    H247308   7.837   1.098   9.422 -0.6158 -0.1528  0.6449
 7705TIP3   OH247309   0.957   6.994   9.159  0.0294  0.0042 -0.1529
 7705TIP3    H147310   0.904   6.950   9.092 -0.9972 -1.3854  1.5061
 7705TIP3    H247311   1.008   6.924   9.199  0.5099  0.7923  0.6392
 7706TIP3   OH247312   2.822   1.820   8.504 -0.0950 -0.2246 -0.0272
 7706TIP3    H147313   2.810   1.767   8.426 -1.0838  0.0682 -0.0838
 7706TIP3    H247314   2.842   1.757   8.573 -0.5205 -0.6104 -0.2483
 7707TIP3   OH247315   5.119   5.357  10.125 -0.1277  0.3076  0.1445
 7707TIP3    H147316   5.179   5.300  10.078 -0.1714 -1.4239  2.0679
 7707TIP3    H247317   5.056   5.297  10.166 -2.1777  1.9529 -0.4044
 7708TIP3   OH247318   6.865   0.370   9.578  0.0614 -0.5238 -0.1471
 7708TIP3    H147319   6.818   0.452   9.588 -0.8339 -1.0461 -0.0028
 7708TIP3    H247320   6.819   0.308   9.635  1.1733 -0.9510  0.3358
 7709TIP3   OH247321   0.287   5.161  10.780  0.3341 -0.0091 -0.1166
 7709TIP3    H147322   0.229   5.197  10.713 -0.1092 -0.5380 -0.0266
 7709TIP3    H247323   0.341   5.234  10.807 -0.6621  0.6367  0.1858
 7710TIP3   OH247324   7.686   4.299   8.792 -0.4537 -0.4025  0.3789
 7710TIP3    H147325   7.593   4.294   8.773 -0.6429 -0.0326  1.1651
 7710TIP3    H247326   7.722   4.216   8.761 -1.3528 -1.3521  1.7340
 7711TIP3   OH247327   4.718   4.999   8.767 -0.2984 -0.0718  0.2041
 7711TIP3    H147328   4.668   4.986   8.686  0.4497 -1.3853 -0.0741
 7711TIP3    H247329   4.677   4.939   8.830  0.1270 -0.2367  0.3285
 7712TIP3   OH247330   2.978   5.481   9.493 -0.2722 -0.3877  0.7203
 7712TIP3    H147331   2.978   5.474   9.398 -1.1420  0.4057  0.6521
 7712TIP3    H247332   3.054   5.536   9.514 -0.4432 -0.0493  0.4440
 7713TIP3   OH247333   7.615   3.661   8.878  1.1776 -0.0297 -0.2497
 7713TIP3    H147334   7.609   3.572   8.913  1.6846 -0.2609 -0.7529
 7713TIP3    H247335   7.579   3.716   8.948 -1.3740 -0.8206 -0.8073
 7714TIP3   OH247336   4.545   1.881   9.986  0.5627  0.7404  0.1905
 7714TIP3    H147337   4.503   1.958  10.023  2.0767  2.9989 -2.3900
 7714TIP3    H247338   4.497   1.863   9.905  0.4540 -0.8234  0.5771
 7715TIP3   OH247339   5.102   6.646   9.196 -0.0692  0.1321 -0.0776
 7715TIP3    H147340   5.116   6.644   9.101 -2.0843  2.2404 -0.5107
 7715TIP3    H247341   5.023   6.594   9.209  0.1398 -0.0566  0.4627
 7716TIP3   OH247342   7.185   3.245  10.075  0.2621 -0.2186  0.3881
 7716TIP3    H147343   7.128   3.193  10.132 -0.1009  0.8429  1.0333
 7716TIP3    H247344   7.245   3.182  10.037  0.0184 -1.0744  1.3620
 7717TIP3   OH247345   1.185   5.173   9.933  0.2303 -0.1561 -0.3831
 7717TIP3    H147346   1.123   5.200   9.866  0.9973  0.7513 -0.7520
 7717TIP3    H247347   1.268   5.165   9.886  0.7909  0.5364  0.4580
 7718TIP3   OH247348   1.641   4.996   9.783 -0.6089  0.5221 -0.2184
 7718TIP3    H147349   1.736   5.001   9.772 -0.8592  1.1353 -2.9636
 7718TIP3    H247350   1.622   4.903   9.791 -0.0089 -0.1465 -4.2315
 7719TIP3   OH247351   3.132   6.208  10.030  0.0884 -0.1976 -0.1938
 7719TIP3    H147352   3.103   6.118  10.014 -1.2737  0.1774  0.1219
 7719TIP3    H247353   3.095   6.231  10.115  1.3172  0.3126  0.2339
 7720TIP3   OH247354   3.244   3.995  10.341  0.5834 -0.0692  0.0342
 7720TIP3    H147355   3.323   3.979  10.391 -0.4336 -1.1217  1.3828
 7720TIP3    H247356   3.182   4.032  10.405 -0.8716 -1.7849 -0.3090
 7721TIP3   OH247357   6.414   3.200   9.374  0.1944 -0.4155  0.0280
 7721TIP3    H147358   6.440   3.246   9.454  0.5970 -0.6046  0.0061
 7721TIP3    H247359   6.443   3.256   9.302 -0.9882  0.2103  0.0093
 7722TIP3   OH247360   5.927   3.615   9.428 -0.5524  0.4093 -0.1689
 7722TIP3    H147361   5.952   3.526   9.451 -1.0986 -0.7681 -3.5688
 7722TIP3    H247362   5.832   3.612   9.419 -0.3583  0.5182 -2.9757
 7723TIP3   OH247363   5.440   4.999   9.672 -0.2468 -0.4508 -0.0423
 7723TIP3    H147364   5.514   4.960   9.626 -1.1003 -0.7996 -1.1589
 7723TIP3    H247365   5.476   5.026   9.757  0.9224 -1.4988 -0.1752
 7724TIP3   OH247366   6.982   8.230   9.197 -0.0833 -0.1040 -0.2803
 7724TIP3    H147367   6.964   8.164   9.264  0.2601  0.8159  0.7328
 7724TIP3    H247368   6.902   8.231   9.143 -0.7504 -0.1839  0.6800
 7725TIP3   OH247369   7.144   5.199   9.824 -0.0833 -0.3353 -0.3048
 7725TIP3    H147370   7.096   5.118   9.838 -0.3003 -0.2833 -0.7251
 7725TIP3    H247371   7.077   5.263   9.800 -0.2946  0.6463  2.4891
 7726TIP3   OH247372   8.159   2.070  10.026  0.4768 -0.4197 -0.3406
 7726TIP3    H147373   8.086   2.056   9.965 -0.3898  0.4036  0.4735
 7726TIP3    H247374   8.134   2.020  10.104 -0.6879  2.1774  1.0597
 7727TIP3   OH247375   1.767   2.026   8.909 -0.1439 -0.1736  0.0153
 7727TIP3    H147376   1.854   2.061   8.891 -0.4065  0.8340  0.6256
 7727TIP3    H247377   1.752   2.045   9.001 -0.5229 -1.4566  0.2479
 7728TIP3   OH247378   2.065   3.465  10.681 -0.2868 -0.5558 -0.0854
 7728TIP3    H147379   2.126   3.538  10.683  0.4994 -1.1247 -1.6516
 7728TIP3    H247380   1.980   3.504  10.702  0.1166  0.8052 -0.8617
 7729TIP3   OH247381   1.994   0.149  10.296  0.0509  0.1981 -0.0272
 7729TIP3    H147382   1.955   0.232  10.325 -0.5838  0.1644 -0.7542
 7729TIP3    H247383   1.946   0.082  10.344  0.9018  0.2613  0.9379
 7730TIP3   OH247384   5.221   4.152   8.932  0.2498  0.0531  0.1856
 7730TIP3    H147385   5.300   4.205   8.921  0.3557  0.0219  0.7931
 7730TIP3    H247386   5.154   4.213   8.963 -0.4143  0.4155 -1.7778
 7731TIP3   OH247387   5.870   8.131  10.970 -0.1466  0.1445  0.0087
 7731TIP3    H147388   5.783   8.137  10.930  0.3607 -1.0710 -1.3340
 7731TIP3    H247389   5.901   8.043  10.949  1.5377  0.6515  0.2101
 7732TIP3   OH247390   0.364   5.704  10.471 -0.4966  0.1235  0.2634
 7732TIP3    H147391   0.450   5.677  10.504 -0.3671 -2.8409 -2.0716
 7732TIP3    H247392   0.384   5.762  10.398 -0.3950 -0.9811 -0.6144
 7733TIP3   OH247393   4.485   2.751   8.988 -0.6576  0.1945  0.0932
 7733TIP3    H147394   4.484   2.656   9.001  0.9016  0.0228 -0.7917
 7733TIP3    H247395   4.485   2.762   8.893  0.6829  1.0297  0.1643
 7734TIP3   OH247396   3.434   6.966   9.771 -0.0711  0.4624  0.1000
 7734TIP3    H147397   3.396   7.037   9.719 -0.8576  0.0530  0.0998
 7734TIP3    H247398   3.466   7.008   9.850  1.2354  1.1095 -0.7595
 7735TIP3   OH247399   3.618   3.522   8.744 -0.0908  0.1540  0.3339
 7735TIP3    H147400   3.605   3.608   8.705 -1.4286 -0.6491 -1.0755
 7735TIP3    H247401   3.704   3.528   8.787  0.0719  2.0012 -0.1687
 7736TIP3   OH247402   4.428   5.687   9.460 -0.1809 -0.1743  0.3564
 7736TIP3    H147403   4.495   5.741   9.416  1.9461 -2.8927 -0.0524
 7736TIP3    H247404   4.364   5.669   9.392 -0.0841  0.5368  0.0651
 7737TIP3   OH247405   5.098   4.428   9.078  0.3203 -0.4990 -0.5336
 7737TIP3    H147406   5.075   4.502   9.022  0.7862 -0.3000 -0.4633
 7737TIP3    H247407   5.178   4.456   9.122 -0.0754 -0.6239  0.2808
 7738TIP3   OH247408   6.128   5.279   9.372 -0.0759 -0.7714  0.4677
 7738TIP3    H147409   6.141   5.294   9.278 -0.4309 -1.3010  0.3289
 7738TIP3    H247410   6.182   5.346   9.415 -2.7522  1.9600 -0.0953
 7739TIP3   OH247411   5.999   5.120   9.754  0.2482 -0.1601 -0.0499
 7739TIP3    H147412   5.927   5.118   9.817 -0.2220 -1.5577 -0.6014
 7739TIP3    H247413   5.980   5.197   9.699 -0.0238  0.3245  0.6959
 7740TIP3   OH247414   3.918   6.049   8.939  0.0854  0.1391 -0.2528
 7740TIP3    H147415   3.976   5.994   8.885  0.5245  1.0488 -0.7357
 7740TIP3    H247416   3.971   6.125   8.960 -0.1682 -0.0861  1.2918
 7741TIP3   OH247417   0.238   4.312  10.605  0.1514  0.1861 -0.1096
 7741TIP3    H147418   0.276   4.259  10.675 -2.7350  0.1736  1.5611
 7741TIP3    H247419   0.310   4.370  10.578  1.9531 -1.2391  1.3524
 7742TIP3   OH247420   1.048   1.967  10.770 -0.0747 -0.1960 -0.1538
 7742TIP3    H147421   1.041   1.881  10.811  1.0187 -0.5579 -0.6749
 7742TIP3    H247422   1.133   2.001  10.798  0.1905  0.0428 -1.1773
 7743TIP3   OH247423   5.061   6.144  10.498  0.1552 -0.1870 -0.5802
 7743TIP3    H147424   4.995   6.179  10.438 -0.9965  0.9489  1.2831
 7743TIP3    H247425   5.059   6.049  10.482 -1.0810 -0.0499 -1.3706
 7744TIP3   OH247426   1.706   0.689   8.726 -0.3964  0.1249  0.3986
 7744TIP3    H147427   1.685   0.626   8.656  0.0868 -1.0658  1.3062
 7744TIP3    H247428   1.782   0.737   8.693 -1.5779  1.2086 -0.8828
 7745TIP3   OH247429   1.764   2.988  10.887 -0.7888 -0.1641 -0.4489
 7745TIP3    H147430   1.672   2.987  10.860 -0.8131  1.8455 -0.5971
 7745TIP3    H247431   1.793   3.078  10.870  0.8647 -0.4329  0.7212
 7746TIP3   OH247432   7.679   1.014   9.690  0.5325  0.1964 -0.1125
 7746TIP3    H147433   7.663   1.100   9.651  1.0857  0.0847 -0.5928
 7746TIP3    H247434   7.628   0.953   9.637 -0.5013  0.3050  0.7073
 7747TIP3   OH247435   4.893   2.890  10.117 -0.0500  0.2449  0.1736
 7747TIP3    H147436   4.872   2.926  10.203 -1.3101  0.9389 -0.3897
 7747TIP3    H247437   4.952   2.955  10.079  0.9392 -0.3255  0.6957
 7748TIP3   OH247438   4.047   2.466  10.532 -0.1938 -0.1420 -0.3314
 7748TIP3    H147439   3.982   2.418  10.584  0.7239 -0.6899  0.3549
 7748TIP3    H247440   4.099   2.397  10.490  0.2634  0.2737 -0.4574
 7749TIP3   OH247441   2.431   6.718  10.482 -0.2077 -0.1947  0.6224
 7749TIP3    H147442   2.496   6.781  10.513  0.2623 -0.6130  0.4923
 7749TIP3    H247443   2.358   6.728  10.544 -0.6851  1.3664 -0.1207
 7750TIP3   OH247444   2.650   5.743  10.071 -0.5456 -0.1252 -0.5524
 7750TIP3    H147445   2.578   5.697  10.115 -2.0913 -0.0974 -2.8809
 7750TIP3    H247446   2.610   5.822  10.035  1.0430  0.7222 -0.5514
 7751TIP3   OH247447   5.613   7.912  10.480  0.0789  0.2210 -0.0388
 7751TIP3    H147448   5.550   7.984  10.476 -0.7303 -0.2502  2.2712
 7751TIP3    H247449   5.606   7.868  10.395 -1.9488  0.8213 -0.2362
 7752TIP3   OH247450   3.067   8.327  10.537 -0.1063 -0.1024 -0.4864
 7752TIP3    H147451   3.051   8.241  10.499  0.7670 -0.1866 -0.6744
 7752TIP3    H247452   3.151   8.318  10.582 -0.8964  0.1132  1.0981
 7753TIP3   OH247453   3.893   6.999   9.999 -0.0506  0.1739 -0.5097
 7753TIP3    H147454   3.834   6.938  10.042 -0.7487  0.4434 -1.0570
 7753TIP3    H247455   3.974   6.950   9.985 -0.4592 -0.4910 -0.5652
 7754TIP3   OH247456   1.723   6.212  10.807 -0.2990 -0.5401 -0.0063
 7754TIP3    H147457   1.760   6.247  10.889 -0.2282 -0.2620 -0.1534
 7754TIP3    H247458   1.798   6.210  10.747 -0.6374  0.6380 -0.5058
 7755TIP3   OH247459   0.362   0.022   8.865 -0.6346 -0.3655 -0.3423
 7755TIP3    H147460   0.454   0.001   8.851 -0.8190 -1.0443 -0.5715
 7755TIP3    H247461   0.342   0.085   8.795 -0.1920  0.2558  0.0830
 7756TIP3   OH247462   1.524   0.072   8.825  0.0610  0.3941 -0.4081
 7756TIP3    H147463   1.467   0.148   8.811 -0.4199  0.4869  1.7021
 7756TIP3    H247464   1.466  -0.003   8.820 -0.3464  0.4919  1.7962
 7757TIP3   OH247465   1.612   7.571   8.889 -0.0935  0.2700  0.3347
 7757TIP3    H147466   1.632   7.606   8.802 -0.7415 -0.5488 -0.1708
 7757TIP3    H247467   1.536   7.621   8.919 -0.2578  0.1301  0.1536
 7758TIP3   OH247468   2.761   0.594  10.807 -0.2437  0.5820  0.2911
 7758TIP3    H147469   2.686   0.651  10.819 -0.6964  0.1999 -0.6166
 7758TIP3    H247470   2.828   0.650  10.768  0.6227  1.3867  2.7798
 7759TIP3   OH247471   4.624   0.103   9.943  0.2032  0.2098 -0.2473
 7759TIP3    H147472   4.587   0.088   9.856  0.1288  0.4099 -0.2514
 7759TIP3    H247473   4.713   0.068   9.937 -0.2027 -0.8909 -0.0298
 7760TIP3   OH247474   2.292   1.640   9.805 -0.3150  0.2306  0.4157
 7760TIP3    H147475   2.379   1.643   9.765 -1.0222  1.1458 -1.1535
 7760TIP3    H247476   2.282   1.550   9.835  0.5339 -0.3192 -0.8815
 7761TIP3   OH247477   1.720   0.622   9.165  0.0497 -0.0376 -0.4984
 7761TIP3    H147478   1.690   0.685   9.100  1.5610  0.4551 -0.7484
 7761TIP3    H247479   1.770   0.557   9.115  0.1586 -0.3556  0.0072
 7762TIP3   OH247480   5.740   0.192   8.911  0.1551  1.1091  0.0404
 7762TIP3    H147481   5.663   0.164   8.961 -0.0378  0.7801 -0.4304
 7762TIP3    H247482   5.756   0.281   8.941 -0.2808  1.1051  0.3044
 7763TIP3   OH247483   4.003   1.165  10.471  0.4906  0.6367 -0.4802
 7763TIP3    H147484   4.021   1.072  10.485  2.5844  0.9456 -0.7764
 7763TIP3    H247485   4.026   1.180  10.379  1.4935  1.6957 -0.0819
 7764TIP3   OH247486   7.641   1.618   9.462 -0.0648 -0.3942  0.0148
 7764TIP3    H147487   7.629   1.547   9.400 -1.5946 -0.6760  0.5940
 7764TIP3    H247488   7.572   1.605   9.528 -1.0988  2.1890 -0.4226
 7765TIP3   OH247489   3.483   4.509   9.531 -0.3708  0.1735  0.1144
 7765TIP3    H147490   3.471   4.579   9.595 -1.6098 -0.7032  0.9055
 7765TIP3    H247491   3.564   4.465   9.558 -0.3021  0.4831  0.4128
 7766TIP3   OH247492   0.433   7.815  10.327  0.6954  0.5635  0.0909
 7766TIP3    H147493   0.444   7.873  10.401 -2.6724  1.3801  0.1252
 7766TIP3    H247494   0.368   7.858  10.271  0.2996 -1.7555 -1.4151
 7767TIP3   OH247495   7.980   0.909  11.164  0.2351 -0.1069  0.3365
 7767TIP3    H147496   8.000   0.831  11.114 -1.3524 -1.7670  2.1059
 7767TIP3    H247497   8.042   0.907  11.237  0.3603  0.4409  0.2479
 7768TIP3   OH247498   2.663   2.521   9.626  0.0080  0.3297  0.4702
 7768TIP3    H147499   2.641   2.613   9.645  0.0194  0.4170  0.0720
 7768TIP3    H247500   2.714   2.492   9.702  0.4976  0.8230  0.3276
 7769TIP3   OH247501   7.991   5.842  10.094  0.2019  0.1395  0.1447
 7769TIP3    H147502   8.014   5.766  10.147 -2.8560 -0.8882  0.1867
 7769TIP3    H247503   8.015   5.817  10.005 -0.3081 -0.6757  0.2300
 7770TIP3   OH247504   4.017   4.195   9.223 -0.2298 -0.7526  0.3222
 7770TIP3    H147505   3.961   4.267   9.253 -0.5591 -0.4443 -0.9731
 7770TIP3    H247506   4.096   4.203   9.276 -0.6131  0.0211  0.8065
 7771TIP3   OH247507   4.706   7.595   9.959  0.3761 -0.4134 -0.3628
 7771TIP3    H147508   4.612   7.606   9.976  0.3340  0.4272 -1.1048
 7771TIP3    H247509   4.741   7.560  10.041 -0.4964 -0.1963  0.1131
 7772TIP3   OH247510   7.618   1.545  10.115  0.0759 -0.2348 -0.4285
 7772TIP3    H147511   7.567   1.469  10.144 -0.4835 -0.6528 -2.3321
 7772TIP3    H247512   7.634   1.596  10.194  0.6978 -2.4571  0.9826
 7773TIP3   OH247513   0.708   7.173   8.989  0.4937  0.0628 -0.3097
 7773TIP3    H147514   0.768   7.103   8.963 -0.2020 -0.7984  0.3542
 7773TIP3    H247515   0.674   7.145   9.074  1.6271  2.1238  0.9026
 7774TIP3   OH247516   1.803   1.133   9.651  0.0098  0.4656  0.8353
 7774TIP3    H147517   1.762   1.092   9.728 -0.5905  0.8173  0.7152
 7774TIP3    H247518   1.851   1.062   9.609  0.6017  0.3329  1.7012
 7775TIP3   OH247519   6.616   8.269   9.941 -0.4960 -0.3116  0.1618
 7775TIP3    H147520   6.549   8.337   9.929 -1.0298 -0.5811  1.4423
 7775TIP3    H247521   6.614   8.219   9.859 -1.3655  0.1099 -0.0948
 7776TIP3   OH247522   4.311   1.605   9.079 -0.0496  0.4272 -0.2124
 7776TIP3    H147523   4.366   1.630   9.005 -0.3641  0.5570 -0.4041
 7776TIP3    H247524   4.239   1.668   9.078 -0.5255 -0.1137 -0.3350
 7777TIP3   OH247525   2.106   0.749  10.183 -0.3130  0.2539 -0.4340
 7777TIP3    H147526   2.064   0.798  10.254 -0.5214 -0.6239  0.0583
 7777TIP3    H247527   2.200   0.763  10.197 -0.3840  1.1255 -0.7503
 7778TIP3   OH247528   7.346   3.084  10.592 -0.3039  0.1865 -0.2605
 7778TIP3    H147529   7.255   3.059  10.577  0.2861 -0.8975 -2.4951
 7778TIP3    H247530   7.350   3.105  10.685 -2.1475 -2.9324  0.6933
 7779TIP3   OH247531   4.922   3.508   9.977  0.1564 -0.3840  0.0430
 7779TIP3    H147532   4.886   3.432   9.931 -1.4066 -0.7508  1.7268
 7779TIP3    H247533   4.850   3.571   9.978  1.5352  1.3233 -1.6050
 7780TIP3   OH247534   0.167   7.934  10.235  0.2218  0.1681 -1.1237
 7780TIP3    H147535   0.125   7.881  10.167 -0.5243  1.2725 -1.5578
 7780TIP3    H247536   0.158   8.024  10.204  0.1591  0.6739  0.2823
 7781TIP3   OH247537   3.567   2.312   9.732  0.0969 -0.1178  0.2963
 7781TIP3    H147538   3.571   2.250   9.804 -0.6224  1.0628  1.4112
 7781TIP3    H247539   3.474   2.337   9.728 -0.0938 -0.9517 -1.7697
 7782TIP3   OH247540   5.213   5.203   8.881 -0.5698 -0.3888 -0.1228
 7782TIP3    H147541   5.122   5.231   8.872 -0.2446  0.6565 -0.2570
 7782TIP3    H247542   5.255   5.272   8.933  0.4777 -0.0874 -1.3124
 7783TIP3   OH247543   6.764   6.835   8.916 -0.1497 -0.0944 -0.0888
 7783TIP3    H147544   6.753   6.908   8.855 -3.2116  0.0224  0.4288
 7783TIP3    H247545   6.675   6.803   8.932  0.8692 -2.4263  1.5626
 7784TIP3   OH247546   6.496   8.008  10.441  0.1265 -0.0801 -0.5974
 7784TIP3    H147547   6.558   8.067  10.482 -0.4612  1.3789 -1.7113
 7784TIP3    H247548   6.546   7.965  10.371  1.4564 -3.4345  2.1190
 7785TIP3   OH247549   5.192   0.372   9.164 -0.2746 -0.1072  0.4479
 7785TIP3    H147550   5.237   0.443   9.210  1.7083 -0.2587 -1.1056
 7785TIP3    H247551   5.186   0.402   9.073 -0.2830 -1.5146 -0.0470
 7786TIP3   OH247552   2.616   2.342  10.521  0.7888  0.5074 -0.6237
 7786TIP3    H147553   2.583   2.401  10.589 -2.5132 -2.7114  0.8862
 7786TIP3    H247554   2.608   2.393  10.440 -0.3028  2.6786  0.7338
 7787TIP3   OH247555   4.533   1.558   9.254  0.0640 -0.5360  0.4397
 7787TIP3    H147556   4.450   1.548   9.208  0.4633 -1.1874 -0.1667
 7787TIP3    H247557   4.509   1.563   9.347 -0.6969  0.0344  0.2133
 7788TIP3   OH247558   5.829   6.802   9.206 -0.0696  0.2409  0.3070
 7788TIP3    H147559   5.768   6.737   9.240  0.2945  0.3846  1.2684
 7788TIP3    H247560   5.788   6.835   9.126  0.3035 -2.0278 -0.8990
 7789TIP3   OH247561   4.447   7.849   9.860 -0.3516  0.1141  0.0330
 7789TIP3    H147562   4.430   7.891   9.775 -0.6762  0.0593  0.0663
 7789TIP3    H247563   4.526   7.890   9.893  0.5664 -0.8141 -0.9193
 7790TIP3   OH247564   6.544   2.939   9.416 -0.1753 -0.1782 -0.0984
 7790TIP3    H147565   6.583   3.024   9.436  0.8252 -0.5164 -0.5682
 7790TIP3    H247566   6.603   2.900   9.352 -0.3798 -1.4052  0.4323
 7791TIP3   OH247567   3.961   2.809   9.666 -0.6619  0.2363  0.1714
 7791TIP3    H147568   3.931   2.864   9.593  0.5849 -0.7143 -1.1260
 7791TIP3    H247569   3.915   2.844   9.742 -0.3387  2.7259 -0.6684
 7792TIP3   OH247570   7.480   7.689   9.998  0.2078  0.1961  0.1994
 7792TIP3    H147571   7.560   7.721   9.955  0.6341 -1.5813 -0.4022
 7792TIP3    H247572   7.463   7.604   9.957 -1.3482  0.0214  1.1399
 7793TIP3   OH247573   8.414   6.391   9.055  0.5494 -0.0270  0.2972
 7793TIP3    H147574   8.330   6.346   9.056 -0.9594  2.5615  1.2785
 7793TIP3    H247575   8.404   6.459   8.988  2.2240 -0.2781 -0.2361
 7794TIP3   OH247576   0.880   6.988   9.746  0.2191 -0.1857 -0.3760
 7794TIP3    H147577   0.809   6.926   9.730 -0.4504  0.1300  1.2097
 7794TIP3    H247578   0.880   7.000   9.841  0.9462  1.5300 -0.5641
 7795TIP3   OH247579   4.005   3.695  10.092  0.0760 -0.4463 -0.4671
 7795TIP3    H147580   3.992   3.760  10.161  0.8223  0.0969 -0.8276
 7795TIP3    H247581   3.918   3.682  10.054 -0.3081 -0.6085  0.4334
 7796TIP3   OH247582   7.518   4.467   9.794  1.3110 -0.0770  0.6464
 7796TIP3    H147583   7.423   4.478   9.805  1.3876  0.9117  0.4411
 7796TIP3    H247584   7.539   4.392   9.849  0.2707 -0.8841 -0.0220
 7797TIP3   OH247585   0.327   0.712  10.045 -0.3107  0.5519  0.4469
 7797TIP3    H147586   0.369   0.663  10.116  0.1503 -1.2316 -0.9811
 7797TIP3    H247587   0.276   0.779  10.090  0.3124 -0.2209  2.4451
 7798TIP3   OH247588   5.944   7.887  10.917 -0.5056  0.5026  0.5230
 7798TIP3    H147589   5.929   7.886  10.823 -1.0914 -1.0482  0.6001
 7798TIP3    H247590   6.012   7.821  10.932 -1.3430 -0.2308  1.2871
 7799TIP3   OH247591   6.593   6.421  10.481  0.0731 -0.0900  0.6520
 7799TIP3    H147592   6.619   6.436  10.572  0.3560  0.5623  0.4747
 7799TIP3    H247593   6.585   6.326  10.473  1.3883 -0.2543  1.0100
 7800TIP3   OH247594   6.064   2.468  10.127 -0.0567  0.0929 -0.0087
 7800TIP3    H147595   6.001   2.473  10.199  0.0210 -0.7263  0.1275
 7800TIP3    H247596   6.060   2.377  10.097  1.6162 -0.1901  0.5126
 7801TIP3   OH247597   1.283   8.231  10.245  0.2157 -0.5882 -0.2584
 7801TIP3    H147598   1.337   8.301  10.282  0.5048 -1.1422  0.3769
 7801TIP3    H247599   1.340   8.188  10.182  0.5207 -1.1566  0.3940
 7802TIP3   OH247600   0.095   4.936   9.613  0.0793  0.0124  0.2618
 7802TIP3    H147601   0.036   4.868   9.645  1.0097 -1.8590 -1.7822
 7802TIP3    H247602   0.037   5.010   9.593 -1.3568 -1.1313 -0.0197
 7803TIP3   OH247603   2.256   7.235   9.346 -0.0835 -0.0813  0.3217
 7803TIP3    H147604   2.243   7.330   9.345 -0.0698 -0.0834 -0.3183
 7803TIP3    H247605   2.341   7.223   9.387  0.2954  0.2333 -0.3626
 7804TIP3   OH247606   7.466   1.147   9.065 -0.1817 -0.0871  0.0841
 7804TIP3    H147607   7.461   1.213   8.996  0.1111 -0.6089 -0.4408
 7804TIP3    H247608   7.405   1.179   9.132 -0.5342  0.3816 -0.4451
 7805TIP3   OH247609   2.304   5.444   9.939 -0.3473 -0.0655 -0.5755
 7805TIP3    H147610   2.248   5.496   9.997 -0.5444 -1.2599  0.3476
 7805TIP3    H247611   2.392   5.453   9.976 -0.2384  0.2792 -0.9110
 7806TIP3   OH247612   1.938   2.659   9.718 -0.0926 -0.1702 -0.3622
 7806TIP3    H147613   2.001   2.676   9.788  1.1119 -0.0186 -1.4575
 7806TIP3    H247614   1.910   2.568   9.733  0.9529 -0.4885 -0.2980
 7807TIP3   OH247615   3.534   4.232   9.785  0.4106 -0.5305  0.3109
 7807TIP3    H147616   3.584   4.154   9.761 -0.9877 -1.9115  1.6369
 7807TIP3    H247617   3.595   4.287   9.833  1.0646 -1.4389  0.5340
 7808TIP3   OH247618   7.871   6.267   9.281 -0.1949  0.7963  0.5382
 7808TIP3    H147619   7.962   6.269   9.311 -0.1589 -0.3210  0.5259
 7808TIP3    H247620   7.831   6.344   9.322  0.8919  1.6286  0.0714
 7809TIP3   OH247621   3.050   4.816   9.496  0.3775  0.4429  0.0114
 7809TIP3    H147622   3.084   4.895   9.455  1.5947 -0.5022 -0.8951
 7809TIP3    H247623   2.993   4.847   9.566  0.8152  2.1027 -0.3339
 7810TIP3   OH247624   7.263   0.320   9.989  0.1280 -0.2722  0.1185
 7810TIP3    H147625   7.220   0.317   9.903  1.0752  0.6171 -0.4012
 7810TIP3    H247626   7.246   0.408  10.021  1.1700 -0.0509  0.0938
 7811TIP3   OH247627   0.290   8.399   9.470 -0.3570  0.6429  0.4237
 7811TIP3    H147628   0.201   8.368   9.453 -0.2758  0.5094  0.2311
 7811TIP3    H247629   0.280   8.491   9.494 -0.5502  0.6188  0.4374
 7812TIP3   OH247630   6.397   6.178  10.326  0.1295 -0.2266 -0.2393
 7812TIP3    H147631   6.303   6.181  10.346  0.1210 -0.8544 -0.1513
 7812TIP3    H247632   6.438   6.145  10.405  0.4301  0.0531 -0.2753
 7813TIP3   OH247633   6.986   7.134   9.883  0.3163  0.5822  0.0055
 7813TIP3    H147634   6.897   7.107   9.862  0.1818  0.3458  0.8493
 7813TIP3    H247635   7.022   7.061   9.934  0.2465  1.5928  1.5672
 7814TIP3   OH247636   0.100   6.529  10.116 -0.5270 -0.5647  0.0443
 7814TIP3    H147637   0.054   6.560  10.038 -0.2258  0.7761  0.3766
 7814TIP3    H247638   0.096   6.602  10.177 -0.1855 -1.3596  1.0464
 7815TIP3   OH247639   6.312   4.832  10.487  0.2725 -0.1168  0.5735
 7815TIP3    H147640   6.221   4.812  10.466 -0.1423  2.0007  0.1143
 7815TIP3    H247641   6.362   4.797  10.413 -0.1066 -1.4918  0.9326
 7816TIP3   OH247642   3.870   7.360   9.454 -0.0676  0.2156  0.1684
 7816TIP3    H147643   3.918   7.345   9.373 -0.3965  0.9309 -0.1691
 7816TIP3    H247644   3.895   7.287   9.511  0.6227  0.0295 -0.3618
 7817TIP3   OH247645   0.924   6.642   9.602 -0.5509  0.4907  0.2359
 7817TIP3    H147646   0.906   6.591   9.524 -0.0007 -0.0945  0.4766
 7817TIP3    H247647   0.993   6.704   9.576 -2.0048  1.9214 -0.3631
 7818TIP3   OH247648   5.865   5.770  10.484  0.5011 -0.3961 -0.2568
 7818TIP3    H147649   5.914   5.833  10.430 -1.1975  1.6990  0.4899
 7818TIP3    H247650   5.811   5.722  10.422 -1.9977  2.5008 -0.5351
 7819TIP3   OH247651   7.615   4.983   9.735  0.3116 -0.5023 -0.4176
 7819TIP3    H147652   7.692   4.995   9.680  0.0097  1.0490 -0.5335
 7819TIP3    H247653   7.646   4.997   9.824  0.2308 -0.2077 -0.4351
 7820TIP3   OH247654   2.872   2.659  10.259  0.3496 -0.0175  0.2201
 7820TIP3    H147655   2.855   2.727  10.194  0.6771  0.6265  0.7999
 7820TIP3    H247656   2.806   2.672  10.327 -0.3567 -1.0521 -0.2406
 7821TIP3   OH247657   2.402   1.892  10.315 -0.7612  0.2065  0.2076
 7821TIP3    H147658   2.401   1.939  10.399 -0.0172  1.7009 -0.5637
 7821TIP3    H247659   2.317   1.910  10.276 -1.2581 -0.8210  0.8070
 7822TIP3   OH247660   1.879   2.582   8.822 -0.0454 -0.1659 -0.0498
 7822TIP3    H147661   1.817   2.650   8.795  0.5535  0.2735 -0.3311
 7822TIP3    H247662   1.965   2.621   8.806  0.3080 -0.5657  0.8463
 7823TIP3   OH247663   0.177   7.496   9.275 -0.1827 -0.0683  0.2934
 7823TIP3    H147664   0.215   7.566   9.222 -1.5140  0.0410 -0.5689
 7823TIP3    H247665   0.199   7.415   9.227  1.6945 -0.3272  1.4923
 7824TIP3   OH247666   6.710   8.380   9.122 -0.5235 -0.3363  0.3497
 7824TIP3    H147667   6.732   8.443   9.191 -0.8558 -0.2576  0.3887
 7824TIP3    H247668   6.622   8.351   9.145 -1.0388  0.4309 -0.5821
 7825TIP3   OH247669   6.302   2.021   9.867 -0.0422  0.1628  0.3001
 7825TIP3    H147670   6.287   1.927   9.872  0.9167 -0.0351 -0.3790
 7825TIP3    H247671   6.363   2.040   9.939 -1.1533  0.4903  1.2037
 7826TIP3   OH247672   3.425   0.570   9.074 -0.2022  0.5067 -0.2329
 7826TIP3    H147673   3.356   0.506   9.058 -0.8833  0.9597  0.7761
 7826TIP3    H247674   3.447   0.605   8.987 -1.6635  0.7800 -0.5108
 7827TIP3   OH247675   7.097   5.753   8.849  0.4115 -0.0775  0.0176
 7827TIP3    H147676   7.172   5.743   8.908 -0.8946 -0.6689  1.6482
 7827TIP3    H247677   7.082   5.848   8.845  0.3196 -0.0467  0.9055
 7828TIP3   OH247678   6.326   3.831  10.093  0.4644 -0.2558 -0.0366
 7828TIP3    H147679   6.328   3.920  10.129 -1.0971 -0.0750 -0.3507
 7828TIP3    H247680   6.321   3.844   9.999 -0.2122 -0.6684 -0.0608
 7829TIP3   OH247681   5.711   0.107   9.277 -0.2763 -0.0469  0.0181
 7829TIP3    H147682   5.654   0.173   9.237  1.6429 -0.4702 -3.7976
 7829TIP3    H247683   5.785   0.158   9.311 -0.9786  0.1138  1.3914
 7830TIP3   OH247684   5.469   2.840   9.003 -0.0696  0.4054  0.0378
 7830TIP3    H147685   5.400   2.884   9.054 -0.4658 -0.0541 -0.0960
 7830TIP3    H247686   5.497   2.768   9.059  1.0595  1.2183  0.5482
 7831TIP3   OH247687   7.486   6.396  10.214  0.2233  0.4783 -0.2972
 7831TIP3    H147688   7.441   6.320  10.176 -0.4115  0.9928 -0.5975
 7831TIP3    H247689   7.419   6.438  10.268  0.5052  0.9662 -0.3281
 7832TIP3   OH247690   0.252   2.282  10.488 -0.2539 -0.1756  0.3409
 7832TIP3    H147691   0.230   2.292  10.580  0.2597  0.4649  0.3993
 7832TIP3    H247692   0.267   2.371  10.457 -1.7538 -0.2466 -0.7092
 7833TIP3   OH247693   3.964   6.750   9.817 -0.4464 -0.4928  0.1714
 7833TIP3    H147694   3.972   6.657   9.792 -0.0730 -0.0048 -1.6599
 7833TIP3    H247695   3.996   6.753   9.907  1.3391 -1.8603 -0.3602
 7834TIP3   OH247696   6.475   1.279   8.869 -0.0070  0.4595  0.4096
 7834TIP3    H147697   6.529   1.227   8.929  0.4011 -1.6960 -1.6574
 7834TIP3    H247698   6.527   1.357   8.851  0.5144  0.4218  1.7042
 7835TIP3   OH247699   6.014   2.209  10.171 -0.0270  0.0750  0.0756
 7835TIP3    H147700   6.030   2.117  10.151  0.8088 -0.0039  0.9847
 7835TIP3    H247701   6.048   2.220  10.260  0.5106  1.4211 -0.2720
 7836TIP3   OH247702   4.476   5.303  10.928  0.4754  0.4404 -0.1452
 7836TIP3    H147703   4.500   5.225  10.977 -0.1045 -0.0402 -0.6143
 7836TIP3    H247704   4.381   5.300  10.922  0.4678  1.0268 -0.4227
 7837TIP3   OH247705   6.323   7.564  10.800  0.0066 -0.0286  0.1240
 7837TIP3    H147706   6.335   7.546  10.707  0.4789  0.1605  0.1423
 7837TIP3    H247707   6.379   7.500  10.844  0.0686  0.1200  0.2632
 7838TIP3   OH247708   5.898   2.479  10.344 -0.7097  0.1140 -0.1307
 7838TIP3    H147709   5.867   2.415  10.408 -0.2199 -0.0207 -0.0238
 7838TIP3    H247710   5.960   2.534  10.393 -1.2924  0.8120 -0.1628
 7839TIP3   OH247711   6.687   7.764  10.517 -0.3340  0.1345 -0.0040
 7839TIP3    H147712   6.747   7.794  10.449 -0.7442  3.2541  0.8568
 7839TIP3    H247713   6.609   7.818  10.505 -0.7243  0.2110  2.4192
 7840TIP3   OH247714   4.236   2.535  10.156 -0.0178 -0.1618  0.2456
 7840TIP3    H147715   4.182   2.459  10.177 -1.8616  0.8695 -0.5141
 7840TIP3    H247716   4.181   2.590  10.100  1.6656  1.1959 -0.2037
 7841TIP3   OH247717   1.523   7.048   9.087  0.3862 -0.1151  0.0306
 7841TIP3    H147718   1.512   7.142   9.076 -2.0013 -0.4155 -0.7898
 7841TIP3    H247719   1.509   7.012   8.999 -0.7471 -1.3297  0.6657
 7842TIP3   OH247720   8.230   2.086  10.575 -0.0456  0.6342  0.0258
 7842TIP3    H147721   8.208   1.998  10.545 -0.3437  0.4639  0.7371
 7842TIP3    H247722   8.306   2.074  10.633  0.0348  0.8718 -0.0253
 7843TIP3   OH247723   3.793   5.566   9.365 -0.0608 -0.3025  0.6257
 7843TIP3    H147724   3.861   5.631   9.382  0.3030 -0.0533 -1.5007
 7843TIP3    H247725   3.713   5.607   9.397  0.5746 -0.0690  1.9917
 7844TIP3   OH247726   0.888   3.397  11.243  0.4103  0.0702  0.1342
 7844TIP3    H147727   0.824   3.442  11.188 -0.9249  0.9993  2.3161
 7844TIP3    H247728   0.914   3.320  11.193 -3.5358 -1.1875 -0.3225
 7845TIP3   OH247729   0.461   2.540   9.463 -0.1966 -0.3332  0.0119
 7845TIP3    H147730   0.444   2.604   9.393 -0.7081  0.0673  0.5003
 7845TIP3    H247731   0.449   2.589   9.544  1.8633 -0.3855  0.4140
 7846TIP3   OH247732   4.287   6.152   9.652 -0.1684  0.2173 -0.7578
 7846TIP3    H147733   4.337   6.094   9.594  0.9566 -1.2218  1.4930
 7846TIP3    H247734   4.219   6.096   9.690 -0.4099  0.9217 -0.1138
 7847TIP3   OH247735   6.100   4.920   9.956  0.1620 -0.1231  0.2124
 7847TIP3    H147736   6.176   4.960   9.914 -1.1047  0.7772 -1.3712
 7847TIP3    H247737   6.055   4.993   9.998 -0.4664 -0.4115  0.0582
 7848TIP3   OH247738   6.733   1.139   9.003  0.5827  0.0917  0.2215
 7848TIP3    H147739   6.724   1.076   9.074  0.6527 -0.2773 -0.0951
 7848TIP3    H247740   6.722   1.087   8.923  0.1478  0.5632 -0.0314
 7849TIP3   OH247741   6.022   2.167   8.918 -0.1265  0.4377  0.1197
 7849TIP3    H147742   6.020   2.075   8.889 -0.9023  0.3647  0.3603
 7849TIP3    H247743   6.013   2.218   8.837  1.3236  0.3449 -0.1286
 7850TIP3   OH247744   4.281   4.234   9.946  0.3361 -0.1090  0.1074
 7850TIP3    H147745   4.207   4.178   9.970  1.3404 -0.8681  1.6198
 7850TIP3    H247746   4.324   4.186   9.875  0.8428 -1.0195  0.9894
 7851TIP3   OH247747   7.910   4.709   9.534 -0.4187 -0.2021 -0.7739
 7851TIP3    H147748   7.856   4.776   9.493 -0.4469 -0.2838 -0.8706
 7851TIP3    H247749   7.854   4.673   9.603 -0.2568  0.1503 -0.4576
 7852TIP3   OH247750   3.917   7.619   9.585  0.0386 -0.1117  0.0448
 7852TIP3    H147751   3.830   7.654   9.606 -0.2024 -1.2124  0.9741
 7852TIP3    H247752   3.900   7.533   9.547  0.7221 -0.2647  0.0679
 7853TIP3   OH247753   1.073   8.257   9.141 -0.5959 -0.3417  0.0947
 7853TIP3    H147754   1.008   8.327   9.150 -0.0587  0.4716 -1.8029
 7853TIP3    H247755   1.154   8.295   9.177 -0.5854 -0.4231  0.1568
 7854TIP3   OH247756   4.969   5.691   9.258  0.2631 -0.6696  0.3578
 7854TIP3    H147757   4.986   5.597   9.248 -1.0792 -0.7971 -1.3060
 7854TIP3    H247758   5.050   5.727   9.294  0.6498 -2.5161  1.4402
 7855TIP3   OH247759   6.423   6.112   8.559  0.3176  0.2482 -0.0427
 7855TIP3    H147760   6.413   6.203   8.532 -1.8818 -0.1812 -1.0041
 7855TIP3    H247761   6.515   6.103   8.583  0.7994  2.4771 -0.8056
 7856TIP3   OH247762   6.109   6.626   8.712  0.0807  0.1394 -0.7028
 7856TIP3    H147763   6.042   6.694   8.721  1.1333  0.9308  2.8322
 7856TIP3    H247764   6.068   6.548   8.751  0.8533  0.4154  0.7329
 7857TIP3   OH247765   2.441   3.538   9.006 -0.2775 -0.0491  0.7006
 7857TIP3    H147766   2.528   3.574   9.024 -1.1379  1.8670  1.1978
 7857TIP3    H247767   2.453   3.443   9.016  1.7092  0.1700  0.8937
 7858TIP3   OH247768   7.784   0.547  10.955  0.1977 -0.9142  0.1889
 7858TIP3    H147769   7.716   0.566  11.019 -0.0847 -0.3187 -0.2747
 7858TIP3    H247770   7.737   0.518  10.877  0.2812  1.5402 -0.8748
 7859TIP3   OH247771   3.121   5.659  10.650  0.1347 -0.1104 -0.8258
 7859TIP3    H147772   3.104   5.575  10.693 -0.5154  0.4621  0.0809
 7859TIP3    H247773   3.214   5.678  10.669 -0.5050  0.9032  1.8505
 7860TIP3   OH247774   8.165   0.089   8.978 -0.5464 -0.7639  0.0153
 7860TIP3    H147775   8.180   0.172   9.024 -0.2404 -0.4310 -0.6789
 7860TIP3    H247776   8.070   0.082   8.971 -0.5604 -0.2230 -0.3774
 7861TIP3   OH247777   1.347   0.223   9.507 -0.0358  0.2787  0.0936
 7861TIP3    H147778   1.363   0.305   9.555 -0.5517 -0.6367  1.9426
 7861TIP3    H247779   1.355   0.155   9.574  0.7254 -1.2332 -1.4743
 7862TIP3   OH247780   3.831   6.236   9.232 -0.1517 -0.0881 -0.2659
 7862TIP3    H147781   3.747   6.268   9.264 -0.7865 -0.9810 -0.9890
 7862TIP3    H247782   3.839   6.148   9.267  2.0320  1.0643  2.5200
 7863TIP3   OH247783   1.928   2.345   8.974 -0.0067 -0.3464  0.4049
 7863TIP3    H147784   1.856   2.338   9.036  0.8542 -0.2241  1.4416
 7863TIP3    H247785   1.911   2.427   8.926  0.0242  0.2556  1.4005
 7864TIP3   OH247786   3.539   5.327   9.084  0.3174 -0.0651 -0.0960
 7864TIP3    H147787   3.508   5.292   9.168  1.0145  1.4758  0.8627
 7864TIP3    H247788   3.531   5.422   9.094  3.6808  0.3747 -0.3791
 7865TIP3   OH247789   6.468   0.336   9.383 -0.1077 -0.3488 -0.4456
 7865TIP3    H147790   6.388   0.361   9.430  0.6860  0.1273  0.7077
 7865TIP3    H247791   6.483   0.408   9.322  1.4723  1.5395  1.9822
 7866TIP3   OH247792   5.459   4.623   9.970  0.5107  0.1814  0.0135
 7866TIP3    H147793   5.524   4.631   9.901  2.7883 -0.3309  1.9822
 7866TIP3    H247794   5.445   4.712  10.001 -0.3322  0.3800 -0.8515
 7867TIP3   OH247795   2.075   1.043   9.104  0.1091  0.0944  0.0307
 7867TIP3    H147796   2.103   1.123   9.148 -0.4877  0.1409  0.3404
 7867TIP3    H247797   2.127   1.040   9.023  3.0346 -1.2349  1.7899
 7868TIP3   OH247798   7.272   7.817   9.884 -0.1760  0.1101 -0.1086
 7868TIP3    H147799   7.344   7.768   9.923 -0.6746 -0.3682  0.2112
 7868TIP3    H247800   7.193   7.783   9.926 -0.6668  0.0421 -1.0533
 7869TIP3   OH247801   2.919   0.756  10.641  0.5752 -0.6847 -0.2105
 7869TIP3    H147802   2.847   0.796  10.592  1.0809 -2.8358 -2.9256
 7869TIP3    H247803   2.993   0.815  10.628 -0.3071  0.9817  1.7129
 7870TIP3   OH247804   0.765   5.014   9.648  0.0221  0.1517 -0.5157
 7870TIP3    H147805   0.756   5.054   9.561 -0.6963 -0.6012 -0.7971
 7870TIP3    H247806   0.731   5.080   9.708 -0.3726  0.2971 -0.8978
 7871TIP3   OH247807   6.985   6.295   8.650 -0.1994 -0.0719  0.2637
 7871TIP3    H147808   6.906   6.338   8.682  1.2675  3.0780  0.0409
 7871TIP3    H247809   7.034   6.273   8.728 -1.3298 -2.3205  0.4170
 7872TIP3   OH247810   1.349   5.761   9.128  0.2360  0.2793 -0.0532
 7872TIP3    H147811   1.273   5.797   9.082  0.8502  1.1287 -0.4303
 7872TIP3    H247812   1.419   5.765   9.064  0.6152 -0.4573  0.3099
 7873TIP3   OH247813   0.875   2.081   9.240 -0.3781 -0.0979  0.3365
 7873TIP3    H147814   0.791   2.120   9.263  0.0914  0.5663  0.9889
 7873TIP3    H247815   0.940   2.145   9.271  0.4147 -1.4030  1.4826
 7874TIP3   OH247816   4.649   1.446   9.561  0.2142  0.0923 -0.2137
 7874TIP3    H147817   4.695   1.528   9.548  2.0624 -0.8581 -0.0052
 7874TIP3    H247818   4.668   1.422   9.652 -1.5937  0.1631  0.2344
 7875TIP3   OH247819   4.423   1.612   9.528  0.4362  0.0836 -0.4385
 7875TIP3    H147820   4.499   1.556   9.541 -0.3891 -0.8169  0.6869
 7875TIP3    H247821   4.352   1.552   9.506 -0.4772  0.6549  0.8185
 7876TIP3   OH247822   5.929   8.387  11.017  0.0305  0.4365 -0.1156
 7876TIP3    H147823   6.018   8.415  11.036  0.1066  0.7412 -0.8754
 7876TIP3    H247824   5.934   8.291  11.014  0.3478  0.4535 -0.2059
 7877TIP3   OH247825   5.039   7.786   9.021  0.6616  0.2436  0.6527
 7877TIP3    H147826   4.967   7.754   9.077  0.3472 -1.0845 -0.4664
 7877TIP3    H247827   5.039   7.880   9.035 -1.1204  0.2437  0.9145
 7878TIP3   OH247828   0.902   0.409  10.815 -0.3656  0.1342 -0.5038
 7878TIP3    H147829   0.969   0.403  10.747 -0.0005  0.6157 -0.1923
 7878TIP3    H247830   0.945   0.452  10.889 -0.9144  0.1313 -0.1693
 7879TIP3   OH247831   3.903   1.887  10.442 -0.8333 -0.4690 -0.1367
 7879TIP3    H147832   3.909   1.802  10.486  0.4707 -0.6142 -0.5262
 7879TIP3    H247833   3.901   1.951  10.512 -0.2060 -0.7656  0.1632
 7880TIP3   OH247834   7.030   0.267   9.365 -0.3704 -0.2575 -0.7025
 7880TIP3    H147835   6.982   0.286   9.284 -0.4863 -1.8841 -1.0511
 7880TIP3    H247836   6.974   0.299   9.435 -1.2616 -0.7373 -1.1818
 7881TIP3   OH247837   5.634   2.383   9.298 -0.2562  0.8843 -0.4521
 7881TIP3    H147838   5.644   2.347   9.386  1.9228  1.0877 -0.5661
 7881TIP3    H247839   5.598   2.311   9.247 -1.5419  0.7633  0.5871
 7882TIP3   OH247840   3.873   7.355  10.438  0.2105 -0.1728  0.3257
 7882TIP3    H147841   3.852   7.406  10.517 -0.3956  0.7170 -0.3881
 7882TIP3    H247842   3.965   7.329  10.450  0.1996  0.1578  1.2090
 7883TIP3   OH247843   4.786   5.724  10.748 -0.1504 -0.0301 -0.6460
 7883TIP3    H147844   4.770   5.671  10.825  0.8513  1.0318  0.3381
 7883TIP3    H247845   4.700   5.737  10.708 -0.7207 -0.3537  0.4587
 7884TIP3   OH247846   7.866   3.979   9.340 -0.0665  0.3660  0.1834
 7884TIP3    H147847   7.876   4.052   9.402  1.3975 -0.5458  1.0658
 7884TIP3    H247848   7.939   3.990   9.278  1.0811 -1.1449  1.2020
 7885TIP3   OH247849   5.463   0.467  10.969  0.7161  0.2425 -0.0501
 7885TIP3    H147850   5.514   0.547  10.984 -0.1368  0.4811  1.9014
 7885TIP3    H247851   5.526   0.396  10.986  0.9726  0.5181  0.1770
 7886TIP3   OH247852   8.395   3.867  10.081  0.2194  0.2169  0.4946
 7886TIP3    H147853   8.384   3.772  10.085  1.0931  0.1491  3.6288
 7886TIP3    H247854   8.411   3.894  10.172  0.5669  3.3079 -0.3570
 7887TIP3   OH247855   1.491   0.058   9.932 -0.1012  0.1763 -0.5470
 7887TIP3    H147856   1.406   0.099   9.916 -0.2539 -0.3899 -1.2677
 7887TIP3    H247857   1.502   0.060  10.027 -1.2308 -0.3449 -0.3863
 7888TIP3   OH247858   7.690   0.402   9.719 -0.3956 -0.0035 -0.3505
 7888TIP3    H147859   7.742   0.463   9.772 -0.2034  1.0233 -1.6816
 7888TIP3    H247860   7.631   0.360   9.782 -1.4552  2.5021  0.4485
 7889TIP3   OH247861   4.734   5.103   9.471 -0.0212  0.0157  0.0286
 7889TIP3    H147862   4.707   5.032   9.530 -1.3576  1.6328  1.4750
 7889TIP3    H247863   4.829   5.097   9.468 -0.1168 -2.4169 -0.7052
 7890TIP3   OH247864   0.838   4.142  10.475  0.0683 -0.1054  0.5822
 7890TIP3    H147865   0.804   4.064  10.431  1.3279  0.4681 -1.5986
 7890TIP3    H247866   0.913   4.110  10.526  0.8165 -0.3295 -0.6024
 7891TIP3   OH247867   2.103   1.405  10.477  0.0284 -0.7281  0.0044
 7891TIP3    H147868   2.082   1.320  10.517 -1.6945 -0.0407  0.6577
 7891TIP3    H247869   2.181   1.389  10.425  0.9838 -2.2331  1.8078
 7892TIP3   OH247870   1.982   5.801   9.549  0.2766 -0.1080  0.5708
 7892TIP3    H147871   1.889   5.804   9.573  0.2789  0.3176  0.5242
 7892TIP3    H247872   2.028   5.786   9.632  0.1269 -0.9493  0.5099
 7893TIP3   OH247873   3.946   0.858   9.080 -0.2887  0.1473 -0.2248
 7893TIP3    H147874   4.021   0.798   9.075  0.7120  1.3693 -0.5554
 7893TIP3    H247875   3.888   0.829   9.010 -0.7660 -1.6185  0.8535
 7894TIP3   OH247876   1.562   1.980   9.861 -0.3528 -0.0582 -0.1622
 7894TIP3    H147877   1.551   1.889   9.888 -1.8886 -0.3628 -1.6198
 7894TIP3    H247878   1.480   2.022   9.887 -1.3390 -0.0744 -2.9358
 7895TIP3   OH247879   8.225   4.336  10.184  0.6159  0.0650  0.4591
 7895TIP3    H147880   8.239   4.405  10.119  0.5419 -0.6183 -0.3045
 7895TIP3    H247881   8.259   4.372  10.266 -1.2585  1.7966  0.5490
 7896TIP3   OH247882   2.107   5.589  10.085 -0.1247 -0.4112  0.9153
 7896TIP3    H147883   2.131   5.626  10.170 -1.1777 -1.1663  1.5693
 7896TIP3    H247884   2.013   5.572  10.093 -0.1090 -1.0642 -0.1863
 7897TIP3   OH247885   0.327   1.947   8.855 -0.4055  0.2705 -0.1226
 7897TIP3    H147886   0.370   1.896   8.923 -0.8869 -1.1148 -0.7990
 7897TIP3    H247887   0.384   2.022   8.841 -1.1829  1.5983  3.0251
 7898TIP3   OH247888   1.063   0.711   8.746 -0.7368 -0.2921 -0.3867
 7898TIP3    H147889   1.014   0.697   8.827  0.3022 -0.3297  0.2539
 7898TIP3    H247890   1.070   0.624   8.707  1.1415 -0.7788  0.9117
 7899TIP3   OH247891   0.582   1.927   9.271  0.5024 -0.1811  0.1228
 7899TIP3    H147892   0.559   1.932   9.364  1.2842 -1.6316  0.4257
 7899TIP3    H247893   0.589   2.018   9.243  0.6447  0.2842  1.5832
 7900TIP3   OH247894   6.609   6.106  10.536  0.1087 -0.3960  0.1791
 7900TIP3    H147895   6.557   6.083  10.613 -1.1854  1.0743 -0.2126
 7900TIP3    H247896   6.686   6.048  10.540 -0.1905 -0.6982  2.2721
 7901TIP3   OH247897   6.244   4.472   9.620 -0.6869  0.2504  0.0482
 7901TIP3    H147898   6.278   4.499   9.706 -0.9214  0.5596  0.0447
 7901TIP3    H247899   6.245   4.376   9.623  0.3070  0.2509 -0.0023
 7902TIP3   OH247900   5.598   1.430   9.323  0.1652 -0.1812  0.4780
 7902TIP3    H147901   5.683   1.389   9.307  0.0887 -0.2392  0.2149
 7902TIP3    H247902   5.588   1.428   9.418 -1.2399 -3.7162  0.3981
 7903TIP3   OH247903   2.474   1.294   9.731  0.2270 -0.2235  0.6108
 7903TIP3    H147904   2.469   1.263   9.822  1.2154 -0.1010  0.7174
 7903TIP3    H247905   2.425   1.228   9.682  2.8693 -2.5008  0.7356
 7904TIP3   OH247906   1.026   7.490   9.332  0.1933  0.3772  0.0988
 7904TIP3    H147907   0.932   7.480   9.350 -0.0889  1.5185 -0.6434
 7904TIP3    H247908   1.034   7.474   9.238  0.7946  0.0211  0.2080
 7905TIP3   OH247909   2.530   5.164  10.776 -0.2589 -0.3790  0.3097
 7905TIP3    H147910   2.453   5.150  10.831 -0.2850  2.8973  1.2656
 7905TIP3    H247911   2.496   5.203  10.696  0.3082 -0.1351  0.1850
 7906TIP3   OH247912   8.194   6.888   8.722  0.1255 -0.3483 -0.4044
 7906TIP3    H147913   8.264   6.952   8.737  0.2891 -0.6011 -0.0824
 7906TIP3    H247914   8.149   6.882   8.806  1.0417 -1.7668  0.0257
 7907TIP3   OH247915   1.500   0.908  15.684 -0.5725  0.0056  0.1724
 7907TIP3    H147916   1.516   0.960  15.762 -0.8950  0.7435 -0.2356
 7907TIP3    H247917   1.527   0.820  15.707  0.2207  0.4075  0.8056
 7908TIP3   OH247918   3.539   2.745   9.721 -0.5095 -0.2310  0.7325
 7908TIP3    H147919   3.591   2.711   9.648  0.6689  1.3108  0.7798
 7908TIP3    H247920   3.546   2.678   9.789 -0.3233 -0.9889 -0.0226
 7909TIP3   OH247921   6.660   7.743   9.539  0.2728 -0.4825 -0.0812
 7909TIP3    H147922   6.571   7.708   9.549 -0.3286  1.4246  2.0737
 7909TIP3    H247923   6.652   7.810   9.472  0.2138 -0.6409 -0.2352
 7910TIP3   OH247924   5.325   6.935   9.131 -0.9519 -0.6319 -0.4798
 7910TIP3    H147925   5.313   6.880   9.208  0.1572  2.5327  2.1618
 7910TIP3    H247926   5.264   7.008   9.142  0.0463  0.5136 -1.9690
 7911TIP3   OH247927   0.672   0.506  10.711  0.4484  0.7229  0.0867
 7911TIP3    H147928   0.755   0.477  10.748  0.2966  0.0528 -0.0976
 7911TIP3    H247929   0.674   0.601  10.721  1.0391  0.6737  0.4950
 7912TIP3   OH247930   1.018   6.561   9.082  1.0858  0.1984  0.1011
 7912TIP3    H147931   1.043   6.469   9.079 -0.3151 -0.3026  2.1542
 7912TIP3    H247932   1.011   6.587   8.990  0.2527 -2.1081 -0.5396
 7913TIP3   OH247933   1.428   3.929   9.133 -0.3257  0.4365  0.2028
 7913TIP3    H147934   1.467   3.995   9.191 -0.2741  0.3781  0.2349
 7913TIP3    H247935   1.444   3.846   9.177  0.2705  0.3314 -0.2052
 7914TIP3   OH247936   0.445   4.942   9.556 -0.0289  0.1823  0.0058
 7914TIP3    H147937   0.426   5.018   9.611 -1.5150 -1.1415  1.4325
 7914TIP3    H247938   0.441   4.976   9.466 -0.4667  1.8125  0.6028
 7915TIP3   OH247939   7.631   6.868  10.395 -0.1861  0.5329 -0.4146
 7915TIP3    H147940   7.603   6.880  10.486 -0.6274  0.6252 -0.5616
 7915TIP3    H247941   7.600   6.947  10.351 -1.4305 -0.2661 -0.9992
 7916TIP3   OH247942   7.818   2.242   9.402 -0.3773  0.1719 -0.2180
 7916TIP3    H147943   7.805   2.155   9.441 -1.8247 -0.3564 -1.7567
 7916TIP3    H247944   7.775   2.236   9.317  2.6570  1.2830 -1.9351
 7917TIP3   OH247945   5.554   5.114   9.929 -0.5111 -0.0276 -0.1448
 7917TIP3    H147946   5.591   5.201   9.943 -1.6572  0.3559  0.6889
 7917TIP3    H247947   5.563   5.070  10.014 -1.7066 -0.0097  0.0088
 7918TIP3   OH247948   1.473   0.487   8.879  0.0711 -0.0722  0.3772
 7918TIP3    H147949   1.477   0.582   8.868  1.5858 -0.1985 -0.3646
 7918TIP3    H247950   1.379   0.468   8.886 -0.4107  1.2380 -1.6731
 7919TIP3   OH247951   8.421   2.979  10.281 -0.1695  0.0289 -0.4915
 7919TIP3    H147952   8.488   3.038  10.314 -0.0004 -0.1609 -0.4929
 7919TIP3    H247953   8.444   2.894  10.318  0.4478 -0.3461 -1.6634
 7920TIP3   OH247954   0.930   4.645   9.529  0.3645  0.6127 -0.3302
 7920TIP3    H147955   0.850   4.599   9.555 -0.3473  0.7188 -2.1360
 7920TIP3    H247956   0.992   4.575   9.509  0.6586  0.5260  0.8356
 7921TIP3   OH247957   5.796   2.923   8.977  0.2148  0.0600  0.0744
 7921TIP3    H147958   5.760   2.850   8.928 -0.9923  0.1586  0.7662
 7921TIP3    H247959   5.881   2.892   9.009 -0.4850 -1.2098  0.7439
 7922TIP3   OH247960   3.110   1.132   8.356  0.5480  0.1083  0.2718
 7922TIP3    H147961   3.101   1.208   8.413  2.0903 -0.4841  1.3814
 7922TIP3    H247962   3.182   1.154   8.297 -0.1191  0.1664 -0.5274
 7923TIP3   OH247963   1.754   5.878  10.114  0.7060  0.4286  0.1074
 7923TIP3    H147964   1.834   5.930  10.126 -0.0572  2.0518 -1.3694
 7923TIP3    H247965   1.755   5.853  10.022 -1.0301  1.4777 -0.2415
 7924TIP3   OH247966   6.710   0.103   9.341 -0.5061 -0.3633  0.4806
 7924TIP3    H147967   6.639   0.165   9.325 -1.1398 -1.3864 -0.8232
 7924TIP3    H247968   6.732   0.115   9.433 -1.7422  0.6259  0.6713
 7925TIP3   OH247969   3.247   3.895  10.669  0.0717 -0.9185  0.0924
 7925TIP3    H147970   3.337   3.889  10.638  0.2801 -1.6871  0.8179
 7925TIP3    H247971   3.232   3.989  10.681  1.3949 -0.8630  1.6983
 7926TIP3   OH247972   6.521   3.696  10.709 -0.4287  0.1820  0.1497
 7926TIP3    H147973   6.437   3.666  10.741  0.0617 -0.3914  0.9136
 7926TIP3    H247974   6.503   3.784  10.675 -1.1193  0.4876  1.2618
 7927TIP3   OH247975   3.445   4.993   8.969  0.2977 -0.0154  0.2470
 7927TIP3    H147976   3.525   5.029   8.931  1.3987 -1.3485  1.1847
 7927TIP3    H247977   3.470   4.970   9.059 -1.1950 -0.2948  0.6091
 7928TIP3   OH247978   3.106   4.732   9.912 -0.1636  0.4236  0.3207
 7928TIP3    H147979   3.102   4.637   9.919  1.2895  0.0578 -2.4986
 7928TIP3    H247980   3.016   4.761   9.926 -0.9766 -1.5217 -0.5362
 7929TIP3   OH247981   0.921   6.114   8.856 -0.0268 -0.5958  0.5672
 7929TIP3    H147982   0.985   6.096   8.926  0.0336 -0.2493  0.6033
 7929TIP3    H247983   0.929   6.208   8.841  0.4884 -0.7897 -0.4246
 7930TIP3   OH247984   4.797   7.084   9.797  0.4301 -0.0146  0.1000
 7930TIP3    H147985   4.735   7.113   9.865 -1.1279  0.4907 -1.4736
 7930TIP3    H247986   4.818   7.164   9.749  0.0927 -0.6498 -1.1245
 7931TIP3   OH247987   1.694   4.689   9.122 -0.2996  0.2500 -0.2884
 7931TIP3    H147988   1.742   4.606   9.130  0.2640  0.6490  0.6143
 7931TIP3    H247989   1.648   4.698   9.205 -0.2832  0.8847 -0.3460
 7932TIP3   OH247990   0.588   6.555   9.437  0.2860  0.2918  0.1342
 7932TIP3    H147991   0.498   6.571   9.467  0.3953  1.3810 -0.0814
 7932TIP3    H247992   0.622   6.490   9.498 -0.7897 -0.4683 -0.0402
 7933TIP3   OH247993   0.629   1.359   9.739  0.4262  0.1608  0.2851
 7933TIP3    H147994   0.697   1.412   9.781 -0.0747  2.1524 -1.2606
 7933TIP3    H247995   0.578   1.422   9.686 -1.4586 -1.5563 -0.0813
 7934TIP3   OH247996   2.890   4.918   9.688 -0.0352 -0.3705  0.0510
 7934TIP3    H147997   2.915   4.929   9.780 -2.6028  0.9621  0.6956
 7934TIP3    H247998   2.815   4.858   9.691 -0.2813 -0.1488 -1.1389
 7935TIP3   OH247999   5.740   1.703   9.558  0.1738 -0.1956  0.1793
 7935TIP3    H148000   5.825   1.662   9.549 -0.5155 -2.2804  2.1429
 7935TIP3    H248001   5.754   1.794   9.531  2.5439 -0.8985 -1.2384
 7936TIP3   OH248002   2.444   5.874   9.063  0.1172  0.4773 -0.4648
 7936TIP3    H148003   2.534   5.855   9.036 -0.2533  0.7030 -1.9595
 7936TIP3    H248004   2.434   5.968   9.048 -0.4142  0.4211 -0.4666
 7937TIP3   OH248005   8.438   8.152   9.267  0.3609  0.5747 -0.2259
 7937TIP3    H148006   8.377   8.158   9.194 -0.3672 -0.5878  0.2624
 7937TIP3    H248007   8.513   8.104   9.233 -0.1883 -0.3994 -0.0921
 7938TIP3   OH248008   2.602   2.645   9.094 -0.3243  0.0721  0.0445
 7938TIP3    H148009   2.631   2.704   9.025 -0.0595  1.7185  1.4903
 7938TIP3    H248010   2.575   2.566   9.048 -2.2003  1.8564 -2.1688
 7939TIP3   OH248011   7.275   7.097   8.798  0.4501 -0.6236 -0.1056
 7939TIP3    H148012   7.246   7.095   8.707 -1.5731  0.7573  0.4528
 7939TIP3    H248013   7.203   7.056   8.847  1.0557 -0.4371  0.9753
 7940TIP3   OH248014   8.231   5.599   9.075  0.6752 -0.2180  0.8136
 7940TIP3    H148015   8.182   5.517   9.075 -2.1329  1.3005  2.4469
 7940TIP3    H248016   8.208   5.641   9.158  2.7712  1.8338  0.4707
 7941TIP3   OH248017   7.679   8.305   8.875 -0.2188 -0.1283 -0.1392
 7941TIP3    H148018   7.702   8.378   8.932  1.6221 -1.0085  0.3317
 7941TIP3    H248019   7.586   8.318   8.855  0.0670  2.3738 -0.1705
 7942TIP3   OH248020   4.700   3.414   9.356  0.3518 -0.0562  0.0048
 7942TIP3    H148021   4.693   3.386   9.265  1.3644  0.2836 -0.1879
 7942TIP3    H248022   4.609   3.418   9.387  0.0611 -1.2441 -0.6464
 7943TIP3   OH248023   0.507   2.455  10.233  0.4252 -0.1671 -0.0373
 7943TIP3    H148024   0.438   2.438  10.169 -0.4425  0.2396  0.7714
 7943TIP3    H248025   0.534   2.368  10.263 -1.4098 -0.3200  1.3622
 7944TIP3   OH248026   3.758   5.630  10.218  0.0970  0.5281 -0.1181
 7944TIP3    H148027   3.749   5.695  10.289  0.9066 -1.8136  2.2814
 7944TIP3    H248028   3.674   5.583  10.219  1.1508 -1.4936  1.5031
 7945TIP3   OH248029   1.383   7.932   9.673  0.2310  0.5335  0.3402
 7945TIP3    H148030   1.334   7.851   9.684  1.8735 -0.6132 -0.3401
 7945TIP3    H248031   1.331   7.998   9.719 -0.2635 -1.2315  2.5202
 7946TIP3   OH248032   5.122   5.055   9.163  0.5301  0.6501  0.0528
 7946TIP3    H148033   5.048   4.998   9.139  0.6093  0.8779 -0.7625
 7946TIP3    H248034   5.195   5.021   9.110  1.1971 -0.0108  1.3588
 7947TIP3   OH248035   6.749   4.859   9.138 -0.0079 -0.0568 -0.5287
 7947TIP3    H148036   6.701   4.851   9.220  0.2528  1.0902 -0.2499
 7947TIP3    H248037   6.840   4.875   9.164  0.1457 -0.0426 -1.0440
 7948TIP3   OH248038   5.616   0.765   9.653 -0.2413  0.2536 -0.5156
 7948TIP3    H148039   5.628   0.845   9.603 -1.4649  0.7720 -0.0335
 7948TIP3    H248040   5.682   0.769   9.722 -2.1268  2.3507  1.3068
 7949TIP3   OH248041   2.365   6.687   9.048 -0.2053 -0.0233  0.6355
 7949TIP3    H148042   2.443   6.635   9.032  0.4424  0.7732  1.1051
 7949TIP3    H248043   2.292   6.627   9.033  0.3824 -0.1683 -2.2714
 7950TIP3   OH248044   0.385   3.782   8.770  0.7612  0.4890 -0.5575
 7950TIP3    H148045   0.421   3.855   8.821  0.5181  0.0848  0.2132
 7950TIP3    H248046   0.450   3.712   8.780 -0.2883 -0.3274  1.0376
 7951TIP3   OH248047   6.089   0.006   9.419 -0.0887  0.4062 -0.3729
 7951TIP3    H148048   6.146  -0.051   9.469  0.9472 -0.4450 -2.4037
 7951TIP3    H248049   6.070  -0.043   9.339 -1.8258  1.6046 -0.7604
 7952TIP3   OH248050   5.929   8.275  10.215  0.4972 -0.0401  0.4377
 7952TIP3    H148051   5.888   8.355  10.182 -1.5394 -0.4471  1.7319
 7952TIP3    H248052   6.018   8.276  10.180 -0.2580  1.5220 -1.6058
 7953TIP3   OH248053   4.577   5.071  10.433  0.1937 -0.4690 -0.3736
 7953TIP3    H148054   4.606   5.005  10.369  0.9885  0.1617 -0.6900
 7953TIP3    H248055   4.590   5.030  10.518  1.1258 -0.5589 -0.5522
 7954TIP3   OH248056   3.450   0.529  10.597  0.0641 -0.1049 -0.1004
 7954TIP3    H148057   3.503   0.569  10.528  1.0638  0.0715  0.7475
 7954TIP3    H248058   3.368   0.579  10.596  0.6999  0.9608 -0.0798
 7955TIP3   OH248059   5.997   6.116   9.699 -0.3107  0.5422 -0.4713
 7955TIP3    H148060   6.008   6.205   9.733 -0.0625  0.7521 -1.0783
 7955TIP3    H248061   5.956   6.129   9.613  2.2527  0.2768 -1.8447
 7956TIP3   OH248062   5.877   5.937   9.133 -0.2634  0.6149  0.2599
 7956TIP3    H148063   5.894   6.028   9.111 -0.8962  0.1700 -2.4122
 7956TIP3    H248064   5.811   5.940   9.203 -3.5563  2.3064 -2.6317
 7957TIP3   OH248065   6.926   7.847   8.897 -0.3201 -0.6288 -0.3472
 7957TIP3    H148066   6.872   7.816   8.825 -0.1325  0.6769 -1.0779
 7957TIP3    H248067   6.919   7.778   8.963 -2.0025 -0.9978 -0.8519
 7958TIP3   OH248068   8.213   4.958  10.686  0.1991 -0.3798  0.2623
 7958TIP3    H148069   8.163   4.889  10.730  0.9265 -0.1199  1.5440
 7958TIP3    H248070   8.155   4.991  10.618 -1.1295 -0.4987  1.3180
 7959TIP3   OH248071   0.305   6.227   8.788  0.5267 -0.3059 -0.3978
 7959TIP3    H148072   0.279   6.302   8.841 -0.9582 -0.3021 -1.0862
 7959TIP3    H248073   0.395   6.209   8.816  1.1936  2.1294 -0.6634
 7960TIP3   OH248074   6.709   7.165   9.163  0.3908  0.6417  0.8020
 7960TIP3    H148075   6.696   7.223   9.238 -0.0759 -2.3005  3.1623
 7960TIP3    H248076   6.804   7.151   9.159  0.5389  1.7054  0.0260
 7961TIP3   OH248077   3.287   1.141   9.669 -0.0617  0.5354 -0.2670
 7961TIP3    H148078   3.256   1.064   9.717  2.8440 -0.4617  0.1975
 7961TIP3    H248079   3.207   1.180   9.632 -1.6139 -3.3713 -1.5795
 7962TIP3   OH248080   4.862   4.238   9.575 -0.0734 -0.1423 -0.1160
 7962TIP3    H148081   4.898   4.314   9.621 -1.1383  1.8192 -2.3306
 7962TIP3    H248082   4.937   4.199   9.529  0.0877  1.0388 -0.8826
 7963TIP3   OH248083   5.288   2.778  10.295  0.6010 -0.2167 -0.2394
 7963TIP3    H148084   5.268   2.742  10.208  1.4383 -1.6835  0.1314
 7963TIP3    H248085   5.368   2.733  10.321  0.9340  0.9662  0.8710
 7964TIP3   OH248086   4.288   0.522  10.561 -0.1931 -0.0364  0.0439
 7964TIP3    H148087   4.344   0.588  10.602 -0.1679  0.4358 -0.7330
 7964TIP3    H248088   4.204   0.529  10.608  0.2976 -0.5714  1.0389
 7965TIP3   OH248089   5.424   6.314  10.755 -0.0150  0.7282 -0.2711
 7965TIP3    H148090   5.401   6.225  10.780  0.6963  0.3572 -0.9101
 7965TIP3    H248091   5.350   6.344  10.702  0.0357  0.2783 -0.5988
 7966TIP3   OH248092   5.379   1.845   9.075 -0.3162 -0.4157 -0.3639
 7966TIP3    H148093   5.465   1.886   9.069  0.2602 -1.0015  2.3715
 7966TIP3    H248094   5.397   1.758   9.112 -1.9693 -1.1702 -1.2243
 7967TIP3   OH248095   7.060   4.335   9.051 -0.3645  0.4878  0.3987
 7967TIP3    H148096   7.015   4.260   9.092 -1.9846  0.9085 -0.5070
 7967TIP3    H248097   7.033   4.410   9.104  0.1374  0.6092  0.4804
 7968TIP3   OH248098   3.677   7.430   8.890 -0.4013  0.0777  0.0901
 7968TIP3    H148099   3.615   7.489   8.933  0.0727  1.3479 -0.8984
 7968TIP3    H248100   3.763   7.469   8.908 -0.1334  0.1494 -1.2274
 7969TIP3   OH248101   1.843   2.394   9.825 -0.5487 -0.1261 -0.7857
 7969TIP3    H148102   1.916   2.356   9.776  0.0820  0.8009 -0.5983
 7969TIP3    H248103   1.863   2.373   9.917  0.4689  1.6597 -0.5517
 7970TIP3   OH248104   4.774   2.295   9.099 -0.2947  0.4152 -0.0524
 7970TIP3    H148105   4.856   2.344   9.092 -0.8132  1.0208 -2.8908
 7970TIP3    H248106   4.792   2.212   9.055 -1.3606  0.8027 -1.2613
 7971TIP3   OH248107   5.629   4.044   8.983  0.4270 -0.7051  0.6066
 7971TIP3    H148108   5.591   3.996   9.056  0.2353 -0.6204  0.5605
 7971TIP3    H248109   5.594   4.132   8.991  0.8680 -0.5420  0.7565
 7972TIP3   OH248110   3.746   6.906   9.348 -0.4747 -0.0262 -0.8242
 7972TIP3    H148111   3.735   6.971   9.417  0.8451 -1.0656  0.4331
 7972TIP3    H248112   3.676   6.843   9.362 -0.8355  0.3086 -1.0997
 7973TIP3   OH248113   6.203   2.084   9.614  0.3634  0.0117  0.6807
 7973TIP3    H148114   6.254   2.072   9.694  0.7808 -0.7608  0.3191
 7973TIP3    H248115   6.258   2.139   9.558  0.3455  0.0352  0.6866
 7974TIP3   OH248116   0.366   3.282   9.985 -0.2017  0.2884  0.0571
 7974TIP3    H148117   0.276   3.315   9.982  0.1168  1.3802  1.5846
 7974TIP3    H248118   0.412   3.330   9.916 -0.6679  0.0711 -0.4127
 7975TIP3   OH248119   0.588   5.236   9.025  0.2275  0.3373 -0.1351
 7975TIP3    H148120   0.536   5.290   9.084  0.5458  0.9596 -0.4108
 7975TIP3    H248121   0.591   5.150   9.067  0.8342  0.8838  0.9824
 7976TIP3   OH248122   7.941   6.316   9.837 -0.2730 -0.1244  0.4509
 7976TIP3    H148123   7.976   6.244   9.784 -1.1075 -0.3090  0.1388
 7976TIP3    H248124   7.865   6.278   9.881  0.4517 -0.0049  1.8760
 7977TIP3   OH248125   8.094   8.398  10.607  0.6024 -0.7500  0.2325
 7977TIP3    H148126   8.110   8.347  10.528 -1.0890 -1.9368  0.5860
 7977TIP3    H248127   8.084   8.332  10.676 -0.8910  0.0737  0.8456
 7978TIP3   OH248128   8.365   1.911   9.790 -0.1817  0.1131 -0.4714
 7978TIP3    H148129   8.407   1.973   9.849  0.4284 -0.8401  0.1264
 7978TIP3    H248130   8.317   1.966   9.728 -1.3575  1.1309  1.2651
 7979TIP3   OH248131   1.010   7.998   9.508 -0.2338 -0.3464  0.2294
 7979TIP3    H148132   1.064   8.069   9.540 -1.3924  0.3608  0.6806
 7979TIP3    H248133   1.072   7.937   9.468  0.8065  0.7659  0.0871
 7980TIP3   OH248134   8.199   0.818   9.547 -0.3582 -0.2474  0.1006
 7980TIP3    H148135   8.182   0.743   9.604  0.5353 -0.8593 -0.4081
 7980TIP3    H248136   8.282   0.853   9.577 -0.1314 -0.2661 -0.4924
 7981TIP3   OH248137   3.396   3.458   9.424 -0.0175 -0.0865 -0.0162
 7981TIP3    H148138   3.377   3.482   9.515  0.1884 -1.1812  0.3224
 7981TIP3    H248139   3.366   3.368   9.415  1.2419 -0.4682 -0.6257
 7982TIP3   OH248140   2.732   0.846  10.476  0.2968 -0.5380 -0.1614
 7982TIP3    H148141   2.652   0.890  10.506  0.5514 -0.8843  1.1269
 7982TIP3    H248142   2.704   0.792  10.402 -0.5247 -0.1336 -0.1532
 7983TIP3   OH248143   6.547   6.723   9.597 -0.3319  0.2167 -0.3441
 7983TIP3    H148144   6.547   6.772   9.679  1.1210 -0.4955  0.1007
 7983TIP3    H248145   6.608   6.771   9.540  2.9864 -2.2179  0.8843
 7984TIP3   OH248146   5.066   0.633   9.793  0.0820  0.5286 -0.1028
 7984TIP3    H148147   5.022   0.598   9.870 -1.5919  1.8430 -0.3854
 7984TIP3    H248148   4.999   0.633   9.725  1.0788  0.8476 -1.1211
 7985TIP3   OH248149   2.026   3.707  10.098 -0.3148 -0.2642  0.1211
 7985TIP3    H148150   2.047   3.695  10.191 -0.0344  0.6120  0.1765
 7985TIP3    H248151   2.110   3.702  10.053 -0.5704 -1.9163 -0.2432
 7986TIP3   OH248152   4.353   4.801   9.884 -0.4395  0.2247  0.7338
 7986TIP3    H148153   4.271   4.759   9.857  0.0499  0.0104 -0.4990
 7986TIP3    H248154   4.334   4.895   9.878 -0.3371  0.1916 -0.5132
 7987TIP3   OH248155   1.850   6.107   9.678  0.0138 -0.1222 -0.2082
 7987TIP3    H148156   1.893   6.177   9.628  0.1952 -0.5498 -0.6571
 7987TIP3    H248157   1.759   6.111   9.651 -0.3191  0.9938  0.9802
 7988TIP3   OH248158   7.844   1.974   9.522  0.5434 -0.5628  0.4332
 7988TIP3    H148159   7.837   1.906   9.590 -3.1754 -0.7289  0.0492
 7988TIP3    H248160   7.814   1.931   9.442 -2.5672  1.5743  0.3030
 7989TIP3   OH248161   7.149   7.764  10.490 -0.4474 -0.1419  0.0116
 7989TIP3    H148162   7.190   7.740  10.407  0.2304  0.6695  0.0983
 7989TIP3    H248163   7.201   7.717  10.556 -0.0578  0.3756  0.0762
 7990TIP3   OH248164   4.066   0.712  10.205 -0.1823 -0.0148  0.1530
 7990TIP3    H148165   3.984   0.761  10.207  0.4903  1.1519  0.1553
 7990TIP3    H248166   4.130   0.771  10.245  0.8076 -0.6105 -0.5136
 7991TIP3   OH248167   0.301   3.535   9.022 -0.7430  0.4615  0.1461
 7991TIP3    H148168   0.300   3.606   9.085 -0.4783  2.6384 -2.1403
 7991TIP3    H248169   0.394   3.520   9.004 -0.7340 -1.3273  1.4403
 7992TIP3   OH248170   6.525   2.087  10.025 -0.1624  0.1148 -0.2574
 7992TIP3    H148171   6.562   2.172  10.046 -1.0163  0.3419  0.3984
 7992TIP3    H248172   6.544   2.032  10.101  0.6053 -0.3617 -0.7829
 7993TIP3   OH248173   7.889   1.610  10.396 -0.0793 -0.6498  0.7002
 7993TIP3    H148174   7.825   1.541  10.418 -0.5286 -1.1743 -1.9164
 7993TIP3    H248175   7.837   1.690  10.393  0.0124 -0.5469  1.5561
 7994TIP3   OH248176   6.343   5.477  11.058 -0.4693 -0.2124 -0.2727
 7994TIP3    H148177   6.430   5.444  11.082 -0.7856  0.9975  3.0430
 7994TIP3    H248178   6.354   5.572  11.059 -1.8258 -0.0504  0.1676
 7995TIP3   OH248179   1.386   6.129   8.881  0.1878 -0.8513 -0.5760
 7995TIP3    H148180   1.456   6.075   8.845 -0.0583 -0.5409 -1.5496
 7995TIP3    H248181   1.327   6.066   8.923  1.0716 -1.1048  0.3184
 7996TIP3   OH248182   4.814   1.535  10.592 -0.4950 -0.2969  0.1363
 7996TIP3    H148183   4.838   1.557  10.682  1.2350 -0.9324 -0.1272
 7996TIP3    H248184   4.724   1.502  10.598 -0.5743  0.1173  1.5474
 7997TIP3   OH248185   5.101   2.125  10.092 -0.1692 -0.0190 -0.3302
 7997TIP3    H148186   5.189   2.091  10.104 -0.1555 -0.2198 -0.9343
 7997TIP3    H248187   5.058   2.112  10.177 -0.0990 -1.3791 -0.4726
 7998TIP3   OH248188   6.758   5.235  10.083 -0.2482 -0.4538  0.8018
 7998TIP3    H148189   6.722   5.205  10.000  1.4893 -0.0816 -0.1306
 7998TIP3    H248190   6.682   5.267  10.132 -1.1181  1.2029 -1.4523
 7999TIP3   OH248191   0.876   1.149   9.268 -0.4153 -0.1416  0.1452
 7999TIP3    H148192   0.882   1.201   9.188 -1.6259 -0.8054 -0.4010
 7999TIP3    H248193   0.909   1.207   9.337 -0.0152  0.6838 -0.7248
 8000TIP3   OH248194   5.236   3.999   9.800  0.0031  0.6683 -0.3826
 8000TIP3    H148195   5.141   3.987   9.811  0.1001 -0.8285 -0.9585
 8000TIP3    H248196   5.247   4.018   9.707  0.4534 -1.6482 -0.8445
 8001TIP3   OH248197   3.946   3.126  10.640  0.1701  0.1239  0.5030
 8001TIP3    H148198   3.883   3.090  10.577  1.2176  0.4924 -0.7921
 8001TIP3    H248199   3.892   3.175  10.702 -0.8937 -0.2857 -0.0670
 8002TIP3   OH248200   0.755   2.022   8.960  0.0209 -0.2352  0.4702
 8002TIP3    H148201   0.772   2.051   9.049  0.0017  1.2037  0.0319
 8002TIP3    H248202   0.685   2.079   8.928 -0.5465 -1.2696 -0.1987
 8003TIP3   OH248203   0.895   2.339  10.221 -0.3457 -0.2550 -0.6122
 8003TIP3    H148204   0.956   2.345  10.148  1.3897 -1.0620  0.6942
 8003TIP3    H248205   0.950   2.351  10.299 -1.7878 -1.3726  0.6307
 8004TIP3   OH248206   2.758   3.400   9.670 -0.1471 -0.4850 -0.4644
 8004TIP3    H148207   2.846   3.433   9.690 -0.3294  0.3969 -1.0773
 8004TIP3    H248208   2.763   3.372   9.579 -0.9598  1.2498 -1.0877
 8005TIP3   OH248209   7.544   1.366   9.368  0.7021 -0.2470  0.1983
 8005TIP3    H148210   7.489   1.343   9.443  0.1702 -0.0390 -0.1203
 8005TIP3    H248211   7.618   1.306   9.373  0.7158 -0.1855  0.9336
 8006TIP3   OH248212   2.019   0.894   8.788 -0.5573 -0.0056  0.0601
 8006TIP3    H148213   1.999   0.866   8.878 -0.7744 -0.0693 -0.0072
 8006TIP3    H248214   1.937   0.932   8.757 -0.5290 -0.1344 -0.1696
 8007TIP3   OH248215   7.503   4.765   8.606  0.5144 -0.0499 -0.2033
 8007TIP3    H148216   7.492   4.777   8.511  1.2026  1.1014 -0.1538
 8007TIP3    H248217   7.418   4.790   8.642  0.7902  1.2757 -0.4042
 8008TIP3   OH248218   2.151   1.263   9.229 -0.5817 -0.7693 -0.2719
 8008TIP3    H148219   2.133   1.309   9.311 -1.3673  0.1010 -0.9146
 8008TIP3    H248220   2.129   1.326   9.161 -0.5522 -1.6985 -1.1610
 8009TIP3   OH248221   0.137   3.022   9.885 -0.0355 -0.3065  0.2961
 8009TIP3    H148222   0.196   2.991   9.817 -0.2120 -0.3012  0.1395
 8009TIP3    H248223   0.164   2.974   9.964  1.8336  1.5376  0.8655
 8010TIP3   OH248224   3.632   2.934  10.949 -0.1910  0.2135  0.0325
 8010TIP3    H148225   3.716   2.935  10.903  0.2170  3.0758  0.6323
 8010TIP3    H248226   3.593   3.019  10.929 -2.1280 -0.3412  1.2122
 8011TIP3   OH248227   5.876   4.855   9.108 -0.1092  0.1731 -0.1290
 8011TIP3    H148228   5.885   4.863   9.203  0.4187  1.3761 -0.2509
 8011TIP3    H248229   5.958   4.815   9.079  0.1137  0.6355 -0.1519
 8012TIP3   OH248230   5.895   3.222   9.114 -0.4280  0.9108 -0.1737
 8012TIP3    H148231   5.927   3.141   9.152  1.1987  1.6164  0.0529
 8012TIP3    H248232   5.809   3.200   9.078  0.1688 -1.0139 -0.5167
 8013TIP3   OH248233   7.106   2.756   9.016  0.0297  0.0254  0.3281
 8013TIP3    H148234   7.143   2.838   8.985 -1.2419 -0.3549 -2.5538
 8013TIP3    H248235   7.181   2.697   9.023  0.4550  0.1575 -2.2399
 8014TIP3   OH248236   7.010   8.269  10.268 -0.1929 -0.1949 -0.0835
 8014TIP3    H148237   6.928   8.232  10.300 -0.0259  0.1208  0.7350
 8014TIP3    H248238   7.075   8.200  10.281  0.3353  0.6895  2.4426
 8015TIP3   OH248239   7.374   6.808   9.287 -0.1474  0.2364 -0.1779
 8015TIP3    H148240   7.335   6.886   9.327 -0.6917 -0.6718  1.1326
 8015TIP3    H248241   7.324   6.796   9.206 -0.4849  0.8807 -0.0749
 8016TIP3   OH248242   7.926   0.681   9.446  0.6931  0.5172  0.1656
 8016TIP3    H148243   8.000   0.637   9.489 -0.2268 -1.3098 -0.0070
 8016TIP3    H248244   7.867   0.704   9.517  1.3932  1.9869  0.3040
 8017TIP3   OH248245   1.453   5.853   9.353 -0.2192 -0.1057  0.5615
 8017TIP3    H148246   1.375   5.887   9.397 -0.9712  1.2800 -1.6598
 8017TIP3    H248247   1.420   5.815   9.271  1.4100  0.6737 -0.5128
 8018TIP3   OH248248   3.854   3.082  10.335 -0.4303  0.0923 -0.1640
 8018TIP3    H148249   3.886   3.172  10.334  0.4324 -0.2020 -0.3272
 8018TIP3    H248250   3.803   3.075  10.416 -1.1637  0.9333 -0.5343
 8019TIP3   OH248251   6.254   7.090   8.624 -0.4744  0.1915  0.3405
 8019TIP3    H148252   6.321   7.141   8.578  0.0405 -0.4793  0.3241
 8019TIP3    H248253   6.302   7.044   8.692 -0.5970 -1.5860 -0.7013
 8020TIP3   OH248254   0.109   6.038   8.792 -0.4688 -0.3404 -0.2161
 8020TIP3    H148255   0.167   6.101   8.749 -2.5938  0.5216 -2.0152
 8020TIP3    H248256   0.149   5.952   8.773  0.7324  0.2616 -0.5328
 8021TIP3   OH248257   5.166   5.595   9.609 -0.1050 -0.1029 -0.0073
 8021TIP3    H148258   5.089   5.548   9.576  0.0335 -0.4617  0.1836
 8021TIP3    H248259   5.221   5.528   9.647  1.0263 -0.0725 -1.5026
 8022TIP3   OH248260   5.615   2.179   9.532 -0.4183  0.1471  0.0003
 8022TIP3    H148261   5.541   2.142   9.580 -0.4608 -0.8675 -0.8142
 8022TIP3    H248262   5.674   2.105   9.518  0.4180  0.7992  0.0294
 8023TIP3   OH248263   5.450   3.806   8.883 -0.0207 -0.1329  0.0243
 8023TIP3    H148264   5.517   3.874   8.882  0.3673 -0.4424  1.5957
 8023TIP3    H248265   5.389   3.833   8.952 -1.2318 -0.1296 -1.0297
 8024TIP3   OH248266   2.930   5.619  10.091 -0.2021  0.8989 -0.3335
 8024TIP3    H148267   2.853   5.671  10.116  0.8144  1.6259  1.5545
 8024TIP3    H248268   3.004   5.674  10.116  0.9564 -1.5436  2.1262
 8025TIP3   OH248269   7.917   3.723  11.227  0.1333 -0.0502 -0.5406
 8025TIP3    H148270   7.975   3.776  11.172  1.8948 -1.0531  0.2886
 8025TIP3    H248271   7.877   3.787  11.287  0.1134  0.7005 -1.3310
 8026TIP3   OH248272   4.299   1.412   9.280 -0.4079 -0.2387  0.0418
 8026TIP3    H148273   4.276   1.473   9.209 -0.7682 -0.9504 -0.4682
 8026TIP3    H248274   4.217   1.399   9.327  0.2162  1.7266  1.8128
 8027TIP3   OH248275   3.873   0.474   9.880 -0.1757  0.4194  0.0060
 8027TIP3    H148276   3.790   0.490   9.835  0.1747 -1.4604 -1.4393
 8027TIP3    H248277   3.850   0.419   9.955 -0.2116 -0.7847 -0.8442
 8028TIP3   OH248278   3.693   0.547  10.971  0.3621  0.1289 -0.1342
 8028TIP3    H148279   3.658   0.634  10.990 -2.5383 -1.1008  0.7523
 8028TIP3    H248280   3.699   0.505  11.057 -0.4657 -1.2729 -0.7389
 8029TIP3   OH248281   1.637   2.193  10.862  0.2789 -0.0471  0.5246
 8029TIP3    H148282   1.661   2.229  10.776  2.6782 -1.3444  0.5729
 8029TIP3    H248283   1.710   2.217  10.919 -1.2542  0.7622  2.2759
 8030TIP3   OH248284   7.522   1.979   8.960  0.5819  0.4141  0.1044
 8030TIP3    H148285   7.517   2.071   8.932 -1.6442  0.5981  0.8846
 8030TIP3    H248286   7.433   1.957   8.986  1.3331 -1.5893  1.2162
 8031TIP3   OH248287   5.385   7.393   9.677  0.4630  0.5478  0.6293
 8031TIP3    H148288   5.327   7.454   9.632 -0.1205 -1.0903 -0.9540
 8031TIP3    H248289   5.328   7.347   9.738  0.3101 -0.2269 -0.0758
 8032TIP3   OH248290   0.487   1.962   9.526 -0.4371  0.7056  0.1808
 8032TIP3    H148291   0.545   1.965   9.602  0.5762  0.7075 -0.5672
 8032TIP3    H248292   0.408   1.918   9.558  1.0910 -1.9824  0.5385
 8033TIP3   OH248293   4.860   0.007   9.359 -0.2281 -0.0971 -0.3235
 8033TIP3    H148294   4.887  -0.078   9.393 -1.2044 -1.5510 -2.8487
 8033TIP3    H248295   4.935   0.038   9.309 -0.1404  0.1598 -0.0335
 8034TIP3   OH248296   5.553   0.505   9.314  0.1077  0.3929 -0.2493
 8034TIP3    H148297   5.569   0.553   9.232  1.3246 -1.0960 -0.9212
 8034TIP3    H248298   5.528   0.417   9.286  1.0001 -0.2730  0.9814
 8035TIP3   OH248299   0.172   1.181   8.521 -0.1069  0.2970  0.4581
 8035TIP3    H148300   0.099   1.158   8.579  0.1012  0.0035  0.6041
 8035TIP3    H248301   0.165   1.276   8.512 -0.7105  0.2386  0.1966
 8036TIP3   OH248302   0.145   5.717   9.898  0.0372 -0.1530  0.1883
 8036TIP3    H148303   0.128   5.635   9.851  0.4925  0.3217 -0.8456
 8036TIP3    H248304   0.154   5.691   9.990 -0.6492 -1.1423 -0.0120
 8037TIP3   OH248305   4.845   7.638   9.385 -0.1570  0.2978 -0.2598
 8037TIP3    H148306   4.818   7.565   9.441 -0.5294 -0.0411 -0.8591
 8037TIP3    H248307   4.930   7.612   9.352  0.3337  0.7692  0.6021
 8038TIP3   OH248308   2.828   0.623   8.475  0.2350 -0.2793  0.4855
 8038TIP3    H148309   2.890   0.637   8.403 -0.1379  1.9935  0.5420
 8038TIP3    H248310   2.761   0.689   8.462  0.2393  0.3127  3.0122
 8039TIP3   OH248311   5.598   0.662   9.098 -0.1461  0.0692  0.1055
 8039TIP3    H148312   5.525   0.670   9.036 -0.1883 -2.9522 -0.4043
 8039TIP3    H248313   5.643   0.747   9.093 -2.8943  1.6114 -0.4391
 8040TIP3   OH248314   4.772   3.486   8.696 -0.5251 -0.4401  0.0780
 8040TIP3    H148315   4.764   3.578   8.718 -1.1034 -0.3867 -0.3585
 8040TIP3    H248316   4.843   3.454   8.753 -0.9063  0.0663  0.8554
 8041TIP3   OH248317   2.668   4.785   9.878 -0.1857 -0.6101 -0.0707
 8041TIP3    H148318   2.640   4.870   9.846 -0.0263 -0.6632 -0.3533
 8041TIP3    H248319   2.604   4.724   9.841  0.1292 -0.6974 -0.4699
 8042TIP3   OH248320   5.660   2.291   8.827 -0.5188 -0.3218 -0.0771
 8042TIP3    H148321   5.748   2.325   8.812 -0.8745  0.6568  0.0015
 8042TIP3    H248322   5.602   2.360   8.795 -1.2622 -1.0548 -0.3428
 8043TIP3   OH248323   5.036   7.994  10.027 -0.0671 -0.1552  0.0313
 8043TIP3    H148324   4.948   8.013  10.059 -1.6765 -1.7128 -2.9892
 8043TIP3    H248325   5.043   7.898  10.034  1.7667  0.0115  0.9886
 8044TIP3   OH248326   7.301   7.996   9.490 -0.8017 -0.7957 -0.5946
 8044TIP3    H148327   7.364   8.051   9.536 -0.2865 -1.5360 -0.3852
 8044TIP3    H248328   7.281   8.044   9.410 -0.3737 -0.3045 -0.4136
 8045TIP3   OH248329   5.466   2.910  10.022  0.2159  0.3124  0.2303
 8045TIP3    H148330   5.527   2.890  10.093 -1.6555 -0.6713  1.6622
 8045TIP3    H248331   5.474   2.837   9.962  0.5534  0.2717  0.3239
 8046TIP3   OH248332   7.532   4.852  10.012 -0.1051  0.3457 -0.4113
 8046TIP3    H148333   7.509   4.768   9.972  0.0134 -0.3033  0.8232
 8046TIP3    H248334   7.461   4.911   9.986  0.2879  0.1206 -2.0524
 8047TIP3   OH248335   1.620   8.187   9.561  0.9496 -0.0716 -0.5859
 8047TIP3    H148336   1.601   8.246   9.488  0.0931 -1.0253 -1.1646
 8047TIP3    H248337   1.649   8.244   9.632 -1.4045  1.2330 -0.5776
 8048TIP3   OH248338   6.310   6.251   9.790 -0.2948  0.0228 -0.8826
 8048TIP3    H148339   6.231   6.302   9.770 -0.6841 -0.4367 -0.5587
 8048TIP3    H248340   6.339   6.217   9.705 -0.5250  0.0831 -0.9867
 8049TIP3   OH248341   3.860   0.882  10.251  0.1942  1.0119 -0.6354
 8049TIP3    H148342   3.771   0.909  10.274 -0.5922 -0.4461 -1.8185
 8049TIP3    H248343   3.899   0.959  10.209 -1.1781  1.0821 -1.8260
 8050TIP3   OH248344   1.068   1.607   9.597 -0.3049 -0.3648 -0.3899
 8050TIP3    H148345   1.083   1.634   9.506  0.0828 -1.8324 -0.7844
 8050TIP3    H248346   1.052   1.513   9.592 -3.0769 -0.0447  0.7802
 8051TIP3   OH248347   7.756   6.034   9.508 -0.3002  0.5947 -0.3360
 8051TIP3    H148348   7.663   6.020   9.489  0.0415 -1.8245 -0.6388
 8051TIP3    H248349   7.797   6.039   9.421 -0.3520  4.0684 -0.2660
 8052TIP3   OH248350   6.112   4.040  10.567  0.1928 -0.3093  0.4685
 8052TIP3    H148351   6.157   4.105  10.514 -0.1845  0.9868  1.6814
 8052TIP3    H248352   6.053   3.996  10.506  1.2286 -0.2729 -0.5874
 8053TIP3   OH248353   1.402   6.140  10.255 -0.1447  0.2819  0.0618
 8053TIP3    H148354   1.455   6.211  10.221 -0.0391 -0.5821 -1.6790
 8053TIP3    H248355   1.337   6.122  10.187 -2.4434  0.9851  1.9137
 8054TIP3   OH248356   8.446   3.837  10.701  0.3216 -0.2040 -0.1399
 8054TIP3    H148357   8.497   3.792  10.633 -0.6843 -2.1619  0.3324
 8054TIP3    H248358   8.451   3.929  10.677  2.4944 -0.5177 -1.1594
 8055TIP3   OH248359   2.184   4.829  10.140  0.6100  0.2235  0.0976
 8055TIP3    H148360   2.157   4.743  10.171 -2.1791  0.8425 -0.3087
 8055TIP3    H248361   2.142   4.891  10.200  1.7162  1.3217 -0.2204
 8056TIP3   OH248362   6.402   7.779   9.273 -0.3644  0.0410 -0.1774
 8056TIP3    H148363   6.418   7.776   9.179  1.1695 -1.1250  0.0738
 8056TIP3    H248364   6.442   7.861   9.302  0.1876 -0.1536 -0.3819
 8057TIP3   OH248365   4.085   4.222   8.957  0.0137 -0.1133 -0.1977
 8057TIP3    H148366   4.093   4.164   9.033  0.9173 -1.0444 -0.9772
 8057TIP3    H248367   3.998   4.203   8.922 -1.2325  1.6868  1.6311
 8058TIP3   OH248368   1.865   3.250  10.817 -0.0418  0.1863  0.6368
 8058TIP3    H148369   1.812   3.322  10.783  1.9521  0.3818 -2.4007
 8058TIP3    H248370   1.955   3.281  10.810  0.7902 -2.0559  0.6813
 8059TIP3   OH248371   5.507   2.450  10.123  0.2869 -0.1384 -0.5423
 8059TIP3    H148372   5.416   2.431  10.144  0.1875  0.9525  0.0893
 8059TIP3    H248373   5.503   2.500  10.042  0.2906  0.2156 -0.3270
 8060TIP3   OH248374   6.886   7.630   9.672  0.1146  0.2348 -0.0879
 8060TIP3    H148375   6.886   7.703   9.734 -0.1510  0.1918 -0.0370
 8060TIP3    H248376   6.818   7.652   9.609  0.6937  0.5034 -0.6352
 8061TIP3   OH248377   0.236   4.413   9.945  0.2463 -0.2996  0.1948
 8061TIP3    H148378   0.177   4.487   9.960  0.1978 -0.5305  1.2341
 8061TIP3    H248379   0.190   4.338   9.982  1.3434 -0.4182  1.3790
 8062TIP3   OH248380   2.056   1.486  10.733 -0.3981 -0.7792 -0.1246
 8062TIP3    H148381   2.117   1.434  10.786 -0.3491  0.2213  0.8470
 8062TIP3    H248382   2.087   1.476  10.643 -0.7013 -2.8307 -0.0583
 8063TIP3   OH248383   1.496   0.761   9.888  0.0918  0.1275 -0.0229
 8063TIP3    H148384   1.411   0.748   9.930  0.3746  0.8534  0.7951
 8063TIP3    H248385   1.477   0.757   9.794 -0.6812 -0.6742  0.1484
 8064TIP3   OH248386   2.090   7.915   8.809  0.6627 -0.4954 -0.1164
 8064TIP3    H148387   2.083   7.846   8.743 -0.1495 -1.2465  0.7221
 8064TIP3    H248388   2.182   7.914   8.836  0.8627 -0.5949 -0.7860
 8065TIP3   OH248389   5.558   2.210   9.966 -0.7656  0.4652 -0.0483
 8065TIP3    H148390   5.517   2.294   9.948 -0.7080  0.0150 -2.6008
 8065TIP3    H248391   5.490   2.145   9.948  0.3857 -0.1867 -2.4351
 8066TIP3   OH248392   3.663   8.322   9.209 -0.5508 -0.6726 -1.0095
 8066TIP3    H148393   3.698   8.239   9.243  0.2435  1.4143  4.1944
 8066TIP3    H248394   3.568   8.312   9.217 -0.5267  0.0717  4.1749
 8067TIP3   OH248395   0.660   4.948   9.061 -0.2385 -0.5459  0.3563
 8067TIP3    H148396   0.686   4.885   9.129  0.7963 -0.2288  0.2643
 8067TIP3    H248397   0.630   4.893   8.989 -0.5284 -0.9046  0.7394
 8068TIP3   OH248398   1.454   5.652   9.789 -0.1673 -0.5517  0.2271
 8068TIP3    H148399   1.426   5.593   9.859 -0.6645  0.7479  1.1683
 8068TIP3    H248400   1.485   5.594   9.720  0.5576 -1.8879  1.6028
 8069TIP3   OH248401   7.489   6.880   8.783 -0.3842  1.0469 -0.0356
 8069TIP3    H148402   7.513   6.965   8.821  1.6630  0.0756  0.9788
 8069TIP3    H248403   7.484   6.898   8.689  0.3917  2.2102  0.1199
 8070TIP3   OH248404   1.795   4.778   8.806 -0.6574  0.0172  0.3457
 8070TIP3    H148405   1.759   4.718   8.741 -1.7931 -1.0901  1.9167
 8070TIP3    H248406   1.873   4.733   8.840  0.1496  0.7582 -0.4533
 8071TIP3   OH248407   6.857   1.629   9.588  1.2062 -0.9353  0.0929
 8071TIP3    H148408   6.805   1.549   9.586 -0.9149  0.3642 -1.6623
 8071TIP3    H248409   6.891   1.638   9.499 -0.1284  0.9758 -0.2902
 8072TIP3   OH248410   6.510   7.501   9.339  0.3585 -0.0042  0.3509
 8072TIP3    H148411   6.534   7.581   9.292  0.8741  0.6257  1.6337
 8072TIP3    H248412   6.429   7.471   9.296 -0.1062  1.4705  0.1491
 8073TIP3   OH248413   0.952   5.892  10.020 -0.4431 -0.2504  0.5836
 8073TIP3    H148414   0.989   5.873  10.107 -0.4928  2.1583  1.2121
 8073TIP3    H248415   1.025   5.879   9.960 -0.6127 -2.7582  0.7996
 8074TIP3   OH248416   0.754   4.465   9.694  0.0314  0.2341  0.0139
 8074TIP3    H148417   0.711   4.432   9.615 -0.4782 -0.1978  0.4628
 8074TIP3    H248418   0.693   4.529   9.730 -0.6240 -0.9575  1.0854
 8075TIP3   OH248419   1.390   0.196   9.146 -0.5390 -0.4839 -0.3656
 8075TIP3    H148420   1.418   0.269   9.202 -0.6745  0.1807 -1.1448
 8075TIP3    H248421   1.471   0.151   9.124 -0.3297  0.0805 -0.7647
 8076TIP3   OH248422   3.716   3.259   8.841  0.4003  0.5950 -0.2845
 8076TIP3    H148423   3.667   3.235   8.920  0.8987  0.2051 -0.0822
 8076TIP3    H248424   3.649   3.271   8.773  0.0189  0.2213  0.0196
 8077TIP3   OH248425   6.730   3.715   9.088 -0.6970 -0.9636 -0.4252
 8077TIP3    H148426   6.709   3.677   9.174  0.1179 -0.6745 -0.0812
 8077TIP3    H248427   6.648   3.754   9.058 -0.4997  1.0014  1.3127
 8078TIP3   OH248428   3.233   4.540   8.731  0.4249 -0.7400  0.5073
 8078TIP3    H148429   3.182   4.621   8.724 -0.6742 -1.4872 -0.7424
 8078TIP3    H248430   3.320   4.568   8.757  0.6146  1.0892 -1.7587
 8079TIP3   OH248431   8.303   6.652  11.332 -0.2552  0.5265 -0.1809
 8079TIP3    H148432   8.303   6.742  11.366 -0.0216 -0.3675  2.4127
 8079TIP3    H248433   8.210   6.633  11.317 -0.7042  0.1916  2.4500
 8080TIP3   OH248434   4.684   5.573   9.721 -0.0006 -0.7177 -0.0027
 8080TIP3    H148435   4.682   5.491   9.671  1.4703 -0.8889  0.1741
 8080TIP3    H248436   4.649   5.549   9.807 -1.6754 -0.6245 -0.6102
 8081TIP3   OH248437   2.493   7.695   8.426  0.1164  0.2692 -0.2496
 8081TIP3    H148438   2.573   7.748   8.425  0.5454 -0.3614 -0.2842
 8081TIP3    H248439   2.505   7.633   8.354  0.3780 -0.9485  0.8071
 8082TIP3   OH248440   5.922   6.468  10.015 -0.1535 -0.4869  0.0880
 8082TIP3    H148441   5.883   6.385   9.990  0.5935 -0.8412  0.0827
 8082TIP3    H248442   5.879   6.491  10.098 -1.6334  0.0084 -0.7820
 8083TIP3   OH248443   6.739   5.269   9.168  0.2301 -0.4794  0.1831
 8083TIP3    H148444   6.797   5.231   9.234  0.6483  0.6571  0.4920
 8083TIP3    H248445   6.796   5.284   9.093 -0.1185 -1.2146 -0.2407
 8084TIP3   OH248446   1.542   5.888  10.825  0.1931 -0.2085  0.6827
 8084TIP3    H148447   1.509   5.973  10.796 -1.0595 -0.0331  2.4469
 8084TIP3    H248448   1.617   5.909  10.880 -0.4762 -0.1696  1.6065
 8085TIP3   OH248449   3.503   0.754   9.817 -0.3889  1.1174  0.1083
 8085TIP3    H148450   3.526   0.748   9.910 -1.5378 -3.0831  0.2962
 8085TIP3    H248451   3.581   0.721   9.772 -1.1844 -0.5175 -0.1128
 8086TIP3   OH248452   7.199   0.841   9.853  0.4641  0.2387 -0.2308
 8086TIP3    H148453   7.190   0.755   9.812 -3.1379  0.1858  0.3691
 8086TIP3    H248454   7.158   0.830   9.939  3.4622  1.6108  1.5356
 8087TIP3   OH248455   1.397   2.492   9.180 -0.2791  0.3688 -0.3811
 8087TIP3    H148456   1.403   2.563   9.244  0.4418 -1.3837  1.6004
 8087TIP3    H248457   1.462   2.427   9.209 -2.0894 -1.8837 -1.0547
 8088TIP3   OH248458   6.367   6.245  10.920  0.1204  0.0335 -0.3660
 8088TIP3    H148459   6.332   6.190  10.990 -0.3484  2.6402  1.5871
 8088TIP3    H248460   6.289   6.283  10.879  0.4665  0.1571 -0.9192
 8089TIP3   OH248461   0.778   0.137   8.668 -0.1401  0.0091  0.3113
 8089TIP3    H148462   0.705   0.091   8.710 -0.8368  0.7518 -0.0741
 8089TIP3    H248463   0.740   0.218   8.635  0.7018  0.0746 -0.5336
 8090TIP3   OH248464   5.793   3.999  10.883  0.1128  0.2805 -0.3896
 8090TIP3    H148465   5.754   4.073  10.836 -0.3355 -0.5557 -1.3821
 8090TIP3    H248466   5.725   3.932  10.883  0.1012  0.2559  1.5072
 8091TIP3   OH248467   1.154   1.666   8.833 -0.7057  0.3864  0.0728
 8091TIP3    H148468   1.101   1.588   8.849  0.3212 -0.2252  0.6152
 8091TIP3    H248469   1.092   1.739   8.837 -1.6141 -0.3731 -0.0592
 8092TIP3   OH248470   1.710   0.729  10.618 -0.2231 -0.1383  0.0473
 8092TIP3    H148471   1.633   0.675  10.635 -0.5927  0.2346 -0.4099
 8092TIP3    H248472   1.688   0.778  10.539  0.9816 -0.9466 -0.8004
 8093TIP3   OH248473   4.062   1.806   9.973 -0.3668  0.1753 -0.7513
 8093TIP3    H148474   3.973   1.816   9.941 -0.4641  0.1403 -0.4957
 8093TIP3    H248475   4.110   1.769   9.900 -0.4552  0.6398 -1.0516
 8094TIP3   OH248476   4.149   0.596   9.110  0.1453 -0.5060 -0.3424
 8094TIP3    H148477   4.154   0.640   9.194 -1.2858  0.8187 -0.9103
 8094TIP3    H248478   4.231   0.619   9.066  0.8535 -1.1243  0.6297
 8095TIP3   OH248479   1.313   5.420   9.435 -0.5874 -0.1118  0.1608
 8095TIP3    H148480   1.255   5.478   9.485 -1.0616 -0.1187 -0.3586
 8095TIP3    H248481   1.288   5.436   9.343 -0.3583 -0.7527 -0.0156
 8096TIP3   OH248482   3.515   4.472  10.071 -0.5506  0.3348 -0.0823
 8096TIP3    H148483   3.480   4.522   9.997 -1.0402 -0.0336 -0.1090
 8096TIP3    H248484   3.583   4.416  10.032  1.4937  2.4407  0.2821
 8097TIP3   OH248485   0.515   0.365   9.205 -0.0119 -0.3568  0.3585
 8097TIP3    H148486   0.484   0.427   9.270 -1.2447  0.6471 -1.1052
 8097TIP3    H248487   0.457   0.289   9.214 -0.5054 -0.0143  0.1239
 8098TIP3   OH248488   3.415   2.332   9.194  0.4256  0.5635 -0.0518
 8098TIP3    H148489   3.442   2.266   9.258 -0.0744 -0.9615 -1.3465
 8098TIP3    H248490   3.341   2.292   9.148  1.5527  1.0289 -2.4419
 8099TIP3   OH248491   0.683   1.281  10.728 -0.0991  0.5924 -0.0446
 8099TIP3    H148492   0.614   1.347  10.737  0.3430  1.1942 -0.9627
 8099TIP3    H248493   0.649   1.205  10.775 -0.7482  1.3650  0.7746
 8100TIP3   OH248494   4.844   2.474   9.975 -0.2510  0.3052 -0.3521
 8100TIP3    H148495   4.775   2.520  10.022 -1.4239  0.1110 -1.8224
 8100TIP3    H248496   4.798   2.420   9.911  0.9159 -3.9358  1.9850
 8101TIP3   OH248497   0.740   3.052  11.068 -0.0981  0.4054 -0.4106
 8101TIP3    H148498   0.768   3.014  10.985  0.6215  0.9381 -0.4206
 8101TIP3    H248499   0.821   3.081  11.110 -0.2967 -1.0947  1.1044
 8102TIP3   OH248500   7.162   1.546   9.265  0.0423 -0.4171 -0.2863
 8102TIP3    H148501   7.150   1.539   9.360  0.2605 -2.7786 -0.3731
 8102TIP3    H248502   7.079   1.580   9.233  0.3864  1.6306  0.8173
 8103TIP3   OH248503   0.687   2.826  10.210 -0.1430  0.1060 -0.0600
 8103TIP3    H148504   0.713   2.734  10.214  0.9547  0.3602 -0.8408
 8103TIP3    H248505   0.744   2.864  10.143 -0.7876  1.2908  0.0369
 8104TIP3   OH248506   0.132   2.874  10.513 -0.3012  0.4929 -0.1173
 8104TIP3    H148507   0.208   2.817  10.525 -0.4283  0.4339  0.4646
 8104TIP3    H248508   0.061   2.815  10.489 -0.0095  0.6290 -1.3867
 8105TIP3   OH248509   6.217   6.612   8.996  0.4502  0.1375  0.1413
 8105TIP3    H148510   6.127   6.580   8.982 -0.2635  0.5697  3.0616
 8105TIP3    H248511   6.229   6.679   8.929 -1.1336 -0.3997 -0.7561
 8106TIP3   OH248512   6.911   7.626   9.322  0.0574 -0.0076 -0.3098
 8106TIP3    H148513   6.878   7.694   9.264 -0.7663  0.1470  0.3258
 8106TIP3    H248514   6.963   7.673   9.387 -0.4596  0.0098  0.0926
 8107TIP3   OH248515   5.500   7.202  10.361 -0.3681  0.1034  0.3067
 8107TIP3    H148516   5.458   7.150  10.293  0.8667  0.0205 -0.4294
 8107TIP3    H248517   5.587   7.163  10.371  0.1460  1.2634  0.5955
 8108TIP3   OH248518   3.055   8.136   8.523  0.0042 -0.4574  0.1572
 8108TIP3    H148519   3.013   8.221   8.536  1.9964  0.9287 -1.8814
 8108TIP3    H248520   2.991   8.086   8.472 -0.4739  0.4515 -0.1628
 8109TIP3   OH248521   7.470   8.062   8.619  0.5357  0.1567  0.4975
 8109TIP3    H148522   7.546   8.120   8.619 -0.0585  0.9825  1.9126
 8109TIP3    H248523   7.422   8.086   8.539  1.2415  0.3216  0.1164
 8110TIP3   OH248524   3.552   3.140   9.824 -0.3455  0.6339 -0.0433
 8110TIP3    H148525   3.464   3.167   9.797  0.1004  0.2854 -2.0014
 8110TIP3    H248526   3.554   3.046   9.807  0.3910  0.6285  0.0331
 8111TIP3   OH248527   7.670   4.149  10.366 -0.1522  0.0204  0.1252
 8111TIP3    H148528   7.608   4.174  10.434 -0.8271 -0.2475 -0.3731
 8111TIP3    H248529   7.704   4.065  10.395 -0.1530  0.0875  0.3219
 8112TIP3   OH248530   5.896   5.135   9.421  0.1841  0.6987  0.5493
 8112TIP3    H148531   5.845   5.215   9.419 -0.5177  0.2494 -1.4924
 8112TIP3    H248532   5.986   5.162   9.400  0.4102  1.1953  2.0244
 8113TIP3   OH248533   6.272   1.764   9.898  0.5499 -0.0400  0.0943
 8113TIP3    H148534   6.333   1.706   9.943  0.6209  1.2399  1.7408
 8113TIP3    H248535   6.232   1.709   9.830  1.6480 -1.5888  0.6525
 8114TIP3   OH248536   1.342   8.312   8.742  0.1587  0.4586 -0.0544
 8114TIP3    H148537   1.299   8.282   8.822  1.4148  0.3390  0.6025
 8114TIP3    H248538   1.301   8.262   8.672  0.6363 -1.1653  0.7719
 8115TIP3   OH248539   2.748   0.317   8.526 -0.4391  0.1013 -0.2136
 8115TIP3    H148540   2.684   0.322   8.597 -0.8155 -0.0467 -0.5397
 8115TIP3    H248541   2.751   0.406   8.491 -1.1097 -0.0826 -0.7560
 8116TIP3   OH248542   7.440   2.728   9.382  0.4774 -0.0528 -0.2888
 8116TIP3    H148543   7.465   2.781   9.458 -0.9803  0.9502 -0.4599
 8116TIP3    H248544   7.419   2.792   9.314 -0.3305 -0.8667 -0.8303
 8117TIP3   OH248545   3.193   4.049   9.440  0.5820  0.7077 -0.7089
 8117TIP3    H148546   3.278   4.070   9.479  1.2640  1.5209 -2.5487
 8117TIP3    H248547   3.179   4.117   9.374 -1.0913  0.0734 -1.0514
 8118TIP3   OH248548   2.424   5.832   9.764 -0.2657  0.0520 -0.3796
 8118TIP3    H148549   2.435   5.859   9.855 -1.7931  0.0493 -0.1790
 8118TIP3    H248550   2.495   5.877   9.717  0.1953  0.4922  0.7096
 8119TIP3   OH248551   4.257   8.022  10.096 -0.2269  0.5133 -0.7486
 8119TIP3    H148552   4.265   7.933  10.130  0.8705  0.5473 -0.8926
 8119TIP3    H248553   4.268   8.078  10.173 -0.9932  0.5334 -0.6459
 8120TIP3   OH248554   2.970   2.603   9.887 -0.1206  0.2019  0.0472
 8120TIP3    H148555   2.914   2.680   9.871 -1.8855 -0.8876  0.7060
 8120TIP3    H248556   2.909   2.534   9.911  1.3829 -1.5677 -1.0041
 8121TIP3   OH248557   6.832   2.667   8.989 -0.9145 -0.0682 -0.0155
 8121TIP3    H148558   6.924   2.694   8.989 -0.4169 -1.4969 -2.1402
 8121TIP3    H248559   6.808   2.666   8.896 -2.2056 -2.4632  0.2672
 8122TIP3   OH248560   3.183   7.682  15.453 -0.6178  0.6143  0.8392
 8122TIP3    H148561   3.222   7.701  15.538  0.2055  0.1089  0.5784
 8122TIP3    H248562   3.097   7.644  15.475 -0.6625  1.0255  1.4216
 8123TIP3   OH248563   2.447   3.517   9.891  0.2815  0.2165 -0.4509
 8123TIP3    H148564   2.395   3.471   9.824 -1.2986  0.1569  0.7426
 8123TIP3    H248565   2.490   3.446   9.939 -1.5319 -0.0670  0.8877
 8124TIP3   OH248566   5.668   0.917   8.970  0.3590  0.1446 -0.4447
 8124TIP3    H148567   5.633   1.004   8.989  0.5422 -0.1780  1.5639
 8124TIP3    H248568   5.668   0.912   8.874  0.0332  2.2169 -0.6050
 8125TIP3   OH248569   1.245   8.220   9.754  0.2135 -0.1042  0.0823
 8125TIP3    H148570   1.171   8.210   9.814 -0.2366  0.6541 -0.3304
 8125TIP3    H248571   1.208   8.201   9.667  0.5109  0.2392 -0.1201
 8126TIP3   OH248572   0.128   6.917   9.062  0.1652 -0.1457  0.7448
 8126TIP3    H148573   0.136   6.822   9.053  0.1561  0.0107 -1.4425
 8126TIP3    H248574   0.201   6.952   9.011  0.1962  1.0343  1.5721
 8127TIP3   OH248575   1.951   5.802  11.319  0.1806  0.1361 -0.0183
 8127TIP3    H148576   1.983   5.889  11.296 -0.1749 -0.2740 -2.3393
 8127TIP3    H248577   1.966   5.750  11.240  0.2640 -1.8948  1.2583
 8128TIP3   OH248578   0.734   6.271   9.626  0.0710 -0.3177  0.0897
 8128TIP3    H148579   0.783   6.211   9.682 -0.5241  0.3560  1.3644
 8128TIP3    H248580   0.656   6.222   9.600 -0.2081 -0.2517  0.7847
 8129TIP3   OH248581   6.111   0.573   8.741  0.2484 -0.0447  0.0624
 8129TIP3    H148582   6.188   0.516   8.743  0.7141  0.3757 -2.4921
 8129TIP3    H248583   6.036   0.513   8.740  0.5519 -0.4740  1.1401
 8130TIP3   OH248584   4.237   1.030   8.900 -0.0851 -1.0076  0.1028
 8130TIP3    H148585   4.308   1.083   8.937 -0.5873 -0.4110  0.2245
 8130TIP3    H248586   4.282   0.965   8.845  0.5662 -0.7763  0.3523
 8131TIP3   OH248587   0.701   7.462  11.127 -0.1119 -0.1327 -0.6383
 8131TIP3    H148588   0.650   7.457  11.208  1.7529  0.5060  0.6317
 8131TIP3    H248589   0.709   7.372  11.097 -1.6326 -0.2811 -0.6868
 8132TIP3   OH248590   8.269   8.298   9.799 -0.6531 -0.0074 -0.2264
 8132TIP3    H148591   8.202   8.322   9.863 -0.6331  1.9232 -0.8610
 8132TIP3    H248592   8.352   8.313   9.844 -0.6368 -0.8786  0.0424
 8133TIP3   OH248593   0.842   4.463  11.063  0.2847  0.3351 -0.8758
 8133TIP3    H148594   0.863   4.369  11.062 -0.7452 -0.0060  1.6610
 8133TIP3    H248595   0.919   4.505  11.026  1.2192 -1.4495 -1.0887
 8134TIP3   OH248596   3.199   0.364  14.672 -0.1148  0.7963  0.5636
 8134TIP3    H148597   3.131   0.317  14.625 -0.2117 -0.2497  1.7006
 8134TIP3    H248598   3.202   0.323  14.759  1.4168  1.3297  0.8077
 8135TIP3   OH248599   6.365   0.073  10.812 -0.0136  0.1301  0.4638
 8135TIP3    H148600   6.426   0.003  10.786 -0.9121 -1.0875  1.4692
 8135TIP3    H248601   6.416   0.153  10.804  0.1718 -0.2078 -3.6848
 8136TIP3   OH248602   2.484   3.878   9.250 -0.1244 -0.2939  0.0853
 8136TIP3    H148603   2.389   3.876   9.263 -0.4193 -1.1994 -1.8354
 8136TIP3    H248604   2.500   3.959   9.202  0.1673  0.1042  0.8308
 8137TIP3   OH248605   2.561   1.959   8.434 -0.1340  0.4226 -0.6584
 8137TIP3    H148606   2.487   1.898   8.443 -0.4319  0.9954  1.3701
 8137TIP3    H248607   2.639   1.905   8.448 -0.2781  0.1521 -0.8923
 8138TIP3   OH248608   6.879   8.081   9.384  0.2818 -0.2099  0.2697
 8138TIP3    H148609   6.815   8.145   9.414 -0.5131 -0.5240 -0.7058
 8138TIP3    H248610   6.903   8.032   9.463 -0.6874 -0.0941  0.6401
 8139TIP3   OH248611   6.831   4.311  10.332  0.3073  0.5500 -0.2182
 8139TIP3    H148612   6.853   4.286  10.242 -0.2465 -0.5686 -0.0521
 8139TIP3    H248613   6.846   4.406  10.334  0.2250  0.6143 -1.5190
 8140TIP3   OH248614   4.137   1.654   9.765  0.0030 -0.1201  0.2680
 8140TIP3    H148615   4.059   1.619   9.806  1.4628 -1.0273  2.4457
 8140TIP3    H248616   4.195   1.578   9.754  1.5467  0.8748  1.0829
 8141TIP3   OH248617   0.139   4.649  10.426  0.3673  0.1925 -0.1917
 8141TIP3    H148618   0.216   4.699  10.454  0.9629 -0.9070  0.2016
 8141TIP3    H248619   0.173   4.590  10.359 -0.3883  0.5045 -0.8593
 8142TIP3   OH248620   2.694   8.443   9.547 -0.2932 -0.2019  0.7240
 8142TIP3    H148621   2.661   8.359   9.514  2.6147 -1.1896  0.0136
 8142TIP3    H248622   2.715   8.493   9.469  0.0777  0.2648  1.1139
 8143TIP3   OH248623   8.157   7.231   8.581  0.2275  0.1335  0.0262
 8143TIP3    H148624   8.146   7.326   8.579 -0.5014  0.0552 -1.4118
 8143TIP3    H248625   8.250   7.217   8.598  0.1236  1.0763  1.4624
 8144TIP3   OH248626   2.909   6.036  10.679  0.1017 -0.6626  0.2383
 8144TIP3    H148627   2.821   6.053  10.712  0.6562 -0.3068  1.6065
 8144TIP3    H248628   2.962   6.025  10.758  1.4897  0.1824 -0.5473
 8145TIP3   OH248629   0.349   1.958  11.099 -0.1115  0.2563  0.3900
 8145TIP3    H148630   0.340   2.015  11.022  0.4960 -0.3153 -0.1070
 8145TIP3    H248631   0.395   2.012  11.163  0.4856  0.3145 -0.0870
 8146TIP3   OH248632   8.310   0.439   9.344  0.6302  0.0907 -0.4834
 8146TIP3    H148633   8.339   0.347   9.338  1.8588  0.4889 -1.0274
 8146TIP3    H248634   8.247   0.439   9.416  0.5799 -1.1891 -0.4899
 8147TIP3   OH248635   4.773   4.922   9.978 -0.3786  0.2492 -0.6177
 8147TIP3    H148636   4.835   4.849   9.984  0.1516  0.6647 -1.0841
 8147TIP3    H248637   4.786   4.958   9.891 -3.2467 -1.4224 -1.8942
 8148TIP3   OH248638   3.963   1.138  10.172  0.0561 -0.0553 -0.8218
 8148TIP3    H148639   3.986   1.144  10.079  0.2836 -2.2089 -0.9586
 8148TIP3    H248640   3.867   1.131  10.172  0.1601 -2.3042 -1.1289
 8149TIP3   OH248641   4.768   3.590  10.284  0.2618 -0.1606 -0.1532
 8149TIP3    H148642   4.837   3.548  10.233  0.5456  0.3783 -0.2205
 8149TIP3    H248643   4.775   3.683  10.262 -0.6298 -0.1277 -0.3343
 8150TIP3   OH248644   3.698   4.627   8.891 -0.8389 -0.2319  0.1253
 8150TIP3    H148645   3.616   4.666   8.862 -1.8619 -1.4797  1.2090
 8150TIP3    H248646   3.766   4.688   8.862 -2.2034  1.2095 -0.1307
 8151TIP3   OH248647   0.017   7.672   8.756 -0.2892 -0.5877 -0.1018
 8151TIP3    H148648  -0.041   7.629   8.818 -0.5527  0.5801  0.5035
 8151TIP3    H248649  -0.022   7.759   8.743  1.0564  0.0630 -0.0390
 8152TIP3   OH248650   4.417   4.044   9.444  0.4886  0.4552 -0.2888
 8152TIP3    H148651   4.470   4.123   9.447 -0.0713  0.8514 -0.5069
 8152TIP3    H248652   4.443   4.001   9.363  1.4182 -0.0421  0.2606
 8153TIP3   OH248653   0.771   1.558  10.851  0.3056 -0.1143 -0.1993
 8153TIP3    H148654   0.709   1.497  10.891 -0.4365  1.3574  0.9981
 8153TIP3    H248655   0.732   1.644  10.864  1.3888  0.6452 -1.7259
 8154TIP3   OH248656   0.148   3.082  10.927 -0.1588 -0.6353 -0.6588
 8154TIP3    H148657   0.081   3.014  10.913 -1.1721  0.4180 -1.0425
 8154TIP3    H248658   0.102   3.151  10.975  0.8612 -0.2083 -0.2826
 8155TIP3   OH248659   6.528   0.668  10.054 -0.1920 -0.1845 -0.1911
 8155TIP3    H148660   6.441   0.641  10.025 -0.2589  0.2842 -0.4276
 8155TIP3    H248661   6.556   0.734   9.991  1.2156 -1.7999 -1.3753
 8156TIP3   OH248662   1.357   2.731   8.654  0.3344  0.0280 -0.1190
 8156TIP3    H148663   1.321   2.722   8.742  0.2511  0.2954 -0.1234
 8156TIP3    H248664   1.396   2.818   8.653  0.5997 -0.0909 -0.2527
 8157TIP3   OH248665   2.713   1.897   9.858  0.3107  0.0472 -0.5706
 8157TIP3    H148666   2.751   1.943   9.933  0.3024  0.4974 -0.8343
 8157TIP3    H248667   2.627   1.939   9.845 -2.6654 -4.0103  3.0024
 8158TIP3   OH248668   0.731   3.875  10.411  0.1095  0.3497  0.6920
 8158TIP3    H148669   0.664   3.807  10.419  0.1177  0.4070  1.2391
 8158TIP3    H248670   0.813   3.831  10.435  0.2821  0.2602 -0.0440
 8159TIP3   OH248671   0.273   4.483   9.119 -0.2062 -0.9112 -0.5061
 8159TIP3    H148672   0.263   4.410   9.180 -1.0280 -0.8546 -0.5622
 8159TIP3    H248673   0.186   4.523   9.115 -0.4218 -1.4935 -2.4399
 8160TIP3   OH248674   6.404   0.610  11.023 -0.1627 -0.1083 -0.3067
 8160TIP3    H148675   6.454   0.687  11.050 -1.2772  0.7462 -0.6108
 8160TIP3    H248676   6.368   0.633  10.937  0.6306 -1.5194 -1.0423
 8161TIP3   OH248677   5.590   6.343   9.518  0.0964 -0.1511  0.1432
 8161TIP3    H148678   5.563   6.431   9.542  1.2502 -0.0338  1.1088
 8161TIP3    H248679   5.589   6.294   9.600 -1.8367 -1.4365 -0.5725
 8162TIP3   OH248680   2.865   4.333   9.185 -0.3438 -0.0247 -0.1981
 8162TIP3    H148681   2.819   4.363   9.264 -0.2284 -1.0637  0.2848
 8162TIP3    H248682   2.958   4.346   9.206 -0.3277  0.0203 -0.2994
 8163TIP3   OH248683   2.101   4.466  11.002 -0.5346 -0.2037 -0.5916
 8163TIP3    H148684   2.013   4.489  11.033  0.2494  1.4356  0.6089
 8163TIP3    H248685   2.156   4.474  11.080  0.4107 -3.2589 -0.8283
 8164TIP3   OH248686   6.046   4.698  10.107 -0.4779  0.4550  0.1941
 8164TIP3    H148687   6.077   4.762  10.043 -0.8963 -0.8263 -1.3536
 8164TIP3    H248688   5.971   4.741  10.149  0.3376  1.6513  0.4738
 8165TIP3   OH248689   1.044   7.040   8.836 -0.7441  0.4890 -0.7579
 8165TIP3    H148690   1.045   7.111   8.900 -0.0996 -0.3670  0.2158
 8165TIP3    H248691   0.953   7.009   8.837 -0.8085  0.6794 -0.4808
 8166TIP3   OH248692   4.161   2.902   9.976  0.2632 -0.5631  0.1988
 8166TIP3    H148693   4.089   2.839   9.975 -1.2546  0.9870 -2.9683
 8166TIP3    H248694   4.240   2.847   9.970 -0.8536 -2.2426  0.0926
 8167TIP3   OH248695   8.055   5.071   9.797 -0.3666 -0.0011 -0.1763
 8167TIP3    H148696   8.121   5.140   9.805 -0.2095 -0.3401  1.8437
 8167TIP3    H248697   8.099   4.992   9.827 -1.7937 -0.1366  1.7347
 8168TIP3   OH248698   2.017   7.174  10.073 -0.2602 -0.4977 -0.0614
 8168TIP3    H148699   2.099   7.194  10.117 -0.5142 -0.3792  0.3669
 8168TIP3    H248700   1.950   7.210  10.131 -0.6518 -1.2381 -0.0468
 8169TIP3   OH248701   6.988   6.714  10.331 -0.6838  0.1294  0.3142
 8169TIP3    H148702   7.054   6.700  10.263 -0.5247 -1.0209  0.6836
 8169TIP3    H248703   6.960   6.626  10.356 -1.9205  0.5732  0.6009
 8170TIP3   OH248704   3.742   3.117   9.135  0.5082 -0.1324 -0.5626
 8170TIP3    H148705   3.681   3.044   9.146  1.6910 -0.9426  0.9299
 8170TIP3    H248706   3.687   3.195   9.144 -0.2120 -0.8344  1.8859
 8171TIP3   OH248707   3.149   2.853  10.442  0.7448 -0.4369  0.3215
 8171TIP3    H148708   3.062   2.822  10.465 -0.4566  0.1429 -2.9258
 8171TIP3    H248709   3.193   2.777  10.404  0.5618 -0.0606 -0.6762
 8172TIP3   OH248710   5.342   6.900   9.931 -0.4431 -0.2955 -0.8650
 8172TIP3    H148711   5.320   6.807   9.937  0.1904 -0.4636 -1.0607
 8172TIP3    H248712   5.411   6.904   9.865  0.3526  0.1688 -0.0232
 8173TIP3   OH248713   0.158   2.459   9.822 -0.2451  0.1266  0.2538
 8173TIP3    H148714   0.201   2.443   9.907 -0.1855  1.1211  0.4237
 8173TIP3    H248715   0.065   2.464   9.843 -0.5487 -2.2787 -0.1497
 8174TIP3   OH248716   0.994   3.994  11.186 -0.5132 -0.8380 -0.0891
 8174TIP3    H148717   1.032   3.985  11.273  1.3105 -3.4993 -1.0383
 8174TIP3    H248718   0.926   3.927  11.183 -1.1273 -0.2139 -0.4867
 8175TIP3   OH248719   0.177   1.583  10.178 -0.1077  0.5546  0.0153
 8175TIP3    H148720   0.111   1.631  10.128  0.1955 -0.3533 -1.3293
 8175TIP3    H248721   0.202   1.642  10.249 -1.4341  1.4138 -0.2006
 8176TIP3   OH248722   6.727   1.262   9.918  0.0916  0.5373 -0.2058
 8176TIP3    H148723   6.815   1.293   9.897  0.7337 -0.1693  1.2699
 8176TIP3    H248724   6.677   1.276   9.838  1.4892  1.1539 -1.0127
 8177TIP3   OH248725   3.075   6.000  10.898  0.7786  0.0015 -0.0384
 8177TIP3    H148726   3.038   6.031  10.981 -0.3106  2.4602 -1.3127
 8177TIP3    H248727   3.131   5.927  10.922  0.0126  0.2235  2.7754
 8178TIP3   OH248728   1.397   1.705  10.390  0.0390 -0.3236 -0.3033
 8178TIP3    H148729   1.443   1.689  10.308 -2.5786  1.9033 -2.4358
 8178TIP3    H248730   1.434   1.787  10.423  0.4384 -0.7256  0.2659
 8179TIP3   OH248731   4.666   8.112   9.126 -0.1240  0.5385 -0.4347
 8179TIP3    H148732   4.625   8.036   9.085  1.0602  0.0414 -0.7411
 8179TIP3    H248733   4.738   8.075   9.178  0.1180  1.3962 -0.1502
 8180TIP3   OH248734   0.176   1.150   8.989 -0.4545 -0.0549 -0.0597
 8180TIP3    H148735   0.244   1.216   8.974  1.2288 -1.4811  0.8606
 8180TIP3    H248736   0.160   1.153   9.083 -2.0904  0.6113 -0.3369
 8181TIP3   OH248737   4.642   5.846   9.371 -0.2861  0.4642 -0.1758
 8181TIP3    H148738   4.657   5.836   9.276 -0.1537 -1.7532  0.0233
 8181TIP3    H248739   4.727   5.872   9.405  0.6423 -2.0413 -0.3245
 8182TIP3   OH248740   0.485   2.184   8.914 -0.2049  0.2443 -0.5811
 8182TIP3    H148741   0.444   2.196   9.000  1.0888  0.0889  0.0720
 8182TIP3    H248742   0.484   2.271   8.874  4.0050  1.6674  1.8247
 8183TIP3   OH248743   3.829   5.389  10.057 -0.6407 -0.3770  0.0617
 8183TIP3    H148744   3.820   5.480  10.086  0.2412 -0.1639 -0.3024
 8183TIP3    H248745   3.739   5.359  10.045 -0.9366  0.6921 -0.5405
 8184TIP3   OH248746   7.708   2.397   8.767 -0.2853 -0.1437  0.3639
 8184TIP3    H148747   7.621   2.427   8.793  0.6693  2.1938  1.1438
 8184TIP3    H248748   7.738   2.464   8.705  1.7508  0.2888  1.7263
 8185TIP3   OH248749   2.346   4.191   8.813  0.0599 -0.1613  0.3980
 8185TIP3    H148750   2.374   4.159   8.728  0.4450  1.6719 -0.2032
 8185TIP3    H248751   2.290   4.121   8.848 -0.1599 -0.9144 -1.3726
 8186TIP3   OH248752   3.035   0.881   8.459  0.1412 -0.2319 -0.5992
 8186TIP3    H148753   2.941   0.865   8.454  0.3589 -2.2416  0.5226
 8186TIP3    H248754   3.049   0.959   8.407 -2.3619  1.0121  0.4195
 8187TIP3   OH248755   1.542   4.964  10.572  0.3320  0.3508 -0.5566
 8187TIP3    H148756   1.541   5.021  10.650 -0.4715  0.4641 -0.6398
 8187TIP3    H248757   1.590   5.014  10.507  1.7291 -0.0853  0.1097
 8188TIP3   OH248758   4.289   7.750   8.902 -0.3755  0.2636  0.4768
 8188TIP3    H148759   4.339   7.669   8.893  1.3222  1.4493 -2.0932
 8188TIP3    H248760   4.217   7.741   8.840 -0.7671  0.3196  0.9224
 8189TIP3   OH248761   3.509   1.768   9.552 -0.2420  0.1793 -0.2235
 8189TIP3    H148762   3.572   1.701   9.527 -0.4682 -0.5034  0.9149
 8189TIP3    H248763   3.470   1.798   9.470 -0.1828 -1.1441 -0.7499
 8190TIP3   OH248764   5.333   5.457   9.334  0.5233  0.0393 -0.4633
 8190TIP3    H148765   5.361   5.366   9.329  1.1176  0.2734 -1.8318
 8190TIP3    H248766   5.395   5.499   9.394  2.4893  0.2848 -2.5293
 8191TIP3   OH248767   8.344   1.187   9.614  0.2311 -0.1478  0.4804
 8191TIP3    H148768   8.283   1.158   9.682 -0.4369  0.8085  0.3081
 8191TIP3    H248769   8.397   1.109   9.594  0.0261 -0.6027  1.6464
 8192TIP3   OH248770   2.755   4.449  10.704  0.5130 -0.1463 -0.2477
 8192TIP3    H148771   2.764   4.456  10.609  2.4223 -0.7167 -0.1529
 8192TIP3    H248772   2.677   4.396  10.718  0.1954 -0.0200 -1.4852
 8193TIP3   OH248773   4.003   3.748   8.602  0.3205 -0.0416  0.6483
 8193TIP3    H148774   4.042   3.671   8.645  0.9595  0.6884  1.4053
 8193TIP3    H248775   3.911   3.725   8.590  0.2173 -0.4199  2.0459
 8194TIP3   OH248776   0.145   3.748   8.884  0.4520  0.2405  0.5735
 8194TIP3    H148777   0.207   3.804   8.837 -0.0466  0.3380  0.0287
 8194TIP3    H248778   0.198   3.674   8.914  0.5761 -0.3391 -1.0195
 8195TIP3   OH248779   2.772   3.363   8.871  0.6121  0.4747  0.1981
 8195TIP3    H148780   2.810   3.393   8.953  0.0375 -0.5424  0.8599
 8195TIP3    H248781   2.808   3.421   8.805  0.8894  1.4723  1.2015
 8196TIP3   OH248782   1.400   5.039   9.189 -0.5806 -0.1802 -0.1749
 8196TIP3    H148783   1.322   5.094   9.179 -0.4471  0.0580  0.0771
 8196TIP3    H248784   1.375   4.974   9.255 -0.6376 -0.2410 -0.2555
 8197TIP3   OH248785   1.219   7.564  10.744  0.3768  0.0083  0.0075
 8197TIP3    H148786   1.175   7.520  10.817  0.2526 -0.1188 -0.1418
 8197TIP3    H248787   1.150   7.575  10.679  0.4100  0.4209  0.0414
 8198TIP3   OH248788   0.074   8.337   9.890 -0.9834 -0.0733 -0.2782
 8198TIP3    H148789   0.093   8.427   9.865  2.9686  0.2407  2.9068
 8198TIP3    H248790   0.136   8.285   9.840 -0.3465 -0.5308  0.9540
 8199TIP3   OH248791   1.777   1.032   8.663  0.0207 -0.1400 -0.5504
 8199TIP3    H148792   1.689   1.063   8.644  0.2261  1.0321  0.3227
 8199TIP3    H248793   1.820   1.106   8.705  1.7942 -0.3186 -1.9579
 8200TIP3   OH248794   8.224   0.240  10.380  0.1310 -0.0396 -0.0736
 8200TIP3    H148795   8.222   0.247  10.285  1.9008 -0.1500 -0.1559
 8200TIP3    H248796   8.198   0.326  10.411 -3.5426 -0.8143 -0.5254
 8201TIP3   OH248797   1.343   3.665   9.847 -0.3207  0.5938 -0.4910
 8201TIP3    H148798   1.316   3.601   9.914  0.0976  1.7402  0.8333
 8201TIP3    H248799   1.430   3.693   9.875  0.0973  0.7228 -1.8473
 8202TIP3   OH248800   0.349   1.412   8.684 -0.2417  0.3589 -0.3092
 8202TIP3    H148801   0.294   1.489   8.697 -1.3550 -0.5226  0.4084
 8202TIP3    H248802   0.377   1.418   8.593 -0.1159  1.7227 -0.1997
 8203TIP3   OH248803   7.651   3.349   9.522 -0.2609  0.5794 -0.0065
 8203TIP3    H148804   7.745   3.342   9.509 -0.0405  1.9449  0.6582
 8203TIP3    H248805   7.621   3.408   9.453 -0.5631  0.4263 -0.0064
 8204TIP3   OH248806   4.172   1.979  10.597 -0.1424 -0.3819  0.0976
 8204TIP3    H148807   4.245   1.938  10.550  1.8919  2.5822  0.4364
 8204TIP3    H248808   4.172   1.936  10.682  3.3719  1.5209  1.2698
 8205TIP3   OH248809   3.834   0.987  11.148  0.2811  0.4813 -0.0597
 8205TIP3    H148810   3.779   1.061  11.174  0.7172  0.7424  0.1352
 8205TIP3    H248811   3.842   0.996  11.053 -2.0016 -0.9476 -0.4771
 8206TIP3   OH248812   5.358   1.388   9.683 -0.1869 -0.4962  0.3065
 8206TIP3    H148813   5.321   1.448   9.618  0.2830 -1.0719 -0.5099
 8206TIP3    H248814   5.421   1.335   9.634  2.3498  0.9361  1.7721
 8207TIP3   OH248815   6.849   0.104   8.942 -0.1150  0.5923 -0.5825
 8207TIP3    H148816   6.924   0.044   8.936  0.1910  0.7600  1.0922
 8207TIP3    H248817   6.779   0.052   8.981  0.0263  1.1825  0.5050
 8208TIP3   OH248818   2.056   6.281  10.234 -0.0042 -0.8975  0.7977
 8208TIP3    H148819   1.981   6.270  10.292  0.7042 -0.5212  1.8334
 8208TIP3    H248820   2.088   6.192  10.219 -0.8129 -1.0824  0.1098
 8209TIP3   OH248821   7.368   3.535   9.147 -0.1591 -1.2949 -0.1547
 8209TIP3    H148822   7.366   3.466   9.080 -0.3109 -1.4628  0.0203
 8209TIP3    H248823   7.281   3.532   9.187  0.2095 -1.8015  0.6534
 8210TIP3   OH248824   3.311   4.942   9.971  0.1245 -0.2882 -0.6481
 8210TIP3    H148825   3.307   4.958  10.065  1.5730  2.2504 -0.9166
 8210TIP3    H248826   3.225   4.907   9.948 -0.4894 -0.2919  1.4832
 8211TIP3   OH248827   7.498   7.530  10.575  0.4245 -0.0799  0.1593
 8211TIP3    H148828   7.504   7.441  10.542  0.5487 -0.5828  1.4798
 8211TIP3    H248829   7.542   7.527  10.660 -1.6376  0.6511  1.3384
 8212TIP3   OH248830   6.460   7.482  10.471  0.4028  0.3076 -0.5409
 8212TIP3    H148831   6.395   7.542  10.434  0.2398  0.1290 -0.5443
 8212TIP3    H248832   6.543   7.510  10.432  0.3548  0.6429 -0.4102
 8213TIP3   OH248833   3.516   3.518   9.843  0.2312  0.4810 -0.1009
 8213TIP3    H148834   3.491   3.609   9.830 -0.8368  0.5893  2.2030
 8213TIP3    H248835   3.433   3.472   9.857  0.8881 -0.3390  1.3695
 8214TIP3   OH248836   0.503   3.166   9.626  0.0523  0.3476  0.1329
 8214TIP3    H148837   0.502   3.085   9.678 -0.6686 -0.1234 -0.5841
 8214TIP3    H248838   0.532   3.233   9.687  0.6569 -0.4493  0.7507
 8215TIP3   OH248839   3.925   1.398   9.151  0.6910  0.2100  0.0047
 8215TIP3    H148840   4.005   1.390   9.100  1.9895  1.1121  1.7785
 8215TIP3    H248841   3.953   1.436   9.234 -1.7378  1.6092  0.2929
 8216TIP3   OH248842   2.982   7.629   8.785  0.1680  0.1089 -0.5975
 8216TIP3    H148843   2.961   7.536   8.780 -1.5154  0.4732 -1.0322
 8216TIP3    H248844   2.903   7.670   8.819  1.4897  1.2015  1.3374
 8217TIP3   OH248845   4.251   0.479   9.569 -0.0312 -0.0160 -0.0203
 8217TIP3    H148846   4.207   0.469   9.653 -0.8425  3.1475  0.0559
 8217TIP3    H248847   4.181   0.464   9.504  0.4095 -1.6234 -0.1807
 8218TIP3   OH248848   0.931   0.358   9.659  0.0623 -0.2710 -0.2461
 8218TIP3    H148849   0.903   0.372   9.568 -0.7945  0.3564  0.0987
 8218TIP3    H248850   0.903   0.269   9.680  0.4332 -0.4887 -0.6471
 8219TIP3   OH248851   7.700   5.846  10.163 -0.3064  0.2217  0.1781
 8219TIP3    H148852   7.780   5.846  10.111 -1.1877 -1.9935 -1.3638
 8219TIP3    H248853   7.709   5.920  10.222  2.4445  0.5937 -0.5777
 8220TIP3   OH248854   3.915   7.532   8.967 -0.4613  0.4104 -0.6774
 8220TIP3    H148855   3.923   7.620   8.933  1.2378  0.4685 -0.1843
 8220TIP3    H248856   3.960   7.476   8.904 -0.0206  0.1255 -0.1230
 8221TIP3   OH248857   4.245   4.258   9.336 -0.0670 -0.0614 -0.0604
 8221TIP3    H148858   4.256   4.301   9.420 -0.5379 -1.6366  0.8509
 8221TIP3    H248859   4.333   4.226   9.314  0.5205  2.1509 -1.2611
 8222TIP3   OH248860   4.405   2.836  11.429 -0.0153  0.5961  0.3174
 8222TIP3    H148861   4.493   2.804  11.412  0.5981  1.8462  1.0465
 8222TIP3    H248862   4.402   2.923  11.390 -0.4947  1.0863  1.3986
 8223TIP3   OH248863   1.157   7.397  10.307 -0.1658  0.9324 -0.4511
 8223TIP3    H148864   1.180   7.325  10.366 -1.2058 -0.6082 -1.8350
 8223TIP3    H248865   1.241   7.437  10.285  0.8354 -1.5938 -1.7208
 8224TIP3   OH248866   7.929   5.013  10.228 -0.0182  0.1501  0.4357
 8224TIP3    H148867   7.836   4.992  10.227  0.1173 -0.6166 -1.6621
 8224TIP3    H248868   7.941   5.074  10.155  1.2956 -0.8534 -0.2630
 8225TIP3   OH248869   0.703   5.597   9.535  0.4116  0.6153  0.7760
 8225TIP3    H148870   0.784   5.615   9.486 -0.2115  0.2518 -0.4278
 8225TIP3    H248871   0.640   5.572   9.468 -0.9694  1.7683  1.5994
 8226TIP3   OH248872   6.725   6.044  11.029  0.3026 -0.4412  0.1631
 8226TIP3    H148873   6.757   6.092  11.105 -1.1544  1.7944 -0.5295
 8226TIP3    H248874   6.801   5.995  10.997  1.8158  1.1578  1.1354
 8227TIP3   OH248875   1.956   4.984   9.141  0.3763 -0.4831  0.2914
 8227TIP3    H148876   1.977   4.890   9.137  1.2452 -0.3781  1.6788
 8227TIP3    H248877   2.042   5.027   9.139 -0.0286  0.3189 -0.6884
 8228TIP3   OH248878   7.860   2.824  10.253  0.2240 -0.1581  0.4708
 8228TIP3    H148879   7.779   2.800  10.208 -0.4449  1.6657  0.6025
 8228TIP3    H248880   7.929   2.781  10.203 -0.5960  0.6646 -1.4915
 8229TIP3   OH248881   7.906   7.110   9.183 -0.7106 -0.6096 -0.7520
 8229TIP3    H148882   7.891   7.105   9.277 -1.5478  2.2715 -0.6581
 8229TIP3    H248883   7.822   7.137   9.146 -0.2083 -0.9990 -2.2607
 8230TIP3   OH248884   1.314   5.867   9.927 -0.1737 -0.1975  0.2643
 8230TIP3    H148885   1.386   5.911   9.971  0.1706 -1.8730  1.4628
 8230TIP3    H248886   1.356   5.800   9.873 -0.8170 -1.2934  1.0917
 8231TIP3   OH248887   4.792   7.834   9.759  0.3416  0.1082 -0.7617
 8231TIP3    H148888   4.850   7.883   9.818 -0.4393  1.8906 -1.4157
 8231TIP3    H248889   4.795   7.744   9.792  0.5397  0.8859  1.5322
 8232TIP3   OH248890   1.531   0.350   9.913 -0.4320  0.0424  0.3491
 8232TIP3    H148891   1.541   0.256   9.922 -2.2884 -0.1860  0.3249
 8232TIP3    H248892   1.519   0.382  10.003 -1.0174  0.0963  0.2530
 8233TIP3   OH248893   8.369   0.702  11.350  0.2547 -0.0061  0.2614
 8233TIP3    H148894   8.437   0.635  11.339  0.4998  0.0577  1.2913
 8233TIP3    H248895   8.368   0.749  11.266  0.3088 -1.0748 -0.3565
 8234TIP3   OH248896   5.855   5.354   9.669  0.3145 -0.1218  0.2324
 8234TIP3    H148897   5.874   5.448   9.675  0.2796  0.0280 -1.3931
 8234TIP3    H248898   5.787   5.348   9.602  1.1909 -1.3799 -0.5973
 8235TIP3   OH248899   6.050   1.624   9.785 -0.2933 -0.3979 -0.4911
 8235TIP3    H148900   6.085   1.535   9.794  0.7649 -0.2663 -2.6155
 8235TIP3    H248901   6.021   1.648   9.873  0.7482 -2.2902  0.4247
 8236TIP3   OH248902   3.242   6.757   8.906  0.0909  0.0983 -0.5968
 8236TIP3    H148903   3.264   6.666   8.924 -0.0159  0.1273 -0.3123
 8236TIP3    H248904   3.174   6.779   8.970  1.1878  0.8395  0.3670
 8237TIP3   OH248905   6.270   0.604   9.990  0.0656 -0.7547  0.2008
 8237TIP3    H148906   6.234   0.672  10.048 -0.9226 -0.2928 -0.9242
 8237TIP3    H248907   6.251   0.635   9.902 -1.4930 -3.0606 -0.3586
 8238TIP3   OH248908   0.155   0.444   8.994 -0.3857  0.3850 -0.2139
 8238TIP3    H148909   0.078   0.500   8.993  1.0687  2.6112  2.0414
 8238TIP3    H248910   0.137   0.380   9.064 -0.2579  0.8009  0.2005
 8239TIP3   OH248911   3.834   2.063   9.891 -0.3464  0.3764  0.5350
 8239TIP3    H148912   3.781   2.031   9.818 -0.4201  1.2605  0.1798
 8239TIP3    H248913   3.899   2.120   9.850 -0.3389  0.8264  1.1500
 8240TIP3   OH248914   4.782   6.102   9.270  0.0839  0.3090 -0.1761
 8240TIP3    H148915   4.823   6.072   9.352 -0.5288  2.3263  0.9112
 8240TIP3    H248916   4.831   6.055   9.201  0.1133 -2.0264  1.3205
 8241TIP3   OH248917   7.162   4.636   9.653  0.3590  0.2396 -0.2381
 8241TIP3    H148918   7.187   4.550   9.688  1.5334  0.3761 -0.7127
 8241TIP3    H248919   7.180   4.631   9.560 -1.1108  0.4775 -0.5692
 8242TIP3   OH248920   8.164   4.832   9.550  0.9481 -0.7019  0.1421
 8242TIP3    H148921   8.086   4.782   9.576  0.5006 -0.2511 -0.3399
 8242TIP3    H248922   8.130   4.911   9.510  1.6593 -0.4900 -0.0498
 8243TIP3   OH248923   7.222   3.789   9.070  0.2558 -0.0295  0.1083
 8243TIP3    H148924   7.299   3.734   9.053 -0.2123 -1.1625  1.4322
 8243TIP3    H248925   7.248   3.841   9.146 -0.4699 -0.8594  0.9497
 8244TIP3   OH248926   4.116   0.101   8.985 -0.2861 -0.3259 -0.0159
 8244TIP3    H148927   4.191   0.102   8.926  0.6679 -0.0520  1.1620
 8244TIP3    H248928   4.056   0.037   8.946  0.6963 -0.7951 -0.8156
 8245TIP3   OH248929   2.159   6.872   9.484 -0.0071  0.2031 -0.0124
 8245TIP3    H148930   2.091   6.928   9.447 -1.3444  0.1724  2.2119
 8245TIP3    H248931   2.188   6.918   9.563  2.3136  0.0076 -0.6691
 8246TIP3   OH248932   3.473   5.314  10.463 -0.1123  0.2954 -0.0593
 8246TIP3    H148933   3.563   5.319  10.494 -0.0379 -0.4403 -0.1420
 8246TIP3    H248934   3.423   5.283  10.538 -0.4056  1.2989  0.1736
 8247TIP3   OH248935   0.959   2.852  10.323  0.4295 -0.1062  0.5327
 8247TIP3    H148936   0.907   2.873  10.245  0.8619 -2.8435 -0.6007
 8247TIP3    H248937   1.047   2.836  10.289  0.4726 -2.0085  1.4276
 8248TIP3   OH248938   5.022   6.517  10.285  0.8338 -0.0652 -0.6940
 8248TIP3    H148939   5.083   6.488  10.218 -0.1081 -0.2964 -1.4833
 8248TIP3    H248940   5.076   6.561  10.350  1.8136 -0.1499 -1.4328
 8249TIP3   OH248941   1.798   1.999  10.407 -0.8361  0.2079 -0.3066
 8249TIP3    H148942   1.888   2.024  10.387 -0.2157 -1.2814  0.4503
 8249TIP3    H248943   1.777   1.933  10.341 -0.6617 -0.8504  0.6731
 8250TIP3   OH248944   8.251   1.943   8.863  0.2416  0.5244 -0.5864
 8250TIP3    H148945   8.249   2.039   8.866  0.2649  0.5229 -0.5146
 8250TIP3    H248946   8.192   1.916   8.934  1.0658  0.4815  0.1006
 8251TIP3   OH248947   2.660   6.067  10.758 -0.0471 -0.0340  0.3973
 8251TIP3    H148948   2.587   6.045  10.701  0.3824 -0.1248 -0.1234
 8251TIP3    H248949   2.637   6.154  10.793  0.0498  0.3809 -0.5313
 8252TIP3   OH248950   1.085   1.860   9.441  1.0323 -0.3983  0.3752
 8252TIP3    H148951   1.083   1.858   9.346  1.1378 -1.4717  0.3847
 8252TIP3    H248952   0.997   1.887   9.466  0.8989 -0.4672 -0.0162
 8253TIP3   OH248953   3.231   3.589   8.967 -0.4643 -0.0508  0.0323
 8253TIP3    H148954   3.160   3.559   9.023 -0.5919  0.8652  0.3814
 8253TIP3    H248955   3.290   3.636   9.025 -0.5392  0.8089 -0.5601
 8254TIP3   OH248956   1.821   6.979   8.438 -0.1513 -0.6095 -0.2521
 8254TIP3    H148957   1.829   6.901   8.491  0.3805 -0.5989 -0.3084
 8254TIP3    H248958   1.795   7.048   8.499 -1.0663 -0.9249 -0.2856
 8255TIP3   OH248959   5.885   6.424   9.494  0.0994 -0.1419  0.2467
 8255TIP3    H148960   5.934   6.412   9.412 -0.5942  0.8025 -0.3333
 8255TIP3    H248961   5.810   6.365   9.485  1.0221 -1.4624  1.0589
 8256TIP3   OH248962   2.450   0.611  10.018  0.5743  0.2560  0.0575
 8256TIP3    H148963   2.484   0.668  10.087 -0.0579  0.3020  0.3380
 8256TIP3    H248964   2.528   0.571   9.979  1.0423  1.5381 -0.3474
 8257TIP3   OH248965   7.978   2.247   9.877 -0.1697 -0.1770  0.4442
 8257TIP3    H148966   7.950   2.159   9.854 -0.9329  0.1043  0.2547
 8257TIP3    H248967   8.069   2.253   9.848 -0.1186 -0.8933  0.4522
 8258TIP3   OH248968   7.421   2.202   9.724  0.0480 -0.0938 -0.0179
 8258TIP3    H148969   7.325   2.209   9.731  0.1334 -0.5421  2.8924
 8258TIP3    H248970   7.442   2.247   9.643 -2.6102  0.2577 -0.6239
 8259TIP3   OH248971   3.105   5.740   9.473 -0.0002 -0.3254  0.2767
 8259TIP3    H148972   3.024   5.708   9.433  0.4818 -1.2885  0.0330
 8259TIP3    H248973   3.174   5.714   9.412  0.6101 -0.6038  1.0642
 8260TIP3   OH248974   6.368   0.362  10.835  0.2178 -0.1650 -0.0818
 8260TIP3    H148975   6.363   0.391  10.926  0.4791  0.4250 -0.2509
 8260TIP3    H248976   6.321   0.429  10.786 -1.8360 -1.5935 -0.1629
 8261TIP3   OH248977   7.869   3.592  10.847  0.2768 -0.2809 -0.2984
 8261TIP3    H148978   7.828   3.664  10.798 -0.4464 -0.6942 -0.3174
 8261TIP3    H248979   7.836   3.603  10.936  0.5901 -0.2708 -0.1860
 8262TIP3   OH248980   1.156   6.795   9.203 -0.1276 -0.2168  0.2949
 8262TIP3    H148981   1.114   6.719   9.163 -0.0850  0.7980 -1.8579
 8262TIP3    H248982   1.229   6.816   9.144 -0.3109  1.6389  0.6680
 8263TIP3   OH248983   0.018   0.952   9.587 -0.0372 -0.3904  0.5906
 8263TIP3    H148984   0.035   0.902   9.507  0.8470  0.4735  0.2067
 8263TIP3    H248985   0.105   0.968   9.624 -0.3451  0.3021  1.0482
 8264TIP3   OH248986   3.623   1.213   9.889  0.0288 -0.0003  0.4853
 8264TIP3    H148987   3.532   1.193   9.909 -0.1526  0.9801  0.7107
 8264TIP3    H248988   3.633   1.305   9.914  1.2314 -0.2495  0.9859
 8265TIP3   OH248989   2.333   4.523   9.594 -0.1859 -0.0954  0.7259
 8265TIP3    H148990   2.296   4.578   9.664 -1.3879 -0.2762  0.2528
 8265TIP3    H248991   2.415   4.491   9.631 -0.4277  0.4216  1.7757
 8266TIP3   OH248992   4.637   2.728   9.286 -0.4451  0.2892  0.7468
 8266TIP3    H148993   4.571   2.720   9.217  1.9626  0.8968 -1.7915
 8266TIP3    H248994   4.621   2.652   9.343 -2.9553  0.1485 -0.0034
 8267TIP3   OH248995   1.869   5.048   8.827 -0.2041  0.1296 -0.1270
 8267TIP3    H148996   1.835   4.962   8.850  0.3736 -0.3244 -0.8993
 8267TIP3    H248997   1.818   5.110   8.879 -1.3127 -0.6079 -0.3262
 8268TIP3   OH248998   5.519   0.321  10.034  0.1247 -0.0480  0.5201
 8268TIP3    H148999   5.450   0.321  10.100 -0.2243 -1.3514  0.1884
 8268TIP3    H249000   5.530   0.414  10.010 -1.9296  0.1491  0.1628
 8269TIP3   OH249001   0.201   1.286  10.082 -0.0749 -0.0226 -0.7582
 8269TIP3    H149002   0.211   1.366  10.134 -4.1064  0.2163 -0.0331
 8269TIP3    H249003   0.244   1.218  10.134 -1.7915  0.6816  1.7759
 8270TIP3   OH249004   3.845   4.115   8.881 -0.5799  0.0463  0.0640
 8270TIP3    H149005   3.758   4.125   8.843 -0.9661  0.0578  0.9099
 8270TIP3    H249006   3.894   4.064   8.817 -1.8940 -1.9624  0.5513
 8271TIP3   OH249007   0.609   1.738   9.773  0.5789  0.2235  0.7904
 8271TIP3    H149008   0.539   1.736   9.838  0.8097  1.0566  1.0829
 8271TIP3    H249009   0.682   1.694   9.815  0.0543 -1.2170  0.2460
 8272TIP3   OH249010   3.796   5.648   8.954  0.3977  0.0581  0.3616
 8272TIP3    H149011   3.775   5.714   8.888 -0.7158 -0.2090  0.4291
 8272TIP3    H249012   3.827   5.697   9.030  1.4010  0.3847 -0.2327
 8273TIP3   OH249013   1.810   7.420   9.349  0.1356  0.2996 -0.0327
 8273TIP3    H149014   1.777   7.339   9.387  2.3832 -1.3970 -1.4512
 8273TIP3    H249015   1.732   7.466   9.319 -1.1557 -1.9754 -0.3625
 8274TIP3   OH249016   5.324   8.395   9.323  0.3048  0.4633 -0.2592
 8274TIP3    H149017   5.283   8.472   9.362 -0.6895  0.5144 -1.3315
 8274TIP3    H249018   5.399   8.377   9.379 -0.1859  1.4304  0.7630
 8275TIP3   OH249019   7.727   2.649  10.450 -0.3997 -0.0457 -0.2039
 8275TIP3    H149020   7.757   2.624  10.537  0.8274 -0.1714 -0.6412
 8275TIP3    H249021   7.762   2.737  10.436 -0.0563 -0.2666 -0.8002
 8276TIP3   OH249022   6.152   8.274   9.649 -0.0852 -0.0606 -0.3910
 8276TIP3    H149023   6.084   8.261   9.715  1.9578 -0.3272  1.8135
 8276TIP3    H249024   6.183   8.186   9.628 -0.8428  0.0050 -1.9318
 8277TIP3   OH249025   2.677   2.682  10.496 -0.0971  0.1969 -0.1037
 8277TIP3    H149026   2.656   2.612  10.558  0.0928 -0.5254 -0.8266
 8277TIP3    H249027   2.595   2.698  10.449 -0.9949  2.6133  2.0680
 8278TIP3   OH249028   4.277   7.944   9.224 -0.2034 -0.0215 -0.1252
 8278TIP3    H149029   4.351   7.929   9.164 -0.3315  1.9476 -0.8609
 8278TIP3    H249030   4.319   7.966   9.307  0.0029 -0.9370  0.0208
 8279TIP3   OH249031   0.809   8.268   9.401  0.4675  0.1117 -0.8614
 8279TIP3    H149032   0.827   8.335   9.335 -1.3968  0.3376 -1.2040
 8279TIP3    H249033   0.727   8.297   9.442 -0.0441 -1.6236 -0.5793
 8280TIP3   OH249034   5.740   3.342  10.815  0.0408  0.2993  0.1666
 8280TIP3    H149035   5.674   3.388  10.764  0.2814  0.3334 -0.1191
 8280TIP3    H249036   5.797   3.411  10.848 -0.4593  0.3309  0.9925
 8281TIP3   OH249037   2.040   7.579   9.304 -0.1714 -0.5135  0.3649
 8281TIP3    H149038   2.093   7.563   9.383  0.2568 -1.0685 -0.0300
 8281TIP3    H249039   1.958   7.532   9.321  0.1698 -1.1715  0.2101
 8282TIP3   OH249040   8.221   0.997   9.036 -0.4135 -0.2081  0.4301
 8282TIP3    H149041   8.175   0.960   9.111  3.0457 -0.2388  2.7688
 8282TIP3    H249042   8.308   0.958   9.039  0.5681  1.4243 -2.3721
 8283TIP3   OH249043   7.202   4.860   9.458 -0.3624 -0.1598  0.2215
 8283TIP3    H149044   7.261   4.848   9.533  1.2156  2.9040 -0.3664
 8283TIP3    H249045   7.135   4.920   9.490  1.1017  2.3112 -1.0456
 8284TIP3   OH249046   2.941   0.353   9.162 -0.4489 -0.3940  0.0366
 8284TIP3    H149047   2.888   0.395   9.229 -0.2725  0.2544 -0.2251
 8284TIP3    H249048   2.928   0.406   9.084  0.7040 -0.1184  0.0045
 8285TIP3   OH249049   5.707   4.194   9.423 -0.2520  0.4536  0.8479
 8285TIP3    H149050   5.684   4.271   9.372  2.0001  0.5616 -0.0921
 8285TIP3    H249051   5.795   4.212   9.456  0.1546 -1.5400  0.9720
 8286TIP3   OH249052   8.399   0.645  10.190  0.2031  0.6547 -0.0600
 8286TIP3    H149053   8.407   0.694  10.271 -0.6795  0.6412  0.0401
 8286TIP3    H249054   8.409   0.553  10.215 -1.9090  0.4844  0.3478
 8287TIP3   OH249055   5.992   1.850   9.198  0.6376 -0.4745  0.2935
 8287TIP3    H149056   6.007   1.817   9.287 -1.1017 -1.1566  0.3582
 8287TIP3    H249057   5.968   1.942   9.210  1.0826 -0.3798  0.4688
 8288TIP3   OH249058   3.654   7.652  10.711  0.1912  0.2815  0.2485
 8288TIP3    H149059   3.564   7.684  10.718  0.1207 -0.2897  3.2166
 8288TIP3    H249060   3.707   7.724  10.746  0.8247  0.3049 -0.7473
 8289TIP3   OH249061   7.378   6.438   8.841  0.3514 -0.0786  1.0477
 8289TIP3    H149062   7.460   6.453   8.794 -1.1113  2.0107 -1.1051
 8289TIP3    H249063   7.369   6.515   8.898 -1.5937  1.5559 -1.2539
 8290TIP3   OH249064   0.567   1.417  10.968 -0.0547  0.2312  0.3884
 8290TIP3    H149065   0.569   1.322  10.961 -1.0986  0.3005 -1.3274
 8290TIP3    H249066   0.474   1.440  10.971  0.1708  1.2234  0.3062
 8291TIP3   OH249067   0.670   7.296  15.413 -0.3397 -0.4258  0.0113
 8291TIP3    H149068   0.617   7.240  15.356 -0.6923 -0.2646  0.1770
 8291TIP3    H249069   0.712   7.359  15.354 -1.6968  0.5524  0.0463
 8292TIP3   OH249070   8.089   1.200  10.037 -0.0941 -0.6167 -0.7607
 8292TIP3    H149071   8.124   1.255   9.967 -3.7562 -0.3293 -2.5820
 8292TIP3    H249072   8.057   1.262  10.103  1.0037 -0.8136 -0.0185
 8293TIP3   OH249073   2.112   8.392   9.143 -0.1755  0.0988  0.0403
 8293TIP3    H149074   2.138   8.316   9.195 -1.7827 -0.5659 -0.0699
 8293TIP3    H249075   2.023   8.411   9.171 -0.1066  1.4209 -0.5577
 8294TIP3   OH249076   3.829   2.325  10.567  0.0514  0.3650  0.4648
 8294TIP3    H149077   3.786   2.347  10.650 -0.7329  0.8420 -0.0552
 8294TIP3    H249078   3.857   2.234  10.578  0.4548  0.5963  1.4485
 8295TIP3   OH249079   0.785   4.702   8.700 -0.3272 -0.3737  0.2135
 8295TIP3    H149080   0.733   4.631   8.665  1.0193 -1.1630 -0.2677
 8295TIP3    H249081   0.796   4.763   8.626 -0.4093 -0.2902  0.2695
 8296TIP3   OH249082   5.768   7.669   8.861 -0.9742  0.2766  0.6314
 8296TIP3    H149083   5.708   7.597   8.841  0.2949 -0.0170 -2.8089
 8296TIP3    H249084   5.711   7.740   8.890 -2.7506 -0.7517 -0.1195
 8297TIP3   OH249085   5.064   1.627  10.611 -0.1021 -0.5783 -0.1239
 8297TIP3    H149086   4.979   1.605  10.573 -0.6372 -0.8443  1.1821
 8297TIP3    H249087   5.090   1.549  10.659  1.0907 -0.6483 -0.8401
 8298TIP3   OH249088   6.658   3.466  10.608  0.1175  0.6435 -0.5525
 8298TIP3    H149089   6.590   3.518  10.651 -0.0219 -0.7201  0.9756
 8298TIP3    H249090   6.711   3.432  10.681  1.2662  0.0993 -1.6114
 8299TIP3   OH249091   3.384   7.026   9.168  0.7012 -0.1909 -0.7534
 8299TIP3    H149092   3.476   7.051   9.162  0.8977 -0.9857 -1.1701
 8299TIP3    H249093   3.385   6.939   9.208  0.0263  0.4563  0.7335
 8300TIP3   OH249094   1.954   7.825   9.299 -0.0467 -0.0656  1.0580
 8300TIP3    H149095   1.980   7.736   9.278 -0.6599 -0.1224  0.5051
 8300TIP3    H249096   2.026   7.880   9.267 -0.2798 -0.2662  0.1629
 8301TIP3   OH249097   2.845   2.236   9.699 -0.0846  0.0251 -0.2450
 8301TIP3    H149098   2.889   2.269   9.620  0.9684 -0.9839 -0.1020
 8301TIP3    H249099   2.789   2.165   9.667 -0.6743  0.4926 -0.2578
 8302TIP3   OH249100   8.339   0.015   8.781  0.3149  0.4458  0.6420
 8302TIP3    H149101   8.287  -0.045   8.727 -1.2993  0.8914  1.6318
 8302TIP3    H249102   8.282   0.037   8.854  1.6646  1.5355  1.4150
 8303TIP3   OH249103   0.025   4.467   9.680 -0.2240 -0.2130  0.1385
 8303TIP3    H149104   0.112   4.507   9.681  0.2612 -1.1281 -1.6508
 8303TIP3    H249105   0.041   4.375   9.702 -0.5975 -0.5929 -1.1115
 8304TIP3   OH249106   2.589   2.619  10.037  0.6796 -0.1149  0.2554
 8304TIP3    H149107   2.653   2.586   9.973 -1.1763 -0.5417 -1.4761
 8304TIP3    H249108   2.513   2.562  10.027  0.0717  0.2178  2.4458
 8305TIP3   OH249109   2.351   8.219   8.962  0.3502 -0.3722  0.0331
 8305TIP3    H149110   2.401   8.237   9.042 -1.6481  0.8141  1.0657
 8305TIP3    H249111   2.369   8.127   8.944 -1.0544 -1.4617  3.3239
 8306TIP3   OH249112   3.279   7.826  10.944 -0.2520 -0.4421 -0.0943
 8306TIP3    H149113   3.223   7.767  10.894 -0.4895 -0.9419  0.7391
 8306TIP3    H249114   3.260   7.913  10.909 -0.6373 -0.7457 -0.6550
 8307TIP3   OH249115   1.982   0.976   9.507  0.2682  0.1635 -0.0684
 8307TIP3    H149116   1.936   0.979   9.424  0.5718 -0.3137 -0.2615
 8307TIP3    H249117   2.072   0.953   9.484  0.6801  1.3893  0.2800
 8308TIP3   OH249118   5.343   3.083   9.679 -0.1705  0.6091  0.2468
 8308TIP3    H149119   5.284   3.015   9.713  1.1557 -1.6103 -1.6149
 8308TIP3    H249120   5.430   3.051   9.700  0.4807  1.8271 -0.5362
 8309TIP3   OH249121   6.162   2.838  10.174 -0.0191 -0.3678 -0.2003
 8309TIP3    H149122   6.227   2.908  10.182 -0.6353  0.2498 -0.4502
 8309TIP3    H249123   6.096   2.859  10.240  0.8790 -1.9790  1.2892
 8310TIP3   OH249124   6.267   1.819  10.482  0.1096  0.1535 -0.2849
 8310TIP3    H149125   6.275   1.865  10.398 -0.5273  0.9667  0.0969
 8310TIP3    H249126   6.319   1.739  10.470  2.3707  1.5768 -0.5053
 8311TIP3   OH249127   2.057   1.727   9.680 -0.2236 -0.2622 -0.2416
 8311TIP3    H149128   2.010   1.734   9.763  1.6731  0.6384  0.8356
 8311TIP3    H249129   2.133   1.671   9.701  0.8348  0.8118 -1.0662
 8312TIP3   OH249130   6.250   7.430   9.331 -0.5362 -0.4431 -0.0111
 8312TIP3    H149131   6.202   7.376   9.395 -2.8264 -1.5923 -2.5131
 8312TIP3    H249132   6.214   7.518   9.343 -0.2949 -0.4549  0.8596
 8313TIP3   OH249133   6.616   6.452   9.590  0.2106 -0.1143 -0.4262
 8313TIP3    H149134   6.620   6.439   9.495  0.7275 -0.2000 -0.3915
 8313TIP3    H249135   6.601   6.547   9.600 -2.5324 -0.4432 -0.6437
 8314TIP3   OH249136   2.113   0.287   8.958  0.0247 -0.1345  0.4837
 8314TIP3    H149137   2.176   0.216   8.944 -1.5274 -1.5409  0.3694
 8314TIP3    H249138   2.083   0.309   8.870  0.8791  1.0702  0.4685
 8315TIP3   OH249139   7.061   6.199   9.147  0.1556  0.2728  0.1627
 8315TIP3    H149140   7.111   6.117   9.143 -0.7470 -0.3142  0.5015
 8315TIP3    H249141   7.093   6.242   9.227  0.7700  0.3477 -0.1189
 8316TIP3   OH249142   3.622   1.661   8.479 -0.5502  0.2830 -0.0717
 8316TIP3    H149143   3.655   1.654   8.389 -0.2090  1.5562 -0.0604
 8316TIP3    H249144   3.615   1.570   8.508 -2.6010 -0.2950 -2.0520
 8317TIP3   OH249145   0.398   7.464  10.033  0.3087  0.3493  0.4321
 8317TIP3    H149146   0.478   7.444   9.985 -0.4472 -0.1436 -0.6611
 8317TIP3    H249147   0.362   7.379  10.058 -0.5486  0.4919 -0.2487
 8318TIP3   OH249148   2.219   3.897   9.308  0.0079 -0.7204 -0.4069
 8318TIP3    H149149   2.183   3.965   9.251 -0.4895 -0.2680  0.4371
 8318TIP3    H249150   2.153   3.828   9.308  0.5679 -1.2845 -1.3639
 8319TIP3   OH249151   4.479   2.123  10.596 -0.0362  0.1586 -0.6440
 8319TIP3    H149152   4.528   2.045  10.622  0.9712  0.6347 -1.0225
 8319TIP3    H249153   4.507   2.139  10.506 -2.8912 -1.0423 -1.8281
 8320TIP3   OH249154   2.170   2.720   9.129  0.4958 -0.0619 -0.2936
 8320TIP3    H149155   2.162   2.710   9.034 -0.6698 -0.0386 -0.2048
 8320TIP3    H249156   2.180   2.815   9.142 -2.0568  0.2726 -0.2514
 8321TIP3   OH249157   6.401   0.532   9.711  0.1300  0.1801 -0.2391
 8321TIP3    H149158   6.342   0.457   9.720  0.6510 -0.3661 -1.1733
 8321TIP3    H249159   6.343   0.608   9.712 -0.4348 -0.2428  0.4468
 8322TIP3   OH249160   2.398   3.789   9.557  0.2598  0.3446 -0.3037
 8322TIP3    H149161   2.493   3.779   9.552  0.3966  0.7995  1.0705
 8322TIP3    H249162   2.377   3.855   9.490  1.0486  1.0672  0.1445
 8323TIP3   OH249163   3.552   4.464  10.384 -0.2044 -0.5619  0.0389
 8323TIP3    H149164   3.621   4.438  10.323  0.0046 -0.1151  0.0827
 8323TIP3    H249165   3.471   4.435  10.343  0.0189 -1.2339  0.0598
 8324TIP3   OH249166   1.688   7.437  10.175 -0.2003 -0.3174  0.2654
 8324TIP3    H149167   1.688   7.533  10.173  0.6448 -0.2922  0.8237
 8324TIP3    H249168   1.715   7.411  10.086  1.3121  0.0097  0.6031
 8325TIP3   OH249169   0.393   4.808  10.955  0.2771 -0.3011  0.3781
 8325TIP3    H149170   0.405   4.771  11.043 -1.0852  0.7712  1.0686
 8325TIP3    H249171   0.307   4.851  10.959  0.8705  1.1162 -0.9950
 8326TIP3   OH249172   0.700   3.807   8.780 -0.6149  0.1672 -0.3738
 8326TIP3    H149173   0.656   3.736   8.733 -0.9492  0.4456 -0.4879
 8326TIP3    H249174   0.771   3.764   8.828  0.1891 -0.0326 -1.6969
 8327TIP3   OH249175   1.129   4.237   8.685  0.4905  0.6418 -0.0958
 8327TIP3    H149176   1.215   4.206   8.714  1.0596 -0.7979 -2.9437
 8327TIP3    H249177   1.083   4.157   8.658 -1.4960  1.4718  0.6538
 8328TIP3   OH249178   7.278   2.818   9.772  0.6340 -0.5133  0.2841
 8328TIP3    H149179   7.321   2.805   9.688 -0.0579 -0.3206 -0.1155
 8328TIP3    H249180   7.264   2.730   9.806 -2.0035 -0.8501 -1.3485
 8329TIP3   OH249181   2.475   6.334   8.370  0.6024  0.4210  0.1411
 8329TIP3    H149182   2.391   6.368   8.403  0.8875  1.0445  0.2444
 8329TIP3    H249183   2.458   6.311   8.279  0.8102  2.4506 -0.4622
 8330TIP3   OH249184   1.210   2.738   8.877  0.1155  0.0596 -0.2200
 8330TIP3    H149185   1.127   2.785   8.881  0.6597  0.9930  0.4931
 8330TIP3    H249186   1.186   2.646   8.885 -1.0181  0.1321 -2.1203
 8331TIP3   OH249187   1.415   6.445   9.931 -0.0599  0.2721  0.3732
 8331TIP3    H149188   1.358   6.478   9.862  0.3840  1.2337  0.4493
 8331TIP3    H249189   1.453   6.365   9.895 -0.2157  0.4935 -0.2935
 8332TIP3   OH249190   4.332   2.278   9.738 -0.1968 -0.6212 -0.3445
 8332TIP3    H149191   4.304   2.357   9.691 -0.0948 -0.5923 -0.3586
 8332TIP3    H249192   4.354   2.310   9.826  0.6658 -0.4783 -0.5956
 8333TIP3   OH249193   8.425   0.841   9.342 -0.2891 -0.4885 -0.1365
 8333TIP3    H149194   8.365   0.768   9.357  0.7669 -1.2432  0.6382
 8333TIP3    H249195   8.468   0.819   9.259 -0.1482 -0.6396 -0.0264
 8334TIP3   OH249196   2.979   3.832   9.873 -0.8180 -0.0147 -0.1887
 8334TIP3    H149197   2.947   3.773   9.804 -0.4711  1.0677 -1.3143
 8334TIP3    H249198   3.034   3.895   9.827  1.5330 -0.7437  1.4177
 8335TIP3   OH249199   3.115   2.537   9.276  0.2681  0.5516  0.1952
 8335TIP3    H149200   3.158   2.559   9.193  1.0945 -0.8455  0.2209
 8335TIP3    H249201   3.168   2.580   9.343  2.1115 -1.6610  0.2770
 8336TIP3   OH249202   7.869   5.009  16.181  0.0105 -0.0640 -0.7849
 8336TIP3    H149203   7.801   5.062  16.222  0.4938  0.8867 -1.1750
 8336TIP3    H249204   7.940   5.007  16.245  0.5554  0.9767 -1.3334
 8337TIP3   OH249205   2.998   6.773   9.901  0.0987  0.5753  0.4390
 8337TIP3    H149206   2.945   6.745   9.827  1.5201  1.7936 -1.1199
 8337TIP3    H249207   3.077   6.719   9.895  1.3712  2.4673 -0.5664
 8338TIP3   OH249208   5.024   2.667   9.179  0.2840  0.4757  0.4183
 8338TIP3    H149209   4.938   2.709   9.180  0.4789  0.9546 -1.0293
 8338TIP3    H249210   5.081   2.728   9.226  0.0418  0.5888  0.5688
 8339TIP3   OH249211   1.050   5.801  10.521  0.1002 -0.4470 -0.2907
 8339TIP3    H149212   1.123   5.747  10.553  0.9852  1.1188  0.4730
 8339TIP3    H249213   1.031   5.861  10.594 -2.2257 -1.0565 -0.3472
 8340TIP3   OH249214   5.663   0.469   8.883 -0.5875 -0.3150 -0.2652
 8340TIP3    H149215   5.645   0.529   8.811  1.9907 -2.0909 -2.6041
 8340TIP3    H249216   5.669   0.525   8.960 -1.5204  1.9426 -1.7206
 8341TIP3   OH249217   0.180   0.847  10.258  0.1409 -0.4249 -0.1330
 8341TIP3    H149218   0.087   0.869  10.264  0.0691 -0.9916  1.1061
 8341TIP3    H249219   0.192   0.777  10.322  1.5367 -0.0096  0.0834
 8342TIP3   OH249220   8.025   6.562  10.281 -0.0192 -0.8937  0.6329
 8342TIP3    H149221   8.032   6.657  10.274 -0.5416 -0.7853  1.4485
 8342TIP3    H249222   7.931   6.545  10.290  0.1054 -1.4415  0.9873
 8343TIP3   OH249223   2.952   0.938  10.214  0.3692 -0.2835  0.2160
 8343TIP3    H149224   2.962   0.969  10.304  1.0873 -1.6411  0.6371
 8343TIP3    H249225   3.042   0.921  10.184  0.0860 -0.6324 -0.4636
 8344TIP3   OH249226   3.109   1.885   9.408  0.9132 -0.3414  0.0088
 8344TIP3    H149227   3.036   1.849   9.357  0.1497 -0.9727  1.4903
 8344TIP3    H249228   3.176   1.905   9.342 -0.0431 -1.0600 -1.2442
 8345TIP3   OH249229   7.523   7.253  10.499  0.0877  0.1711 -0.0144
 8345TIP3    H149230   7.599   7.255  10.557  0.4765  0.4758 -0.5193
 8345TIP3    H249231   7.469   7.181  10.531  0.7364 -0.2332  0.1746
 8346TIP3   OH249232   3.928   6.387   9.045 -0.0463  0.2760  0.4809
 8346TIP3    H149233   3.883   6.326   9.103  1.6171 -1.4022  0.0842
 8346TIP3    H249234   4.007   6.412   9.092 -0.3405  1.5597  0.3232
 8347TIP3   OH249235   3.829   5.353   9.041 -0.3538  0.3780  0.6887
 8347TIP3    H149236   3.844   5.437   8.998 -1.0141  0.4073  0.5117
 8347TIP3    H249237   3.736   5.336   9.030  0.0525 -1.2458 -0.8931
 8348TIP3   OH249238   5.672   8.330  14.722  0.4073  0.0541  0.1945
 8348TIP3    H149239   5.759   8.327  14.761  0.5101  1.2768  0.0987
 8348TIP3    H249240   5.687   8.353  14.630 -0.0632  1.7083  0.4926
 8349TIP3   OH249241   6.908   4.576  10.329  0.1701  0.1433  0.3908
 8349TIP3    H149242   6.857   4.620  10.397  0.0263 -2.5406  2.1411
 8349TIP3    H249243   6.997   4.571  10.365  0.4020 -0.1588 -0.2083
 8350TIP3   OH249244   7.990   3.926   9.019 -0.1019 -0.2790  0.0510
 8350TIP3    H149245   7.913   3.909   8.966 -0.5115  1.3183  0.0767
 8350TIP3    H249246   8.044   3.848   9.010 -1.4712 -1.2010 -0.3956
 8351TIP3   OH249247   5.374   7.026  10.579 -0.1699  0.7439 -0.3759
 8351TIP3    H149248   5.389   7.103  10.524 -1.5466  0.8037 -0.7099
 8351TIP3    H249249   5.402   6.952  10.525 -1.1758  0.8307 -1.0474
 8352TIP3   OH249250   4.983   3.639  10.516 -0.0053 -0.0509  0.3816
 8352TIP3    H149251   5.025   3.682  10.591  0.5364 -0.2921  0.2240
 8352TIP3    H249252   4.921   3.703  10.483  0.9685  0.7134 -0.0074
 8353TIP3   OH249253   8.002   0.462  11.241  0.3009 -0.0890  0.4427
 8353TIP3    H149254   8.054   0.520  11.185 -1.8601  1.9350  0.3511
 8353TIP3    H249255   8.054   0.452  11.320  0.2075  3.3379  1.1056
 8354TIP3   OH249256   6.688   7.138  11.037  0.4675 -0.2057 -0.1326
 8354TIP3    H149257   6.611   7.089  11.009  0.2837 -0.4350  0.7562
 8354TIP3    H249258   6.703   7.201  10.966 -2.3370  1.9391  1.0051
 8355TIP3   OH249259   0.403   1.047   8.467  0.4278  0.2596 -0.2779
 8355TIP3    H149260   0.321   1.081   8.502  0.6933 -0.1196  0.7819
 8355TIP3    H249261   0.402   1.069   8.374 -0.2690  1.4229 -0.0107
 8356TIP3   OH249262   6.118   1.084   8.699 -0.0015 -0.4237  0.2847
 8356TIP3    H149263   6.067   1.162   8.675  2.0006  0.6888 -0.5649
 8356TIP3    H249264   6.148   1.102   8.788 -1.0049 -1.0811  0.7849
 8357TIP3   OH249265   6.370   0.742   9.378  0.3644  0.0773  0.1447
 8357TIP3    H149266   6.399   0.678   9.313 -1.5866 -0.1178 -0.6125
 8357TIP3    H249267   6.285   0.708   9.408  0.6182  0.8581  1.8313
 8358TIP3   OH249268   6.513   4.696  10.041 -0.2216 -0.3901  0.2177
 8358TIP3    H149269   6.584   4.632  10.035 -0.5368 -0.7988  0.7362
 8358TIP3    H249270   6.547   4.774   9.997  0.2853 -0.8078 -0.1451
 8359TIP3   OH249271   6.163   3.451   9.708  0.2232  0.3869  0.3744
 8359TIP3    H149272   6.102   3.524   9.700 -1.3877 -0.9050  0.4202
 8359TIP3    H249273   6.112   3.374   9.685  1.4639 -0.9252  1.7911
 8360TIP3   OH249274   7.898   3.276   9.163 -1.0326 -0.3817  0.0431
 8360TIP3    H149275   7.926   3.283   9.254  0.0687  0.5943 -0.3528
 8360TIP3    H249276   7.853   3.359   9.145 -1.0220 -0.4680 -0.3856
 8361TIP3   OH249277   4.383   7.068  10.597 -0.3464  0.0155 -0.3345
 8361TIP3    H149278   4.354   7.155  10.620 -0.2411  0.5562 -2.0630
 8361TIP3    H249279   4.466   7.082  10.550 -0.2543 -1.0230 -0.5174
 8362TIP3   OH249280   0.900   3.947  10.895 -0.2019  0.4814 -0.4864
 8362TIP3    H149281   0.836   3.897  10.944  1.9975 -0.3587  1.7555
 8362TIP3    H249282   0.912   3.899  10.813 -0.5751 -0.7663  0.1792
 8363TIP3   OH249283   5.879   4.011   8.906 -0.3078  0.1471  0.1720
 8363TIP3    H149284   5.902   3.924   8.874 -0.5652  0.1553 -0.0414
 8363TIP3    H249285   5.789   4.002   8.938 -1.4015  0.9337 -2.3504
 8364TIP3   OH249286   1.306   6.557   9.686 -0.2286  0.1214 -0.2900
 8364TIP3    H149287   1.393   6.571   9.649  0.1815 -0.1633  0.5548
 8364TIP3    H249288   1.249   6.549   9.610  0.2331  1.8017 -0.8648
 8365TIP3   OH249289   3.713   1.943  11.025  0.3832  0.1037  0.3585
 8365TIP3    H149290   3.680   2.032  11.034 -0.6579 -0.1595 -0.6868
 8365TIP3    H249291   3.807   1.953  11.008  0.1820  1.0128 -0.2374
 8366TIP3   OH249292   7.989   7.797   9.560 -0.1126 -0.0389  0.5811
 8366TIP3    H149293   8.042   7.844   9.495 -2.1245  0.9755 -0.4439
 8366TIP3    H249294   8.030   7.711   9.567  1.7171  0.7405 -0.0264
 8367TIP3   OH249295   2.211   5.675   9.040  0.7986 -0.5416  0.1185
 8367TIP3    H149296   2.219   5.624   8.959  0.9402 -0.4116  0.0506
 8367TIP3    H249297   2.291   5.726   9.044  0.0795  0.6632 -0.4877
 8368TIP3   OH249298   0.002   0.273   8.666  0.2671  0.4114 -0.3404
 8368TIP3    H149299  -0.033   0.191   8.702  1.9147 -0.1673  0.0731
 8368TIP3    H249300  -0.052   0.342   8.705 -0.8521 -0.4487 -0.3245
 8369TIP3   OH249301   5.041   0.289   8.877  0.1166 -0.1010 -0.1457
 8369TIP3    H149302   5.057   0.382   8.891 -1.5082  0.5224 -1.9795
 8369TIP3    H249303   4.948   0.277   8.897 -0.4167 -0.6654 -2.5762
 8370TIP3   OH249304   3.161   1.697   8.559 -0.0955  0.1891 -0.1899
 8370TIP3    H149305   3.077   1.688   8.515  0.2358 -3.0965 -0.3279
 8370TIP3    H249306   3.218   1.633   8.517  2.1744  1.5227  0.6846
 8371TIP3   OH249307   0.696   4.492  10.424 -0.1755  0.1626  0.2226
 8371TIP3    H149308   0.717   4.462  10.336 -1.2994 -0.7622  0.2472
 8371TIP3    H249309   0.774   4.538  10.453  0.6116 -0.4542 -0.8571
 8372TIP3   OH249310   1.743   7.954   9.739 -0.3551 -0.0312  0.3537
 8372TIP3    H149311   1.827   8.001   9.740 -0.3595  0.0743 -1.4111
 8372TIP3    H249312   1.761   7.872   9.786  0.9359 -0.2944 -0.5356
 8373TIP3   OH249313   2.686   4.165  10.426 -0.0815  0.4143  0.1468
 8373TIP3    H149314   2.725   4.099  10.369  0.4508  0.9421 -0.1135
 8373TIP3    H249315   2.684   4.124  10.513  1.8717  0.6825  0.3532
 8374TIP3   OH249316   7.179   6.246  10.223  0.3083 -0.4404  1.3199
 8374TIP3    H149317   7.105   6.206  10.269 -0.5395  0.3466  0.6806
 8374TIP3    H249318   7.222   6.300  10.289 -0.9842  0.8000  1.1929
 8375TIP3   OH249319   6.101   6.664   9.688  0.3557 -0.2597 -0.3123
 8375TIP3    H149320   6.189   6.652   9.723  0.3342  0.4951  0.0199
 8375TIP3    H249321   6.109   6.737   9.627 -0.4042  1.1899  1.2120
 8376TIP3   OH249322   2.614   7.202   8.756 -0.1574  0.1885 -0.2454
 8376TIP3    H149323   2.708   7.185   8.767  0.0644  0.8512 -0.9634
 8376TIP3    H249324   2.575   7.181   8.840  0.6766  0.1439  0.1374
 8377TIP3   OH249325   5.032   7.298   9.888 -0.0939 -0.3866 -0.0896
 8377TIP3    H149326   4.978   7.246   9.948 -0.7178  0.9641  0.5763
 8377TIP3    H249327   5.120   7.263   9.899 -0.6321 -1.9030 -0.3635
 8378TIP3   OH249328   2.064   3.944   8.966 -0.2729  0.3939  0.4201
 8378TIP3    H149329   2.008   3.873   8.995  1.3918 -0.3181  2.1156
 8378TIP3    H249330   2.140   3.901   8.927 -0.5304  1.3145 -1.1930
 8379TIP3   OH249331   7.768   7.246   8.588 -0.1618 -0.4111  0.3094
 8379TIP3    H149332   7.820   7.257   8.667  0.9184 -2.1287 -0.1072
 8379TIP3    H249333   7.704   7.318   8.590  0.9080  0.5419  1.8754
 8380TIP3   OH249334   7.987   5.138   8.794  0.2242 -0.0336  0.5474
 8380TIP3    H149335   8.077   5.136   8.761  0.2839 -0.1254  0.7165
 8380TIP3    H249336   7.979   5.057   8.845 -0.0437 -0.1724  0.2928
 8381TIP3   OH249337   2.949   6.441   9.894  0.5315 -0.5688 -0.2797
 8381TIP3    H149338   2.942   6.416   9.986 -2.5553  1.7105  0.2588
 8381TIP3    H249339   2.892   6.379   9.848 -0.3336  0.1314 -0.1757
 8382TIP3   OH249340   3.229   3.622  10.747 -0.1281 -0.7942 -0.2504
 8382TIP3    H149341   3.206   3.707  10.711  0.7134 -1.1831 -1.8103
 8382TIP3    H249342   3.323   3.614  10.732 -0.1187 -1.8289  0.2443
 8383TIP3   OH249343   0.611   8.343   8.807  0.2350  0.0517 -0.0760
 8383TIP3    H149344   0.564   8.262   8.827  0.3153 -0.2009 -0.8777
 8383TIP3    H249345   0.702   8.325   8.832  0.3991 -0.3773 -0.9641
 8384TIP3   OH249346   3.252   3.400   9.891 -0.1766 -0.2500  0.1301
 8384TIP3    H149347   3.211   3.417   9.975 -1.5377 -0.7867 -0.3902
 8384TIP3    H249348   3.252   3.305   9.882 -0.1134 -0.1997 -0.5030
 8385TIP3   OH249349   7.869   0.084   9.565 -0.3875 -0.1807  0.3761
 8385TIP3    H149350   7.839   0.159   9.515 -2.2068  0.5447  2.3921
 8385TIP3    H249351   7.827   0.094   9.651 -1.0859 -3.7068  0.6127
 8386TIP3   OH249352   6.860   6.561   9.031  0.1975  0.0883  0.0962
 8386TIP3    H149353   6.813   6.644   9.024 -0.2860 -0.0919  1.0647
 8386TIP3    H249354   6.952   6.585   9.027  0.0708  0.7196  0.8372
 8387TIP3   OH249355   3.406   5.862   9.576  0.6248 -0.0733  0.2327
 8387TIP3    H149356   3.326   5.914   9.564  2.0552  2.0518 -0.7653
 8387TIP3    H249357   3.423   5.866   9.670 -1.4977 -2.3642  0.8262
 8388TIP3   OH249358   0.806   3.970   9.547  0.1332 -0.9795 -0.2085
 8388TIP3    H149359   0.766   3.973   9.460  0.9631 -1.4522 -0.6199
 8388TIP3    H249360   0.876   4.035   9.543 -1.5314  1.0272  1.0283
 8389TIP3   OH249361   3.789   0.381  11.176 -0.8268 -0.1363 -0.3624
 8389TIP3    H149362   3.876   0.418  11.191 -0.5541 -0.7861 -0.3133
 8389TIP3    H249363   3.777   0.317  11.246 -1.0151 -0.6151 -0.8253
 8390TIP3   OH249364   2.931   6.332  10.173 -0.0794 -0.6038 -0.3182
 8390TIP3    H149365   2.852   6.290  10.139 -0.2921 -0.8514  0.4707
 8390TIP3    H249366   2.899   6.396  10.237  0.4240 -2.7680  2.2869
 8391TIP3   OH249367   2.464   6.271  10.009 -0.1561 -0.2805 -0.5373
 8391TIP3    H149368   2.413   6.330  10.066 -1.6743 -2.0617  0.0658
 8391TIP3    H249369   2.553   6.304  10.015 -0.4663  0.3556  1.9200
 8392TIP3   OH249370   3.739   2.355   9.326  0.2673  0.2729 -0.3989
 8392TIP3    H149371   3.686   2.427   9.291  0.1946  0.9365  1.0173
 8392TIP3    H249372   3.677   2.284   9.339 -0.5507  1.2886  1.9808
 8393TIP3   OH249373   0.754   1.533   9.915  0.0682 -0.1561 -0.3164
 8393TIP3    H149374   0.688   1.538   9.985  0.3390  1.8986 -0.1660
 8393TIP3    H249375   0.833   1.568   9.954  0.2584  0.9282 -1.6129
 8394TIP3   OH249376   4.614   6.953   9.039  0.9210 -0.1239  0.9690
 8394TIP3    H149377   4.689   6.971   9.096  1.2693 -1.1033  0.8432
 8394TIP3    H249378   4.593   6.861   9.057  2.2130 -1.0813 -1.8075
 8395TIP3   OH249379   5.959   8.248   9.870  0.3806  0.4507 -0.3298
 8395TIP3    H149380   5.968   8.190   9.945  0.0347  0.6802 -0.1098
 8395TIP3    H249381   5.866   8.267   9.865  0.4349  0.6318 -0.6685
 8396TIP3   OH249382   0.067   4.253  10.077  0.1374  0.6532  0.0664
 8396TIP3    H149383  -0.023   4.276  10.103 -0.3969 -0.2133 -0.9808
 8396TIP3    H249384   0.102   4.208  10.153  0.6685  3.3449  1.5739
 8397TIP3   OH249385   7.927   0.248  11.033  0.1194  0.0220 -0.0046
 8397TIP3    H149386   7.870   0.325  11.025 -0.5888 -0.3470  1.2625
 8397TIP3    H249387   8.007   0.281  11.073  0.7555  0.5056 -1.5999
 8398TIP3   OH249388   1.304   3.516  10.769 -0.1195  0.0419  0.6434
 8398TIP3    H149389   1.225   3.480  10.810 -0.7436  1.0643  0.3833
 8398TIP3    H249390   1.374   3.499  10.832 -0.6459 -0.3687  1.1355
 8399TIP3   OH249391   6.594   4.436  10.074 -0.7328 -0.1768 -0.1256
 8399TIP3    H149392   6.675   4.416  10.027 -0.6389  1.4643 -0.7467
 8399TIP3    H249393   6.529   4.377  10.037 -0.4887  0.5758 -1.8419
 8400TIP3   OH249394   4.041   3.865  10.309 -0.1194 -0.6349  0.3704
 8400TIP3    H149395   4.018   3.827  10.393  1.3788 -0.9753  0.6524
 8400TIP3    H249396   4.095   3.941  10.330 -0.5909 -0.1176 -0.2586
 8401TIP3   OH249397   0.459   5.232   9.290  0.2099 -0.0368  0.2434
 8401TIP3    H149398   0.392   5.183   9.243  1.5797  0.2061 -2.1084
 8401TIP3    H249399   0.409   5.293   9.345 -1.4800 -0.9424 -0.2022
 8402TIP3   OH249400   0.928   4.641  10.416 -0.0831 -0.0826  0.1486
 8402TIP3    H149401   0.966   4.719  10.378  1.8458 -0.7524  0.5693
 8402TIP3    H249402   0.950   4.571  10.355 -0.7827 -0.4792  0.3388
 8403TIP3   OH249403   6.078   0.264  10.759  0.0500 -0.0945  0.0058
 8403TIP3    H149404   6.065   0.271  10.664  0.2758 -0.3559 -0.0470
 8403TIP3    H249405   6.168   0.294  10.773 -0.4285  1.2789  0.3141
 8404TIP3   OH249406   1.150   6.780   9.539  0.3606 -0.2105 -0.2126
 8404TIP3    H149407   1.228   6.726   9.528  1.3372  0.8569  1.0019
 8404TIP3    H249408   1.166   6.856   9.483 -0.5503 -0.7037 -1.1641
 8405TIP3   OH249409   5.933   1.740  10.018 -0.0071  0.4716 -0.4538
 8405TIP3    H149410   5.974   1.811  10.066  0.7706  0.6673 -1.3823
 8405TIP3    H249411   5.849   1.775   9.989 -0.7588  0.1581  1.2215
 8406TIP3   OH249412   0.927   2.860   8.869 -0.2323 -0.4106 -0.1013
 8406TIP3    H149413   0.875   2.797   8.819  1.0911  0.7141 -3.1763
 8406TIP3    H249414   0.900   2.945   8.834  0.8285  0.4532  1.1076
 8407TIP3   OH249415   8.024   0.490  10.829  0.8053  0.6183  0.1879
 8407TIP3    H149416   7.950   0.521  10.879  1.6976  1.3893  1.0621
 8407TIP3    H249417   8.100   0.502  10.886  1.5609 -0.5454 -0.5094
 8408TIP3   OH249418   6.567   5.797  10.694  0.1128 -0.2730  0.0761
 8408TIP3    H149419   6.660   5.794  10.714  1.0452  1.5828 -3.1382
 8408TIP3    H249420   6.535   5.874  10.740  0.8378  0.6330 -0.8931
 8409TIP3   OH249421   6.836   5.954  10.540  0.2262  0.3261 -0.2543
 8409TIP3    H149422   6.885   5.873  10.533 -0.2849  0.0283 -0.4125
 8409TIP3    H249423   6.895   6.021  10.505  0.3436 -0.0910 -0.8541
 8410TIP3   OH249424   4.725   7.804   9.052 -0.0737  0.1998  0.1311
 8410TIP3    H149425   4.671   7.727   9.070 -0.7536  0.4772 -0.6513
 8410TIP3    H249426   4.675   7.853   8.987  1.5615 -0.0484 -1.3920
 8411TIP3   OH249427   3.102   2.478   9.667  0.2160 -0.7499 -0.7459
 8411TIP3    H149428   3.029   2.450   9.612 -0.3384  0.1379 -0.4841
 8411TIP3    H249429   3.062   2.536   9.732  1.0615 -0.7467 -0.2080
 8412TIP3   OH249430   6.249   1.522   9.002 -0.0347 -0.2279 -0.0261
 8412TIP3    H149431   6.307   1.530   9.078 -0.9754  2.1513  0.5306
 8412TIP3    H249432   6.285   1.583   8.938  0.0150 -1.2864 -1.0423
 8413TIP3   OH249433   2.217   4.392  10.653 -0.2839  0.3056  0.6826
 8413TIP3    H149434   2.122   4.375  10.649 -0.2075  0.0951 -1.6659
 8413TIP3    H249435   2.225   4.485  10.636 -0.0380  0.1207 -0.2667
 8414TIP3   OH249436   5.106   8.307   9.733  0.4551 -0.3324  0.2909
 8414TIP3    H149437   5.094   8.374   9.665  1.9447  0.4076  0.7131
 8414TIP3    H249438   5.045   8.237   9.709  0.0318  0.4722 -1.0818
 8415TIP3   OH249439   1.034   1.386   9.962  0.2339  0.5852  0.1212
 8415TIP3    H149440   0.958   1.444   9.969  1.5987  2.2953  2.3433
 8415TIP3    H249441   1.051   1.358  10.052  0.7179 -1.9165 -0.6603
 8416TIP3   OH249442   5.271   6.220   9.193  0.6891 -0.5177  0.2225
 8416TIP3    H149443   5.365   6.207   9.205  0.6266  0.4900  2.0800
 8416TIP3    H249444   5.230   6.152   9.248  0.2917 -1.1049 -0.7555
 8417TIP3   OH249445   2.849   7.110   9.976  0.3863  0.0526  0.8423
 8417TIP3    H149446   2.843   7.022  10.011  0.3572 -0.0564  0.5697
 8417TIP3    H249447   2.776   7.158  10.016 -1.8335 -0.9766 -1.6402
 8418TIP3   OH249448   7.175   2.797   9.497  0.6282  0.1347  0.1632
 8418TIP3    H149449   7.145   2.735   9.563  0.6524  0.7047  0.7226
 8418TIP3    H249450   7.268   2.776   9.485  0.6254  0.0322  0.3230
 8419TIP3   OH249451   3.462   7.726   8.927  0.3670  0.0200 -0.2541
 8419TIP3    H149452   3.433   7.656   8.985  2.9484  0.1659  1.3700
 8419TIP3    H249453   3.382   7.755   8.883 -1.7114 -0.3119  2.9801
 8420TIP3   OH249454   4.576   5.933   8.731  0.2651  0.0983  0.2682
 8420TIP3    H149455   4.595   5.943   8.638 -1.2945 -1.4638 -0.2639
 8420TIP3    H249456   4.602   6.017   8.770  1.1959  0.6820 -1.5001
 8421TIP3   OH249457   5.022   5.965   9.771 -0.6571 -0.1288 -0.1917
 8421TIP3    H149458   5.107   5.975   9.726 -0.4331  2.7198  0.6721
 8421TIP3    H249459   5.011   5.870   9.780  1.7317 -0.6395 -1.6233
 8422TIP3   OH249460   8.132   4.334  10.644 -0.1739  0.0966  0.2127
 8422TIP3    H149461   8.140   4.252  10.693  0.7836  1.3220  2.2471
 8422TIP3    H249462   8.071   4.387  10.695 -1.7590  0.2536 -1.7382
 8423TIP3   OH249463   8.289   3.022   9.844 -0.0793  0.7369 -0.4323
 8423TIP3    H149464   8.248   2.942   9.812 -1.3524  1.1339  0.1573
 8423TIP3    H249465   8.375   2.994   9.875 -0.4238 -0.3587 -0.4439
 8424TIP3   OH249466   0.873   5.724   9.719 -0.5164  0.1058  0.0226
 8424TIP3    H149467   0.835   5.651   9.671  0.2670 -0.9768  0.9926
 8424TIP3    H249468   0.799   5.763   9.767 -0.6229 -1.3322  1.0876
 8425TIP3   OH249469   7.696   2.799  10.721 -0.0549  0.5703 -0.0170
 8425TIP3    H149470   7.642   2.806  10.642  1.3788  1.4965 -0.9577
 8425TIP3    H249471   7.661   2.866  10.780  0.1927  1.3163 -0.7067
 8426TIP3   OH249472   6.552   1.283   9.259 -0.3816 -0.0235 -0.1058
 8426TIP3    H149473   6.576   1.195   9.286 -0.2655 -0.3912 -1.3316
 8426TIP3    H249474   6.636   1.324   9.236 -0.4866  0.2237 -0.0514
 8427TIP3   OH249475   7.794   4.803   9.925  0.1314  0.0293 -0.3133
 8427TIP3    H149476   7.846   4.883   9.930 -0.6323  0.4493  1.3855
 8427TIP3    H249477   7.707   4.828   9.955 -0.6880 -0.9967 -1.7101
 8428TIP3   OH249478   0.236   3.368  11.169  0.0434  0.0200  0.4152
 8428TIP3    H149479   0.301   3.313  11.214  0.3951  0.5301  0.5414
 8428TIP3    H249480   0.182   3.306  11.119 -0.2896 -0.5558  1.4531
 8429TIP3   OH249481   0.109   4.861  10.209  0.0891  0.1919  0.3012
 8429TIP3    H149482   0.196   4.876  10.171 -0.7990 -0.6171 -2.2201
 8429TIP3    H249483   0.057   4.936  10.180 -0.2210  0.3801  1.3115
 8430TIP3   OH249484   6.071   6.919   8.883 -0.1102 -0.2290  0.3377
 8430TIP3    H149485   5.991   6.924   8.831  1.0451 -2.1952 -1.8152
 8430TIP3    H249486   6.116   7.002   8.867 -1.0824  0.3355  0.4922
 8431TIP3   OH249487   2.153   5.067   9.948  0.2721  0.0604  0.1506
 8431TIP3    H149488   2.149   5.002  10.018  0.1147 -0.4587 -0.3392
 8431TIP3    H249489   2.247   5.082   9.935  0.2971  1.0410  1.2750
 8432TIP3   OH249490   3.267   6.647   9.888  0.3116  0.1821  0.1158
 8432TIP3    H149491   3.320   6.677   9.815  0.6962  0.1406  0.3707
 8432TIP3    H249492   3.282   6.552   9.891 -1.7541 -0.2583 -1.3720
 8433TIP3   OH249493   7.336   1.825   9.706  0.5482 -0.6228  0.7302
 8433TIP3    H149494   7.248   1.845   9.673  1.2701  0.6692 -0.5188
 8433TIP3    H249495   7.351   1.734   9.680  0.4246 -0.1691 -1.0728
 8434TIP3   OH249496   1.230   1.012   9.543 -0.0479 -0.3642  0.6604
 8434TIP3    H149497   1.205   1.071   9.472 -0.6940 -1.8395 -0.3739
 8434TIP3    H249498   1.325   1.023   9.550 -0.3543  2.4439  2.0613
 8435TIP3   OH249499   4.527   4.535   9.436 -0.2653  0.1271 -0.4466
 8435TIP3    H149500   4.612   4.568   9.463 -0.3093 -0.8316  0.9304
 8435TIP3    H249501   4.534   4.440   9.444 -2.1252  0.1075  1.8325
 8436TIP3   OH249502   6.408   4.738  10.976  0.1138  0.1659  1.0025
 8436TIP3    H149503   6.419   4.750  11.070 -0.7451 -0.9670  1.2680
 8436TIP3    H249504   6.376   4.823  10.945  0.5020  0.5770  1.7107
 8437TIP3   OH249505   5.222   7.231  10.194 -0.5052 -0.4445  0.6858
 8437TIP3    H149506   5.159   7.178  10.242 -1.0150 -0.5186 -0.0564
 8437TIP3    H249507   5.283   7.167  10.156 -0.8332 -0.4691  0.1990
 8438TIP3   OH249508   0.657   0.401   8.671  0.4405  0.3583 -0.0409
 8438TIP3    H149509   0.568   0.420   8.701  0.1032 -0.2375 -0.6406
 8438TIP3    H249510   0.714   0.438   8.739 -0.2883 -0.7395  1.2011
 8439TIP3   OH249511   3.685   0.562   9.711  0.5902  0.0728 -0.1203
 8439TIP3    H149512   3.654   0.543   9.622  0.7733  1.0099 -0.4041
 8439TIP3    H249513   3.762   0.618   9.698 -0.4223  1.7383  0.6229
 8440TIP3   OH249514   7.711   5.224  10.544  0.5412  0.1503  0.2785
 8440TIP3    H149515   7.645   5.275  10.591 -0.1404 -0.4534 -0.0092
 8440TIP3    H249516   7.792   5.274  10.556  0.3513  0.1308  1.9279
 8441TIP3   OH249517   4.598   3.818  10.262 -0.2503  0.6365  0.3712
 8441TIP3    H149518   4.543   3.895  10.245  0.3420  1.5239  2.2124
 8441TIP3    H249519   4.546   3.764  10.322 -0.5459 -0.3044 -0.6911
 8442TIP3   OH249520   0.292   4.505  10.248  0.2449 -0.2779 -0.2941
 8442TIP3    H149521   0.355   4.574  10.226  0.8835 -1.2265 -1.5357
 8442TIP3    H249522   0.314   4.432  10.191 -0.9533 -1.2364  0.4013
 8443TIP3   OH249523   0.797   6.905   8.931  0.1904  0.6924 -0.9097
 8443TIP3    H149524   0.780   6.911   8.837 -0.4155  0.1220 -0.8522
 8443TIP3    H249525   0.717   6.866   8.967  0.9423 -0.3731 -0.3455
 8444TIP3   OH249526   2.550   0.056   8.777 -0.2533  0.1918  0.0161
 8444TIP3    H149527   2.549   0.025   8.686 -1.6543  0.8228 -0.2170
 8444TIP3    H249528   2.489   0.130   8.777 -0.0662  0.3674  1.4168
 8445TIP3   OH249529   4.625   1.978   9.375 -0.6492  0.6052 -0.3085
 8445TIP3    H149530   4.670   2.061   9.356  0.1208  0.5539  1.1899
 8445TIP3    H249531   4.547   2.004   9.424 -1.0106  0.5107 -0.8220
 8446TIP3   OH249532   0.365   0.913  11.153 -0.3590 -0.5520 -0.3091
 8446TIP3    H149533   0.365   0.991  11.208 -0.6774 -0.1283 -0.8892
 8446TIP3    H249534   0.274   0.904  11.124 -0.6031 -1.9085  0.7932
 8447TIP3   OH249535   7.697   2.289  10.761  0.2973  0.2946  0.1385
 8447TIP3    H149536   7.613   2.273  10.805  0.3343  0.2894  0.2078
 8447TIP3    H249537   7.746   2.207  10.774 -1.1646 -1.3632 -3.3638
 8448TIP3   OH249538   4.863   2.474   9.517 -0.2133 -0.0197  0.3707
 8448TIP3    H149539   4.795   2.537   9.539 -0.9292 -0.4351 -0.5611
 8448TIP3    H249540   4.852   2.403   9.581 -0.1349  0.2746  0.7140
 8449TIP3   OH249541   1.889   4.867  11.035 -0.2446 -0.1561 -0.5087
 8449TIP3    H149542   1.829   4.836  10.967 -1.0022 -0.7390  0.3859
 8449TIP3    H249543   1.880   4.802  11.106  0.0711  0.7437  0.3775
 8450TIP3   OH249544   3.090   5.801   9.761  0.1377  0.0816 -0.2274
 8450TIP3    H149545   3.120   5.807   9.671  1.7161  0.5840  0.2980
 8450TIP3    H249546   3.050   5.714   9.768 -1.1203  0.4941 -1.6962
 8451TIP3   OH249547   6.683   4.958  10.636 -0.1122 -0.3911  0.1495
 8451TIP3    H149548   6.643   4.871  10.640  2.0306 -1.4009  0.9208
 8451TIP3    H249549   6.669   4.994  10.723  0.1819 -0.5350  0.2584
 8452TIP3   OH249550   6.971   5.119   9.290  0.5514 -0.0326  0.2399
 8452TIP3    H149551   6.989   5.028   9.264 -0.1877  0.4697 -2.2950
 8452TIP3    H249552   7.056   5.161   9.290  0.8956 -0.6969  1.3925
 8453TIP3   OH249553   4.889   2.088   9.527 -0.4015 -0.1496 -0.0001
 8453TIP3    H149554   4.894   2.018   9.462 -2.8863 -0.7790  0.3638
 8453TIP3    H249555   4.952   2.063   9.595  2.3194  0.5649 -2.0871
 8454TIP3   OH249556   5.664   3.640  10.381 -0.5598  0.1235 -0.1031
 8454TIP3    H149557   5.649   3.705  10.313 -0.0255  0.6893  0.3135
 8454TIP3    H249558   5.590   3.579  10.373 -1.0081  0.7200 -0.5549
 8455TIP3   OH249559   4.157   5.986  10.313  0.2029 -0.4532  0.1706
 8455TIP3    H149560   4.098   5.921  10.275  1.0891 -0.3153 -1.5431
 8455TIP3    H249561   4.132   6.069  10.273 -0.6336  0.2533  2.0222
 8456TIP3   OH249562   2.504   6.554   9.637 -0.4575  0.1400  0.1034
 8456TIP3    H149563   2.558   6.516   9.568  0.8619  0.4376  0.9355
 8456TIP3    H249564   2.448   6.481   9.666  1.4243 -0.9880  1.0853
 8457TIP3   OH249565   0.014   2.493  10.616 -0.5711  0.5389 -0.3145
 8457TIP3    H149566  -0.067   2.474  10.569 -0.3428  1.6836 -1.2053
 8457TIP3    H249567   0.044   2.407  10.647 -0.7960 -0.2700 -2.1760
 8458TIP3   OH249568   2.323   5.906   9.341  0.1679  0.2513 -0.2474
 8458TIP3    H149569   2.347   5.896   9.249  0.4972  1.5023 -0.3148
 8458TIP3    H249570   2.402   5.881   9.389 -0.3284 -1.4473 -0.2284
 8459TIP3   OH249571   1.618   6.618   8.571  0.0833  0.0412  0.0041
 8459TIP3    H149572   1.707   6.648   8.553  1.2863 -2.8149  0.6049
 8459TIP3    H249573   1.603   6.641   8.663  0.9149 -0.9668  0.4090
 8460TIP3   OH249574   8.088   0.653   8.731  0.1036 -0.3955  0.0486
 8460TIP3    H149575   8.167   0.685   8.773 -1.2901  0.7009  2.0235
 8460TIP3    H249576   8.048   0.731   8.692 -0.3156 -0.8186 -0.3928
 8461TIP3   OH249577   2.401   7.204   9.909  0.4130  0.5972  0.3733
 8461TIP3    H149578   2.440   7.126   9.947  0.2624  0.0091 -0.6435
 8461TIP3    H249579   2.472   7.268   9.906  0.8545  0.0992  0.1016
 8462TIP3   OH249580   0.609   5.834   9.771 -0.3125 -0.1230  0.1511
 8462TIP3    H149581   0.584   5.920   9.804 -0.9952 -0.3796  0.3073
 8462TIP3    H249582   0.547   5.816   9.701  1.0529  0.3759 -1.2652
 8463TIP3   OH249583   5.110   4.222   9.410 -0.4334 -0.1946  0.3299
 8463TIP3    H149584   5.156   4.261   9.484  1.1692 -0.7170 -0.3441
 8463TIP3    H249585   5.179   4.193   9.351 -1.6350  0.6534 -1.6305
 8464TIP3   OH249586   4.969   2.026   9.867  0.2808  0.8226 -0.3293
 8464TIP3    H149587   4.949   1.932   9.873 -3.3589  1.5105  1.4789
 8464TIP3    H249588   5.001   2.049   9.954  0.0037  1.4542 -0.3932
 8465TIP3   OH249589   1.464   7.810   9.935  0.5536  0.3447 -0.2672
 8465TIP3    H149590   1.504   7.871   9.873 -0.3647 -0.0496 -1.2937
 8465TIP3    H249591   1.387   7.856   9.968  1.7493  1.0804  1.6617
 8466TIP3   OH249592   0.731   6.944   8.682  0.5701 -0.1850 -0.1537
 8466TIP3    H149593   0.704   6.896   8.604 -1.2736  0.6503 -0.0754
 8466TIP3    H249594   0.735   7.035   8.655 -0.3445  0.1488  0.7498
 8467TIP3   OH249595   7.362   2.114   9.305  0.3646  0.9510 -0.0908
 8467TIP3    H149596   7.386   2.065   9.226  0.6338 -0.4461  0.8078
 8467TIP3    H249597   7.284   2.069   9.338  1.3321  0.2928  1.4325
 8468TIP3   OH249598   8.167   3.754   9.266 -0.6712 -0.2371 -0.3880
 8468TIP3    H149599   8.121   3.820   9.319 -0.3364  1.6440 -2.3324
 8468TIP3    H249600   8.201   3.802   9.191  1.1130 -2.3315 -1.0237
 8469TIP3   OH249601   6.032   2.626   8.771  0.3694  0.3102  0.0128
 8469TIP3    H149602   6.085   2.680   8.712  0.0609  2.2891  1.4758
 8469TIP3    H249603   6.069   2.642   8.858 -1.8682  0.8369  0.9223
 8470TIP3   OH249604   5.805   6.265  10.313  0.4826  0.2527  0.4652
 8470TIP3    H149605   5.834   6.356  10.314 -1.3747  0.8901  1.5660
 8470TIP3    H249606   5.736   6.263  10.246  2.4445 -1.0822 -1.6831
 8471TIP3   OH249607   5.640   7.403   9.545  0.1389  0.1741 -0.0815
 8471TIP3    H149608   5.657   7.492   9.575 -0.7638  0.0802  0.7291
 8471TIP3    H249609   5.555   7.380   9.583  0.4086 -1.0713 -0.1899
 8472TIP3   OH249610   6.020   7.932   9.523  0.0509  0.6771 -0.1747
 8472TIP3    H149611   5.951   7.987   9.561 -0.5245  0.1857 -0.4891
 8472TIP3    H249612   5.978   7.848   9.507  0.0025  1.1093 -2.7326
 8473TIP3   OH249613   3.313   4.023   8.704 -0.0157  0.1976 -0.2160
 8473TIP3    H149614   3.242   3.962   8.721  0.1205  0.8758  3.7708
 8473TIP3    H249615   3.270   4.108   8.693  0.0373  0.1360 -0.9282
 8474TIP3   OH249616   1.304   3.731  10.996  0.8487  0.0956  0.5022
 8474TIP3    H149617   1.361   3.655  11.010  0.1740 -0.3355  0.9476
 8474TIP3    H249618   1.217   3.700  11.020  0.6645  1.2041  1.3267
 8475TIP3   OH249619   0.703   3.632   9.381  0.4706  0.2728  0.1952
 8475TIP3    H149620   0.790   3.600   9.358  1.2274  1.1975  1.6280
 8475TIP3    H249621   0.708   3.727   9.369 -0.8974  0.2197 -1.3291
 8476TIP3   OH249622   0.422   7.980  10.524  0.1045  0.1229 -0.0531
 8476TIP3    H149623   0.491   7.990  10.589 -0.4746 -1.4487  0.8573
 8476TIP3    H249624   0.384   8.067  10.515  1.6255  0.8390  0.0408
 8477TIP3   OH249625   0.184   2.870  10.113 -0.5733  0.4340  0.3672
 8477TIP3    H149626   0.165   2.931  10.185  0.9352  1.1163  0.2315
 8477TIP3    H249627   0.273   2.840  10.132 -0.9365 -0.9733 -0.1190
 8478TIP3   OH249628   4.713   4.574  10.287  0.3836 -0.7658  0.1285
 8478TIP3    H149629   4.702   4.480  10.299  0.7850 -0.5933  2.1240
 8478TIP3    H249630   4.790   4.597  10.338 -0.2266  0.7833  0.4257
 8479TIP3   OH249631   8.324   1.437   8.704 -0.2875  0.1150 -0.6975
 8479TIP3    H149632   8.290   1.522   8.676 -0.1348 -0.3301 -2.3575
 8479TIP3    H249633   8.392   1.458   8.768 -1.3643  1.1582  0.1485
 8480TIP3   OH249634   7.309   8.363   9.871  0.3898 -0.5585 -0.0605
 8480TIP3    H149635   7.249   8.416   9.922 -1.7356 -1.6100 -1.3155
 8480TIP3    H249636   7.321   8.283   9.923  2.8964  0.6529  1.4146
 8481TIP3   OH249637   0.906   2.090  10.575  0.1203  0.0136  0.2024
 8481TIP3    H149638   0.919   2.051  10.661 -0.0394  1.1191  0.7383
 8481TIP3    H249639   0.992   2.124  10.551  0.2975 -0.7814 -0.3367
 8482TIP3   OH249640   2.019   7.059   9.369  0.1569  0.0467 -0.0083
 8482TIP3    H149641   2.087   7.125   9.384  0.3951 -0.0830 -0.4789
 8482TIP3    H249642   1.967   7.094   9.297  0.0516 -0.1058 -0.0070
 8483TIP3   OH249643   0.587   2.194   9.201  0.5808 -0.2043  0.3375
 8483TIP3    H149644   0.492   2.197   9.203  0.5470 -0.6543 -0.2569
 8483TIP3    H249645   0.613   2.285   9.185  0.2014 -0.2791 -0.7778
 8484TIP3   OH249646   0.102   6.403  10.486  0.2854 -0.2593 -0.0994
 8484TIP3    H149647   0.029   6.416  10.426 -1.1307 -0.9308  1.4047
 8484TIP3    H249648   0.073   6.442  10.569  2.8227  2.1089 -0.1945
 8485TIP3   OH249649   6.548   0.177   9.790  1.1529  0.6108 -0.3888
 8485TIP3    H149650   6.574   0.266   9.814 -0.3803  0.7495  0.8736
 8485TIP3    H249651   6.538   0.131   9.874 -1.2907  0.2045 -0.8265
 8486TIP3   OH249652   2.944   4.177   8.674 -0.4559  0.4628 -0.4197
 8486TIP3    H149653   2.961   4.087   8.703 -0.7572  0.4823 -0.1735
 8486TIP3    H249654   3.022   4.202   8.625 -0.8075 -0.3054 -1.4056
 8487TIP3   OH249655   7.460   2.888   9.168 -0.1922  0.2559  0.1867
 8487TIP3    H149656   7.391   2.917   9.108 -0.2493  0.0567  0.1544
 8487TIP3    H249657   7.525   2.958   9.166  0.9996 -0.8087 -1.9989
 8488TIP3   OH249658   5.156   8.327   9.064 -0.1495  0.5263  0.1911
 8488TIP3    H149659   5.197   8.378   9.134  0.1878  0.2004  0.2342
 8488TIP3    H249660   5.172   8.379   8.984  0.8232  0.1549  0.1215
 8489TIP3   OH249661   4.202   3.534   9.515 -0.4806 -0.2327 -0.6865
 8489TIP3    H149662   4.247   3.533   9.430 -0.0321 -3.5096 -0.5375
 8489TIP3    H249663   4.111   3.510   9.493 -0.5113 -0.4601 -0.3147
 8490TIP3   OH249664   3.241   6.015  10.674  0.1585  0.4257  0.1579
 8490TIP3    H149665   3.275   5.935  10.714 -1.8151 -0.6245 -0.1512
 8490TIP3    H249666   3.168   6.041  10.730  0.8240  2.1070  0.3134
 8491TIP3   OH249667   3.851   7.483  10.784  0.1555  0.2396  0.7958
 8491TIP3    H149668   3.784   7.541  10.749  0.3250  0.7618  1.2999
 8491TIP3    H249669   3.816   7.453  10.868  0.6422  0.7267  1.1899
 8492TIP3   OH249670   3.041   6.935   8.703 -0.4453  0.2123 -0.5285
 8492TIP3    H149671   3.107   6.875   8.740 -1.2794 -0.3038  0.1502
 8492TIP3    H249672   2.965   6.880   8.686 -1.2525  1.0708  0.1611
 8493TIP3   OH249673   3.074   4.990   9.075 -0.0715  0.4461 -0.7724
 8493TIP3    H149674   3.104   4.921   9.015  2.0402  0.5017  0.1342
 8493TIP3    H249675   2.982   5.000   9.055  0.2430 -0.5282 -3.0327
 8494TIP3   OH249676   3.625   4.718  10.162  0.1875  0.2506 -0.0524
 8494TIP3    H149677   3.607   4.626  10.139 -1.4501  0.1713  1.3287
 8494TIP3    H249678   3.590   4.727  10.251 -1.0148  2.5746 -0.6886
 8495TIP3   OH249679   4.877   7.549   9.014 -0.2101 -0.0792  0.2557
 8495TIP3    H149680   4.949   7.491   9.040 -0.8358 -1.8202 -1.6206
 8495TIP3    H249681   4.919   7.615   8.959  0.1452 -0.2783  0.2813
 8496TIP3   OH249682   5.923   1.199   8.980  0.4344 -0.4274  0.1083
 8496TIP3    H149683   5.961   1.116   9.006 -0.3107 -0.5134  0.9752
 8496TIP3    H249684   5.951   1.211   8.889  2.0155 -0.7581  0.5262
 8497TIP3   OH249685   0.683   5.182   9.444 -0.0391  0.0773  0.7948
 8497TIP3    H149686   0.730   5.183   9.360 -1.1915 -3.7494 -0.1162
 8497TIP3    H249687   0.592   5.196   9.420 -0.1861  0.5530  1.6238
 8498TIP3   OH249688   2.216   3.208   8.865  0.2005 -0.0817 -0.1630
 8498TIP3    H149689   2.243   3.120   8.839 -0.1033 -0.5442  1.0187
 8498TIP3    H249690   2.297   3.251   8.892  0.1403 -0.6106  0.9350
 8499TIP3   OH249691   3.435   1.926  10.789 -0.3237  0.2219  0.2572
 8499TIP3    H149692   3.451   1.858  10.854 -1.4808 -0.1655  0.1560
 8499TIP3    H249693   3.510   1.921  10.729  0.1440 -0.2171  0.8760
 8500TIP3   OH249694   6.928   1.242   9.562 -0.5239 -0.1663  0.5921
 8500TIP3    H149695   6.922   1.152   9.595  2.1306 -1.4453 -1.9509
 8500TIP3    H249696   7.010   1.275   9.598 -1.6857  1.5475  1.8760
 8501TIP3   OH249697   1.837   6.699  10.006  0.5232 -0.1142  0.2883
 8501TIP3    H149698   1.872   6.743   9.928 -0.5097 -0.4769 -0.4048
 8501TIP3    H249699   1.880   6.742  10.080  1.3459  0.3990 -0.4770
 8502TIP3   OH249700   1.938   5.792   8.650 -0.6852 -0.1591  0.3989
 8502TIP3    H149701   1.913   5.875   8.609  0.2477  0.4154  0.9700
 8502TIP3    H249702   1.991   5.817   8.726  1.3544 -1.3251 -0.5807
 8503TIP3   OH249703   4.429   5.446  10.144 -0.4813  0.3081  0.0715
 8503TIP3    H149704   4.468   5.361  10.167  1.2757  0.7604 -1.0180
 8503TIP3    H249705   4.361   5.459  10.210 -0.5685 -1.7751  0.4861
 8504TIP3   OH249706   0.656   1.370   9.010  0.1415 -0.0003  0.1188
 8504TIP3    H149707   0.644   1.458   8.974 -0.3268  0.2869  0.9424
 8504TIP3    H249708   0.751   1.359   9.016  0.2337 -0.1525 -1.4058
 8505TIP3   OH249709   4.059   0.097  10.522  0.4038 -0.0563 -0.5275
 8505TIP3    H149710   4.077   0.028  10.585 -1.4243 -0.7593 -0.7321
 8505TIP3    H249711   4.134   0.156  10.530  0.1542  0.0106  2.4555
 8506TIP3   OH249712   8.020   1.500   9.194  0.6819  0.3903  0.2665
 8506TIP3    H149713   8.026   1.592   9.219  0.0449  1.2433 -2.4336
 8506TIP3    H249714   8.039   1.499   9.100 -1.5759 -1.9094 -0.2760
 8507TIP3   OH249715   8.395   5.561  10.134  0.6039  0.2931  0.2443
 8507TIP3    H149716   8.409   5.467  10.145  0.4089  0.2293 -0.0336
 8507TIP3    H249717   8.473   5.602  10.171  0.9978 -0.0073 -0.2477
 8508TIP3   OH249718   2.689   7.908   9.027  0.1038  0.1388 -0.1750
 8508TIP3    H149719   2.684   7.858   9.109  0.1232 -2.1173 -1.4644
 8508TIP3    H249720   2.756   7.974   9.044 -1.5466  1.3325  2.3734
 8509TIP3   OH249721   0.874   6.015   9.433 -0.2452  0.8049 -0.0270
 8509TIP3    H149722   0.902   5.926   9.456  0.8246  1.1529  0.0602
 8509TIP3    H249723   0.780   6.007   9.417 -0.1836 -0.3206  0.0938
 8510TIP3   OH249724   0.472   4.750  11.217 -0.6455  0.2714  0.5497
 8510TIP3    H149725   0.406   4.737  11.285  0.3355 -0.0918  1.4579
 8510TIP3    H249726   0.511   4.664  11.205 -0.6725  0.3784 -0.3486
 8511TIP3   OH249727   4.395   4.003  10.304 -0.0868 -0.3591  0.1434
 8511TIP3    H149728   4.309   4.011  10.344  0.2829  0.5490  0.8050
 8511TIP3    H249729   4.456   4.024  10.374  0.6245  0.0897 -0.5862
 8512TIP3   OH249730   7.495   2.446   8.958  0.2569 -0.1990  0.4387
 8512TIP3    H149731   7.429   2.513   8.973 -0.4473 -0.6358 -0.5371
 8512TIP3    H249732   7.450   2.364   8.979  0.5965 -0.4728  0.1150
 8513TIP3   OH249733   0.310   3.735   9.711 -0.0547 -0.2558 -0.2504
 8513TIP3    H149734   0.264   3.811   9.746  0.5615  0.5074 -1.0710
 8513TIP3    H249735   0.291   3.736   9.617  0.7795 -0.5343 -0.4262
 8514TIP3   OH249736   3.091   6.606   9.649  0.5895  0.4624  0.2867
 8514TIP3    H149737   3.012   6.582   9.697  0.7132 -0.3127  0.1134
 8514TIP3    H249738   3.078   6.698   9.626  0.8351  1.0671  2.3967
 8515TIP3   OH249739   5.782   2.748   9.775  0.5142 -0.4932  0.1392
 8515TIP3    H149740   5.790   2.746   9.680 -0.3797  0.2674  0.0347
 8515TIP3    H249741   5.861   2.704   9.807  1.8682  1.0531 -0.9079
 8516TIP3   OH249742   6.760   3.621  10.400  0.0976  0.6028  0.3526
 8516TIP3    H149743   6.740   3.546  10.457  0.5553  0.4818  0.3595
 8516TIP3    H249744   6.675   3.649  10.367 -0.0029 -0.5018 -0.3823
 8517TIP3   OH249745   3.404   1.976   9.398 -0.1013 -0.0448 -0.1160
 8517TIP3    H149746   3.353   1.938   9.326  2.1472 -0.2569 -1.6993
 8517TIP3    H249747   3.361   2.059   9.416  0.4292  0.9988 -3.1692
 8518TIP3   OH249748   4.085   1.097   9.159  0.4120 -0.3743  0.0806
 8518TIP3    H149749   4.126   1.181   9.138 -1.9150  1.0896  1.0504
 8518TIP3    H249750   4.095   1.044   9.080 -1.3230  2.1775 -1.9848
 8519TIP3   OH249751   6.740   2.807   9.275  0.2468  0.2375 -0.3008
 8519TIP3    H149752   6.824   2.852   9.285 -0.7531  2.3243 -0.7093
 8519TIP3    H249753   6.752   2.751   9.198  1.3435  0.2559 -0.1604
 8520TIP3   OH249754   0.833   2.626   8.741  0.1275 -0.0504 -0.1997
 8520TIP3    H149755   0.826   2.538   8.780 -0.9445  0.5425  1.0378
 8520TIP3    H249756   0.798   2.616   8.653  1.3633 -1.1585 -0.6036
 8521TIP3   OH249757   0.911   6.974  10.820  0.2620  0.1024 -0.3462
 8521TIP3    H149758   0.848   6.970  10.748 -0.9121  2.2123  0.4602
 8521TIP3    H249759   0.924   7.068  10.834  0.1929 -0.2226  2.3764
 8522TIP3   OH249760   6.808   5.222   9.493  0.3230 -0.1572  0.4691
 8522TIP3    H149761   6.716   5.201   9.483 -0.0008  1.6533 -0.6621
 8522TIP3    H249762   6.852   5.171   9.425 -0.1335  0.7436 -0.5181
 8523TIP3   OH249763   7.034   3.443   9.604 -0.6679  0.0288  0.3383
 8523TIP3    H149764   7.115   3.488   9.582 -1.6822  1.0875 -1.4904
 8523TIP3    H249765   7.063   3.360   9.643  1.2984  0.1243 -0.7553
 8524TIP3   OH249766   4.461   8.258   9.248 -0.2635 -0.9603  0.2801
 8524TIP3    H149767   4.414   8.254   9.165 -0.1126 -0.0140  0.1416
 8524TIP3    H249768   4.540   8.207   9.234  0.1346 -0.1746 -0.4131
 8525TIP3   OH249769   4.946   3.222   8.959  0.6129 -0.3092  0.0454
 8525TIP3    H149770   4.999   3.157   9.006  0.3746  0.6851  1.7530
 8525TIP3    H249771   5.010   3.286   8.928  0.5764  0.0444  0.6982
 8526TIP3   OH249772   7.117   1.944   9.321 -0.2283  0.4324  0.0879
 8526TIP3    H149773   7.049   2.005   9.349  0.6890  1.6327 -0.2212
 8526TIP3    H249774   7.070   1.865   9.297 -1.4065  0.8417  0.9733
 8527TIP3   OH249775   2.735   0.177   9.311  0.1021  0.0065  0.3929
 8527TIP3    H149776   2.822   0.215   9.299  0.9045 -1.9698 -0.3696
 8527TIP3    H249777   2.676   0.252   9.309  1.7214  1.3297  0.2628
 8528TIP3   OH249778   7.663   6.910   9.812  0.0448  0.4042  0.2171
 8528TIP3    H149779   7.641   6.955   9.731  0.1009 -1.4201 -0.8530
 8528TIP3    H249780   7.607   6.950   9.879 -2.7804 -0.5855 -1.4190
 8529TIP3   OH249781   6.337   7.233  10.467  0.1042 -0.0888  0.3080
 8529TIP3    H149782   6.363   7.320  10.495 -1.1063  1.1377 -2.1072
 8529TIP3    H249783   6.412   7.199  10.419 -0.2564  0.6303 -0.7893
 8530TIP3   OH249784   0.994   1.551  10.397  0.2126 -0.2721  0.1895
 8530TIP3    H149785   0.925   1.544  10.463  0.3351 -3.2974  0.1500
 8530TIP3    H249786   1.076   1.549  10.447  0.2847 -0.7282  0.0614
 8531TIP3   OH249787   6.121   6.348  10.823  0.0766  0.4421  0.4856
 8531TIP3    H149788   6.059   6.288  10.782  0.5458  0.0098  0.3963
 8531TIP3    H249789   6.076   6.433  10.824  0.0441  0.4665 -0.9374
 8532TIP3   OH249790   0.704   2.743  11.201 -0.3985  0.3069  0.1452
 8532TIP3    H149791   0.777   2.804  11.214 -0.0855  0.0092 -0.2073
 8532TIP3    H249792   0.707   2.721  11.108 -1.4539  0.9434 -0.0662
 8533TIP3   OH249793   3.920   0.914   9.508  0.1696  0.6994  0.4067
 8533TIP3    H149794   3.922   0.832   9.558 -0.9856  0.6438  0.4090
 8533TIP3    H249795   3.916   0.982   9.576  0.4585  0.7246  0.3992
 8534TIP3   OH249796   4.489   4.270  10.166  0.3609 -0.3504  0.5228
 8534TIP3    H149797   4.444   4.274  10.082  1.9361 -1.0271 -0.3941
 8534TIP3    H249798   4.460   4.186  10.204 -1.1328  0.4088  1.1739
 8535TIP3   OH249799   4.486   3.445   9.523 -0.5285 -0.1374  0.6159
 8535TIP3    H149800   4.406   3.394   9.509 -1.4223  1.4446 -0.4638
 8535TIP3    H249801   4.456   3.536   9.523  1.4533  0.6193 -1.5026
 8536TIP3   OH249802   0.302   0.208   8.647  0.7195 -0.2152 -0.2361
 8536TIP3    H149803   0.335   0.184   8.560  0.1372 -1.5307 -0.1316
 8536TIP3    H249804   0.208   0.220   8.633  0.7077  0.0823  0.1103
 8537TIP3   OH249805   3.171   6.422   9.207  0.3616 -0.4755 -0.0647
 8537TIP3    H149806   3.091   6.473   9.218  0.9905  0.5406 -0.1252
 8537TIP3    H249807   3.210   6.418   9.295 -0.7528 -2.7076  0.3994
 8538TIP3   OH249808   4.290   0.853  10.320 -0.2620 -0.3268 -0.1098
 8538TIP3    H149809   4.270   0.945  10.305  0.6556  0.0643  0.8960
 8538TIP3    H249810   4.386   0.850  10.327 -0.3830 -0.9843  1.9703
 8539TIP3   OH249811   0.532   0.865   9.730 -0.2355  0.1830  0.3110
 8539TIP3    H149812   0.533   0.838   9.638  0.0221  0.7391  0.1444
 8539TIP3    H249813   0.440   0.872   9.752 -0.3030  0.6414 -0.0903
 8540TIP3   OH249814   3.533   7.126   9.972 -0.3506  0.0273 -0.1667
 8540TIP3    H149815   3.483   7.205   9.993 -0.1672  0.9930 -2.9842
 8540TIP3    H249816   3.620   7.143  10.008 -0.7367  0.4224  0.6066
 8541TIP3   OH249817   1.374   3.329   9.759  0.3831 -0.2255  0.0418
 8541TIP3    H149818   1.321   3.375   9.694  0.2272 -1.7188 -0.9365
 8541TIP3    H249819   1.332   3.349   9.843 -0.1006  0.7972 -0.4308
 8542TIP3   OH249820   4.547   0.874   9.455 -0.7074  0.6150  0.2523
 8542TIP3    H149821   4.548   0.779   9.468 -2.0514  0.5070 -0.2718
 8542TIP3    H249822   4.632   0.893   9.416  0.4383 -0.0545  2.2403
 8543TIP3   OH249823   3.022   7.981   9.187  0.3948 -0.3282  0.2306
 8543TIP3    H149824   2.998   8.041   9.117  1.8391 -0.6226 -0.5635
 8543TIP3    H249825   3.054   8.037   9.258 -1.0429 -0.0333  0.6756
 8544TIP3   OH249826   8.138   6.075   9.192  0.2170 -0.0206  0.2558
 8544TIP3    H149827   8.151   6.040   9.104  0.9396 -0.3737  0.4988
 8544TIP3    H249828   8.152   6.170   9.182  0.3799 -0.0701  0.0078
 8545TIP3   OH249829   0.966   5.981  10.721 -0.0722  1.4371 -0.0279
 8545TIP3    H149830   1.037   6.037  10.750  1.0034  0.4958 -0.7848
 8545TIP3    H249831   0.909   5.973  10.797  0.7758  1.9684  0.6758
 8546TIP3   OH249832   7.419   3.721  10.469 -0.2408  0.2947 -0.5717
 8546TIP3    H149833   7.430   3.631  10.500  3.0211  0.8164  0.1416
 8546TIP3    H249834   7.451   3.720  10.379  2.1694  1.0928  0.1916
 8547TIP3   OH249835   1.326   1.848   8.631 -0.6274 -0.3630  0.0821
 8547TIP3    H149836   1.354   1.939   8.629 -1.2190 -0.1535 -2.4848
 8547TIP3    H249837   1.234   1.852   8.657 -0.6207 -0.2222  0.0858
 8548TIP3   OH249838   7.871   6.967  10.059 -0.0382  0.5058  0.6745
 8548TIP3    H149839   7.839   6.896  10.002  0.8848 -0.6070  1.4931
 8548TIP3    H249840   7.792   7.009  10.092 -0.5991  0.2498 -0.3055
 8549TIP3   OH249841   6.744   5.514  10.790  0.4114  0.4019  0.3829
 8549TIP3    H149842   6.764   5.490  10.699 -0.8730 -0.3187  0.2591
 8549TIP3    H249843   6.747   5.609  10.791 -0.5567  0.4732 -0.6873
 8550TIP3   OH249844   5.871   3.405  15.258  0.0839 -0.5097 -0.0055
 8550TIP3    H149845   5.939   3.406  15.325  1.0007 -0.0224 -0.9157
 8550TIP3    H249846   5.909   3.453  15.184 -1.2260 -0.2674 -0.5603
 8551TIP3   OH249847   6.989   1.534   8.902 -0.0614  0.0536 -0.8201
 8551TIP3    H149848   6.950   1.524   8.815 -0.3783  0.6809 -0.7565
 8551TIP3    H249849   6.985   1.446   8.940 -0.5828 -0.0781 -1.1614
 8552TIP3   OH249850   6.088   3.594   8.812 -0.0077  0.3282 -0.3885
 8552TIP3    H149851   6.039   3.514   8.792 -0.6550  1.1805 -2.5562
 8552TIP3    H249852   6.021   3.658   8.832  0.5346  0.2467  1.9775
 8553TIP3   OH249853   4.025   2.609  10.932  0.1844 -0.0286  0.7623
 8553TIP3    H149854   3.952   2.561  10.971 -0.5254 -0.8316 -1.4267
 8553TIP3    H249855   4.090   2.542  10.913  1.7678  0.7188  3.0347
 8554TIP3   OH249856   1.278   6.445  10.173  0.7503 -0.1573  0.0006
 8554TIP3    H149857   1.334   6.458  10.096 -1.5598  0.9340 -1.6290
 8554TIP3    H249858   1.219   6.375  10.147  0.7914 -0.7138  1.3562
 8555TIP3   OH249859   7.502   7.344   9.339 -0.3394 -0.4564 -0.5773
 8555TIP3    H149860   7.465   7.400   9.270 -0.0280  2.1235  1.1944
 8555TIP3    H249861   7.597   7.354   9.329 -0.2586 -1.2554 -0.6529
 8556TIP3   OH249862   2.995   6.305  10.571  0.1723 -0.3577  0.4609
 8556TIP3    H149863   2.952   6.369  10.628 -0.5957  0.2948 -0.8013
 8556TIP3    H249864   2.965   6.220  10.602  0.3662 -0.0657  1.4873
 8557TIP3   OH249865   3.782   0.117  10.413 -0.5798 -0.3402 -0.6814
 8557TIP3    H149866   3.857   0.071  10.451 -1.5624 -0.0526  1.7945
 8557TIP3    H249867   3.744   0.055  10.352 -0.1337 -1.6938  0.3606
 8558TIP3   OH249868   5.221   0.295   9.905  0.4614 -0.0007 -0.1437
 8558TIP3    H149869   5.238   0.245   9.985  0.2839 -1.0051 -0.7157
 8558TIP3    H249870   5.301   0.284   9.853  0.9800  1.4757  0.2899
 8559TIP3   OH249871   1.398   1.562   8.582 -0.2683 -0.8295  0.0166
 8559TIP3    H149872   1.332   1.585   8.517  0.6063 -0.3973 -0.7242
 8559TIP3    H249873   1.358   1.489   8.631 -1.0409 -0.9781 -0.8062
 8560TIP3   OH249874   2.082   7.773  10.336 -0.1942 -0.0951  0.0804
 8560TIP3    H149875   2.133   7.843  10.295 -0.6147 -0.0492 -0.3665
 8560TIP3    H249876   2.117   7.768  10.426 -0.5784  1.0921  0.3103
 8561TIP3   OH249877   2.317   2.960   8.752 -0.0374 -0.6355  0.3946
 8561TIP3    H149878   2.377   2.945   8.825  1.8469 -0.9984 -1.1294
 8561TIP3    H249879   2.329   2.883   8.696 -0.0345  0.4375 -1.1639
 8562TIP3   OH249880   8.134   6.858  14.174  0.3608  0.3640  0.2406
 8562TIP3    H149881   8.072   6.785  14.168  0.5697  0.1974  0.0969
 8562TIP3    H249882   8.210   6.821  14.220  1.3275 -0.1013 -1.6194
 8563TIP3   OH249883   2.747   8.304  10.968 -0.0197  0.1832  1.1568
 8563TIP3    H149884   2.732   8.346  11.052 -0.3706  0.7336  0.8241
 8563TIP3    H249885   2.730   8.372  10.903 -1.6417 -0.7355  0.5530
 8564TIP3   OH249886   5.582   5.018  10.175 -0.1130 -0.2969 -0.3285
 8564TIP3    H149887   5.558   4.988  10.262  1.1011 -0.5741 -0.0794
 8564TIP3    H249888   5.603   5.111  10.187 -1.8220  0.1808 -0.7126
 8565TIP3   OH249889   7.977   5.170  10.820 -0.0436  0.2319 -0.0695
 8565TIP3    H149890   7.904   5.227  10.844  0.4488  0.7411  0.2237
 8565TIP3    H249891   8.041   5.228  10.780  0.0476 -0.2749 -0.6762
 8566TIP3   OH249892   5.377   1.889   8.778  0.1537  0.6932 -0.3087
 8566TIP3    H149893   5.351   1.804   8.814 -0.5249  0.9992 -0.0744
 8566TIP3    H249894   5.295   1.936   8.765  0.5429  1.3908 -0.2650
 8567TIP3   OH249895   2.432   3.610  10.583 -0.0072 -0.2109  0.4157
 8567TIP3    H149896   2.475   3.656  10.510  0.3082 -1.4098 -0.1852
 8567TIP3    H249897   2.459   3.519  10.572 -0.1637 -0.4543  1.9015
 8568TIP3   OH249898   3.139   3.259   8.657  0.1854 -0.0242 -0.0214
 8568TIP3    H149899   3.081   3.305   8.717 -3.2388 -3.5614 -0.2578
 8568TIP3    H249900   3.096   3.266   8.572  2.3355  0.6533 -1.1234
 8569TIP3   OH249901   0.617   4.236  11.018  0.0432 -0.0834  0.1407
 8569TIP3    H149902   0.606   4.227  10.923 -1.0032  1.1542  0.1210
 8569TIP3    H249903   0.711   4.233  11.031  0.3257  1.6627 -1.1740
 8570TIP3   OH249904   8.156   6.908  10.499  0.1768  0.1451  0.6373
 8570TIP3    H149905   8.134   7.000  10.512 -0.8629 -0.1070  0.7345
 8570TIP3    H249906   8.244   6.898  10.537 -0.1434  0.8520  1.5892
 8571TIP3   OH249907   8.100   6.841  10.237  0.3904 -0.0947  0.0288
 8571TIP3    H149908   8.079   6.934  10.222 -0.1559 -0.1134  0.6417
 8571TIP3    H249909   8.130   6.838  10.327  1.2455 -0.3848 -0.2580
 8572TIP3   OH249910   3.304   4.603  10.239 -0.2502  0.0702  0.3938
 8572TIP3    H149911   3.351   4.559  10.168 -1.5193 -0.5115 -0.1107
 8572TIP3    H249912   3.290   4.534  10.305  1.6780  0.7978  1.6502
 8573TIP3   OH249913   4.390   6.569   8.952  0.0086 -0.0342  0.2894
 8573TIP3    H149914   4.363   6.597   8.865 -0.3079  1.9675  0.9664
 8573TIP3    H249915   4.326   6.610   9.011  0.8781 -0.3827  1.5213
 8574TIP3   OH249916   3.541   1.871   9.174  0.2393  0.1706  0.2580
 8574TIP3    H149917   3.579   1.842   9.257  1.9232 -0.8633 -0.8258
 8574TIP3    H249918   3.465   1.814   9.161  0.7894 -0.6099  0.4146
 8575TIP3   OH249919   5.243   4.720  10.373 -0.6348 -0.0585 -0.3593
 8575TIP3    H149920   5.303   4.688  10.439 -0.2081 -0.8707 -1.1245
 8575TIP3    H249921   5.184   4.779  10.421  0.5829  0.5494  0.4536
 8576TIP3   OH249922   6.604   7.869  10.228 -0.0604  0.2918  0.6133
 8576TIP3    H149923   6.669   7.877  10.158 -0.9838  1.1340 -0.1748
 8576TIP3    H249924   6.545   7.800  10.199 -1.0564  1.3538  0.0259
 8577TIP3   OH249925   5.561   3.920   9.241 -0.0290  0.5561  0.0415
 8577TIP3    H149926   5.528   3.831   9.246 -2.6040  1.4763  2.9277
 8577TIP3    H249927   5.643   3.919   9.292  0.1316 -0.1882 -0.2277
 8578TIP3   OH249928   0.188   3.142  10.258 -0.3754  0.1202 -0.1806
 8578TIP3    H149929   0.215   3.230  10.232  2.3020 -1.1543 -2.2327
 8578TIP3    H249930   0.251   3.117  10.326  0.7084 -1.1569 -1.5876
 8579TIP3   OH249931   1.173   8.247   9.466 -0.0095 -0.0034  0.2348
 8579TIP3    H149932   1.102   8.274   9.408 -0.3035 -0.6181  0.3045
 8579TIP3    H249933   1.251   8.291   9.431 -0.6775  1.9901  1.0968
 8580TIP3   OH249934   1.573   7.584   9.288 -0.8336 -0.4483  0.4555
 8580TIP3    H149935   1.520   7.594   9.209  1.2171 -0.5232 -0.9960
 8580TIP3    H249936   1.571   7.670   9.330  0.7708  0.6086 -1.5083
 8581TIP3   OH249937   8.273   5.538   9.889  0.4821 -0.2290 -0.3796
 8581TIP3    H149938   8.181   5.564   9.894  0.7080  0.4077  2.1484
 8581TIP3    H249939   8.303   5.540   9.980  2.5753 -2.0571 -0.9357
 8582TIP3   OH249940   0.323   4.294   9.360 -0.3267  0.0854  0.1376
 8582TIP3    H149941   0.394   4.275   9.300  0.3782 -1.5847  1.3903
 8582TIP3    H249942   0.364   4.342   9.432 -0.8962  0.9378 -0.0972
 8583TIP3   OH249943   1.344   4.548   9.182 -0.7812  0.0340  0.2837
 8583TIP3    H149944   1.319   4.457   9.165 -0.2253  0.0781 -0.9138
 8583TIP3    H249945   1.262   4.597   9.176 -0.8859 -0.2155 -0.5439
 8584TIP3   OH249946   7.815   4.345   9.656 -0.6711 -0.4496  0.0707
 8584TIP3    H149947   7.893   4.356   9.710 -0.1177  0.1650 -0.8168
 8584TIP3    H249948   7.779   4.433   9.649 -1.2381 -0.6742  0.1720
 8585TIP3   OH249949   3.957   2.041   9.179  0.1681  0.0566 -0.1573
 8585TIP3    H149950   3.972   2.118   9.123  0.0698 -0.1208 -0.4326
 8585TIP3    H249951   3.897   1.986   9.128  1.4953 -0.9626 -0.6624
 8586TIP3   OH249952   1.750   8.241   9.046  0.3479  0.1223 -0.2026
 8586TIP3    H149953   1.785   8.277   8.965  1.1938 -0.4368 -0.1005
 8586TIP3    H249954   1.795   8.157   9.057  0.7862  0.4992  1.1955
 8587TIP3   OH249955   1.088   1.306   9.710 -0.0947  0.1657 -0.4950
 8587TIP3    H149956   1.083   1.357   9.791 -2.1559  0.9778 -1.0428
 8587TIP3    H249957   1.145   1.233   9.730  0.3476  0.9628  1.3387
 8588TIP3   OH249958   3.721   7.736   8.703 -0.2104  0.1938  0.0018
 8588TIP3    H149959   3.640   7.687   8.689  1.4968 -2.7758 -0.2331
 8588TIP3    H249960   3.695   7.807   8.761 -2.6473 -1.7730  1.5479
 8589TIP3   OH249961   2.086   8.284   9.939 -0.4633  0.4834 -0.7834
 8589TIP3    H149962   2.149   8.212   9.948 -0.8480  0.1806 -0.4892
 8589TIP3    H249963   2.021   8.268  10.008 -0.9222  0.7331 -1.1544
 8590TIP3   OH249964   2.219   5.574   9.408  0.3869 -0.3400 -0.3048
 8590TIP3    H149965   2.200   5.606   9.496 -0.7485 -1.9474  0.0732
 8590TIP3    H249966   2.164   5.627   9.351 -0.3508 -0.5917  0.1589
 8591TIP3   OH249967   7.907   1.579   8.853  0.3644 -0.4078 -0.1362
 8591TIP3    H149968   7.948   1.657   8.891 -0.1743  0.1921 -0.7437
 8591TIP3    H249969   7.819   1.578   8.891  0.0535 -0.1846 -0.8384
 8592TIP3   OH249970   1.640   0.720   9.427 -0.0032  0.6881  0.7545
 8592TIP3    H149971   1.697   0.795   9.444  1.2860  0.2297 -1.1578
 8592TIP3    H249972   1.631   0.718   9.332  0.2035 -1.6932  0.7266
 8593TIP3   OH249973   1.999   3.304   9.912 -0.4265 -0.2770 -0.3160
 8593TIP3    H149974   2.083   3.320   9.955 -1.2026 -0.7065  1.4466
 8593TIP3    H249975   1.978   3.387   9.869 -0.4148  0.7637  1.6038
 8594TIP3   OH249976   8.172   4.788  11.137  0.1300 -0.4077 -0.4639
 8594TIP3    H149977   8.229   4.863  11.122 -0.7889  0.3734 -0.1204
 8594TIP3    H249978   8.101   4.799  11.074 -0.9795  0.0285  0.8281
 8595TIP3   OH249979   8.099   2.686  10.778  0.4869  0.1811 -0.8472
 8595TIP3    H149980   8.026   2.626  10.763  1.6006 -1.5467  0.2463
 8595TIP3    H249981   8.058   2.772  10.787 -1.5048 -0.8107  0.4496
 8596TIP3   OH249982   2.942   1.830  10.115 -0.4780  0.1784  0.3590
 8596TIP3    H149983   2.943   1.925  10.114  0.6542  0.1748  0.5195
 8596TIP3    H249984   3.034   1.804  10.113 -0.7618 -0.9115  0.5663
 8597TIP3   OH249985   6.904   6.108   9.844  0.9230 -0.1816 -0.3835
 8597TIP3    H149986   6.999   6.112   9.835  1.1007  0.6168  1.3236
 8597TIP3    H249987   6.874   6.197   9.826  0.7335  0.0542  0.9834
 8598TIP3   OH249988   4.146   5.461  10.243  0.3612  0.3672  0.1887
 8598TIP3    H149989   4.055   5.467  10.271  0.8072 -0.3410  1.9215
 8598TIP3    H249990   4.189   5.412  10.313  1.9251  0.0359 -0.9565
 8599TIP3   OH249991   5.921   4.871   9.677 -0.1544  0.2396  0.2804
 8599TIP3    H149992   5.926   4.858   9.772  0.8957  1.1256  0.3664
 8599TIP3    H249993   5.954   4.960   9.663 -3.0295  1.2775 -0.6695
 8600TIP3   OH249994   4.392   8.182   8.984  0.1163 -0.0218 -0.1207
 8600TIP3    H149995   4.302   8.174   8.953  0.9546 -1.3971 -2.5195
 8600TIP3    H249996   4.424   8.263   8.943 -0.0182  0.5093  0.7922
 8601TIP3   OH249997   7.607   7.931   9.614 -0.2646 -0.5736 -0.1665
 8601TIP3    H149998   7.651   7.925   9.698  0.9226 -0.3763 -0.7522
 8601TIP3    H249999   7.555   8.012   9.619  0.6389  0.0016 -0.0044
 8602TIP3   OH250000   8.025   3.300   9.911  0.1455 -0.0631  0.4076
 8602TIP3    H150001   8.013   3.210   9.882  0.8992 -0.9402  2.6119
 8602TIP3    H250002   7.968   3.309   9.988  0.1066  1.3490  0.2562
 8603TIP3   OH250003   0.942   2.306   9.356 -0.1566 -0.4419  0.3256
 8603TIP3    H150004   0.900   2.391   9.346  0.6766 -0.1857 -1.3768
 8603TIP3    H250005   0.949   2.294   9.450  2.8067  3.0244  0.7734
 8604TIP3   OH250006   2.401   7.790  10.040  0.7989 -0.8926  0.5641
 8604TIP3    H150007   2.339   7.720  10.022  3.1730 -3.3484  1.1760
 8604TIP3    H250008   2.458   7.792   9.963  0.5780  0.6715  0.4075
 8605TIP3   OH250009   4.928   5.692   9.768 -0.2080  0.3283 -0.2496
 8605TIP3    H150010   4.967   5.614   9.808 -1.1890  0.1205  0.3317
 8605TIP3    H250011   4.840   5.665   9.743 -1.0652  1.6082  1.1943
 8606TIP3   OH250012   6.329   1.008   9.655  0.0724  0.1535  0.1090
 8606TIP3    H150013   6.259   1.067   9.630 -0.1491 -0.1180  0.0864
 8606TIP3    H250014   6.410   1.058   9.639 -0.1224  0.5379  0.3358
 8607TIP3   OH250015   7.536   0.309   9.905  0.2604  0.2996  0.2153
 8607TIP3    H150016   7.571   0.269   9.984 -0.5644  1.5528  1.2435
 8607TIP3    H250017   7.448   0.338   9.929  0.2108  1.2376 -0.9910
 8608TIP3   OH250018   3.308   6.200  10.256  0.4586  0.0652  0.0536
 8608TIP3    H150019   3.275   6.199  10.167  1.4632 -1.5274 -0.3387
 8608TIP3    H250020   3.372   6.272  10.257 -0.2884  0.7537 -0.1931
 8609TIP3   OH250021   3.712   7.777   9.837  0.1069  0.3800  0.3174
 8609TIP3    H150022   3.700   7.792   9.743  1.0546  0.8467  0.2616
 8609TIP3    H250023   3.707   7.682   9.846 -1.0828  0.3982 -0.0387
 8610TIP3   OH250024   6.714   6.120  10.281  0.1732  0.7660  0.2010
 8610TIP3    H150025   6.649   6.133  10.351  0.8924  1.1848  0.8025
 8610TIP3    H250026   6.694   6.033  10.246  1.0178 -0.3057  2.2366
 8611TIP3   OH250027   5.243   4.935  10.548  0.2478  0.1717 -0.2580
 8611TIP3    H150028   5.224   4.898  10.635  0.3238 -0.9643 -0.7012
 8611TIP3    H250029   5.198   5.019  10.547 -0.4267 -0.1647  0.5850
 8612TIP3   OH250030   0.531   1.143  10.932  0.4812 -0.1226  0.0690
 8612TIP3    H150031   0.449   1.165  10.888  0.4123  1.5009  0.9494
 8612TIP3    H250032   0.512   1.064  10.982 -0.6010  0.3474  0.4161
 8613TIP3   OH250033   6.848   5.657   9.695  0.2287  0.4358  0.4022
 8613TIP3    H150034   6.840   5.751   9.681  2.3968  0.3087 -2.6508
 8613TIP3    H250035   6.916   5.649   9.762  1.1183  1.0623 -0.4020
 8614TIP3   OH250036   3.046   5.538   8.896  0.3371 -0.2869  0.5135
 8614TIP3    H150037   3.141   5.528   8.889  0.0597 -1.8254 -1.7708
 8614TIP3    H250038   3.014   5.450   8.913 -0.8772 -0.4320 -2.1072
 8615TIP3   OH250039   1.723   0.562   9.631 -0.6760  0.1215 -0.3479
 8615TIP3    H150040   1.711   0.614   9.551  0.7654  0.4475 -0.3967
 8615TIP3    H250041   1.795   0.503   9.609 -1.3215 -0.8794  0.2078
 8616TIP3   OH250042   0.972   4.083  10.004 -0.4221  0.0154  0.1971
 8616TIP3    H150043   1.024   4.002  10.001 -0.3472 -0.0041  1.5643
 8616TIP3    H250044   0.906   4.071   9.936  0.7763 -0.3545 -0.9414
 8617TIP3   OH250045   3.319   7.151   9.595  0.2702 -0.1009 -0.2952
 8617TIP3    H150046   3.336   7.180   9.506  0.3712 -4.2650 -1.8536
 8617TIP3    H250047   3.236   7.193   9.619  1.1404  2.5375 -1.5178
 8618TIP3   OH250048   3.148   3.648   8.733 -0.5025 -0.4740 -0.0324
 8618TIP3    H150049   3.217   3.623   8.672  0.7790  1.5553  0.4936
 8618TIP3    H250050   3.183   3.623   8.819 -0.4417  0.4518  0.2232
 8619TIP3   OH250051   0.702   4.350  10.118  0.3167  0.3575  0.5922
 8619TIP3    H150052   0.610   4.359  10.142  0.1720 -1.7609  1.0261
 8619TIP3    H250053   0.716   4.255  10.112  2.4324  0.6367  0.3800
 8620TIP3   OH250054   8.251   6.002  10.396  0.5269  0.0187  0.1811
 8620TIP3    H150055   8.324   5.983  10.338  1.0495 -0.6824  1.0550
 8620TIP3    H250056   8.178   6.022  10.337  1.1848 -0.1456 -0.7025
 8621TIP3   OH250057   3.456   0.212   9.525 -0.0258 -0.0112 -0.2479
 8621TIP3    H150058   3.496   0.128   9.543 -0.0138 -0.0920 -0.6464
 8621TIP3    H250059   3.429   0.207   9.433  1.8480  1.1696 -0.9185
 8622TIP3   OH250060   2.686   4.006   9.767  0.3517 -0.7216  0.0449
 8622TIP3    H150061   2.600   4.035   9.736 -0.0375 -2.6984 -0.8523
 8622TIP3    H250062   2.671   3.977   9.857  0.1193 -0.8543 -0.0360
 8623TIP3   OH250063   8.116   8.135  10.808  0.2414  0.1540  0.2579
 8623TIP3    H150064   8.139   8.075  10.737  2.3361  1.1112  0.0349
 8623TIP3    H250065   8.020   8.135  10.810  0.1021 -0.1794 -2.3432
 8624TIP3   OH250066   1.577   7.997   9.358  0.3964  0.7099  0.6146
 8624TIP3    H150067   1.517   8.015   9.286 -0.5509  0.6813  1.3679
 8624TIP3    H250068   1.650   8.058   9.346  0.8706 -0.1174 -1.0399
 8625TIP3   OH250069   3.671   8.020   8.736  0.4545 -0.7746  0.0594
 8625TIP3    H150070   3.601   8.057   8.790  2.0707 -0.2685  1.9557
 8625TIP3    H250071   3.628   7.993   8.655 -1.6610  0.8052  0.5657
 8626TIP3   OH250072   7.933   4.247   9.417  0.0025 -0.0472  0.2086
 8626TIP3    H150073   8.024   4.259   9.441 -0.6003  1.0297  2.1920
 8626TIP3    H250074   7.885   4.255   9.499 -1.7255 -3.0834 -0.3652
 8627TIP3   OH250075   5.281   0.179   9.478 -0.2251  0.2277 -0.4607
 8627TIP3    H150076   5.341   0.211   9.545  1.1865 -1.0106 -1.0617
 8627TIP3    H250077   5.196   0.213   9.504 -0.1369 -1.7731  3.0842
 8628TIP3   OH250078   2.454   1.062   9.144 -0.0379 -0.0369  0.0877
 8628TIP3    H150079   2.447   1.140   9.089  1.2173 -1.8973 -2.9025
 8628TIP3    H250080   2.546   1.036   9.137 -0.2679 -1.3951  1.6356
 8629TIP3   OH250081   3.578   8.220   9.820 -0.4608  0.1213  0.1153
 8629TIP3    H150082   3.668   8.189   9.810  0.0683  1.1970  1.2443
 8629TIP3    H250083   3.525   8.150   9.784  0.7347 -1.4949  1.3286
 8630TIP3   OH250084   0.053   4.349   9.370  0.5047  0.4230 -0.1505
 8630TIP3    H150085   0.045   4.425   9.312  2.7437  0.9554  0.1537
 8630TIP3    H250086   0.146   4.345   9.391  0.1950 -1.5423  1.0401
 8631TIP3   OH250087   4.934   4.053   9.840  0.0141  0.4922 -1.2067
 8631TIP3    H150088   4.888   4.092   9.766 -1.9505 -1.9094 -1.4091
 8631TIP3    H250089   4.931   3.959   9.822  1.8772  0.0117  0.6417
 8632TIP3   OH250090   3.637   3.643   9.099 -0.2733  0.6768 -0.0871
 8632TIP3    H150091   3.666   3.552   9.106 -2.6370 -0.5452 -3.5897
 8632TIP3    H250092   3.546   3.642   9.129  0.1823  2.3949  1.5862
 8633TIP3   OH250093   3.548   1.560   9.764 -0.0769 -0.0809 -0.2295
 8633TIP3    H150094   3.500   1.627   9.715  0.0096  0.8286  0.8678
 8633TIP3    H250095   3.624   1.540   9.711  1.0912  2.3498  0.3879
 8634TIP3   OH250096   3.669   6.443  10.021 -0.1308  0.2344 -0.4071
 8634TIP3    H150097   3.657   6.523   9.971  1.8930  0.4247 -0.6701
 8634TIP3    H250098   3.585   6.429  10.065 -0.8064  1.9826 -1.0629
 8635TIP3   OH250099   8.062   8.344   9.987 -0.0545  0.1496 -0.5448
 8635TIP3    H150100   7.991   8.392  10.029 -1.0592 -1.7639  0.0749
 8635TIP3    H250101   8.018   8.277   9.935  1.2486 -1.9696  0.9311
 8636TIP3   OH250102   2.759   7.540   9.765 -0.0165  0.0007  0.4335
 8636TIP3    H150103   2.849   7.536   9.798  0.1278  0.3538  0.0986
 8636TIP3    H250104   2.743   7.453   9.727  0.9667  0.5889 -1.4620
 8637TIP3   OH250105   1.838   5.620   8.870 -0.1158  0.2084  0.3365
 8637TIP3    H150106   1.909   5.575   8.917  1.1107  2.5683  0.9314
 8637TIP3    H250107   1.883   5.666   8.798 -1.3099  0.3497 -0.3432
 8638TIP3   OH250108   4.026   2.217   9.479 -0.4680 -0.6500  0.3920
 8638TIP3    H150109   3.954   2.155   9.467 -0.4024 -0.5725 -0.5196
 8638TIP3    H250110   4.032   2.230   9.573 -0.7096 -1.7688  0.5780
 8639TIP3   OH250111   2.478   0.772   9.582 -0.2841  0.0576  0.2566
 8639TIP3    H150112   2.442   0.694   9.623 -1.9226  0.1154 -0.9639
 8639TIP3    H250113   2.567   0.779   9.617 -0.7885 -1.1964  1.9288
 8640TIP3   OH250114   7.298   4.219   9.191 -0.0431  0.2633 -0.4158
 8640TIP3    H150115   7.210   4.188   9.170  0.1708 -0.4095 -0.3529
 8640TIP3    H250116   7.285   4.307   9.226 -0.7447 -0.0387  0.1120
 8641TIP3   OH250117   2.682   2.028  10.185  0.4207 -0.3781 -0.1175
 8641TIP3    H150118   2.736   2.067  10.254  0.3876 -0.3637 -0.0998
 8641TIP3    H250119   2.611   1.985  10.233  0.8602 -1.0969 -0.0912
 8642TIP3   OH250120   2.668   5.536   9.250 -0.1614  0.4753 -0.3872
 8642TIP3    H150121   2.757   5.500   9.241 -0.3087 -0.1306  0.4441
 8642TIP3    H250122   2.614   5.460   9.272 -0.3569  1.2891  2.2291
 8643TIP3   OH250123   1.141   3.045   9.562  0.5464 -0.2991  0.5863
 8643TIP3    H150124   1.110   3.135   9.556  1.4214 -0.0404 -0.4702
 8643TIP3    H250125   1.125   3.008   9.475  1.3652 -0.7483  0.6115
 8644TIP3   OH250126   6.098   3.947   9.928 -0.1770  0.1992 -0.2048
 8644TIP3    H150127   6.010   3.965   9.961 -0.3504 -0.9428  0.0123
 8644TIP3    H250128   6.119   4.021   9.871 -1.3351  0.4116 -0.3673
 8645TIP3   OH250129   1.109   2.222   9.996  0.1339 -0.4498 -0.1628
 8645TIP3    H150130   1.201   2.200  10.015  0.5310  1.0858 -0.2250
 8645TIP3    H250131   1.079   2.149   9.942  1.1788 -1.2061  0.2271
 8646TIP3   OH250132   1.011   3.562  10.838  0.2479 -0.1841 -0.1305
 8646TIP3    H150133   1.019   3.590  10.929 -0.3236  0.5963 -0.3080
 8646TIP3    H250134   1.006   3.466  10.843  2.7018 -0.3375  0.4422
 8647TIP3   OH250135   1.061   4.483   8.767 -0.2769  0.2543 -0.2201
 8647TIP3    H150136   1.079   4.402   8.718  0.4908 -0.5083  1.2540
 8647TIP3    H250137   0.967   4.497   8.757 -0.3157 -0.4875 -0.9911
 8648TIP3   OH250138   4.154   2.398  10.808 -1.0650  0.1758  0.7660
 8648TIP3    H150139   4.069   2.356  10.796 -0.7852 -0.2769  0.3511
 8648TIP3    H250140   4.213   2.327  10.832 -0.8298  0.5126  1.2007
 8649TIP3   OH250141   2.567   8.150   9.513  0.3691  0.0405 -0.4827
 8649TIP3    H150142   2.650   8.137   9.468  0.6411 -1.5271  0.3956
 8649TIP3    H250143   2.588   8.137   9.606 -0.9343 -0.8720 -0.2895
 8650TIP3   OH250144   8.085   0.486   9.571 -0.1638  0.1731  0.1698
 8650TIP3    H150145   8.127   0.536   9.640  0.5045 -1.7924  1.2740
 8650TIP3    H250146   8.055   0.406   9.614 -1.2440 -0.3803 -1.4892
 8651TIP3   OH250147   5.141   3.629  10.082  0.5047  0.3887 -0.3004
 8651TIP3    H150148   5.089   3.611  10.004  1.6805 -2.3453 -0.5680
 8651TIP3    H250149   5.109   3.713  10.113 -1.0601  0.8490 -2.8463
 8652TIP3   OH250150   7.638   1.336   8.800 -0.5082 -0.7530  0.3770
 8652TIP3    H150151   7.655   1.423   8.835 -0.6145 -1.0121  1.0792
 8652TIP3    H250152   7.667   1.341   8.709 -0.9893  0.1671  0.2654
 8653TIP3   OH250153   4.709   2.814   9.959  0.5604  0.1274 -0.1269
 8653TIP3    H150154   4.795   2.823  10.001 -0.0578 -1.1848  1.5069
 8653TIP3    H250155   4.655   2.881   9.999  0.1664 -0.6663  0.7132
 8654TIP3   OH250156   3.422   4.188   9.534 -0.7237 -0.0126  0.1576
 8654TIP3    H150157   3.463   4.222   9.455  0.5447 -2.1790 -0.1979
 8654TIP3    H250158   3.474   4.226   9.606 -2.0157  2.1319  0.0365
 8655TIP3   OH250159   8.430   4.115  10.684  0.2837  0.0293  0.0014
 8655TIP3    H150160   8.503   4.152  10.733  0.3275 -0.8156  0.5949
 8655TIP3    H250161   8.434   4.159  10.599  0.1880  1.5351  0.7404
 8656TIP3   OH250162   4.298   8.204  10.318  0.4760 -0.1845 -0.4681
 8656TIP3    H150163   4.338   8.291  10.320 -2.2963  1.1916 -0.3473
 8656TIP3    H250164   4.314   8.168  10.405 -1.0775  1.6123  0.6312
 8657TIP3   OH250165   8.174   0.689  11.108  0.2542  0.0688  0.2523
 8657TIP3    H150166   8.207   0.646  11.029  0.1712 -1.1117  0.8384
 8657TIP3    H250167   8.220   0.772  11.112 -0.1339  0.3850 -1.3228
 8658TIP3   OH250168   0.391   6.096  10.141 -0.1165 -0.0254 -0.0301
 8658TIP3    H150169   0.305   6.063  10.166  0.4742 -0.7728  1.1288
 8658TIP3    H250170   0.449   6.069  10.213  1.2040 -0.0877 -1.0746
 8659TIP3   OH250171   0.275   2.411  10.065 -0.1195  0.0369 -0.5280
 8659TIP3    H150172   0.218   2.469  10.116  2.3340  0.7282  1.6646
 8659TIP3    H250173   0.274   2.328  10.113 -0.1000 -0.2771 -1.0643
 8660TIP3   OH250174   7.854   6.656   8.835 -0.1968  0.0802 -0.1569
 8660TIP3    H150175   7.861   6.709   8.756  2.2913  0.0244 -0.0507
 8660TIP3    H250176   7.901   6.707   8.902  2.8196 -2.3463 -0.1862
 8661TIP3   OH250177   3.386   3.386   8.861 -0.3419 -0.3341  0.0803
 8661TIP3    H150178   3.452   3.432   8.809 -0.8359 -0.1841 -0.4269
 8661TIP3    H250179   3.314   3.448   8.870 -0.7182 -0.7452 -0.0082
 8662TIP3   OH250180   6.078   5.006  10.744  0.5813 -0.2966 -0.2370
 8662TIP3    H150181   6.028   5.027  10.823 -0.4825 -0.2394 -0.9139
 8662TIP3    H250182   6.170   5.012  10.772  0.2260 -0.2868  0.9919
 8663TIP3   OH250183   4.655   4.408   8.989 -0.7166 -0.4185 -0.1276
 8663TIP3    H150184   4.662   4.468   8.914 -0.3950  0.4291  0.5713
 8663TIP3    H250185   4.675   4.462   9.065 -2.0735 -1.0187  0.6864
 8664TIP3   OH250186   7.430   7.479   9.807  0.1500 -0.0311  0.0470
 8664TIP3    H150187   7.387   7.481   9.722 -1.1523 -0.4223  0.6710
 8664TIP3    H250188   7.491   7.405   9.801 -0.9108 -0.9192 -0.1165
 8665TIP3   OH250189   4.921   7.022   9.551 -0.1639  0.1536 -0.6149
 8665TIP3    H150190   4.900   7.105   9.510  2.4661  0.6311 -1.1991
 8665TIP3    H250191   4.894   7.033   9.642  0.8630  1.9805 -0.4871
 8666TIP3   OH250192   0.044   5.850   9.055 -0.2748  0.0082  0.0405
 8666TIP3    H150193  -0.041   5.815   9.029  0.6454 -0.6902 -2.2429
 8666TIP3    H250194   0.052   5.933   9.008 -1.0456  1.8367  2.8880
 8667TIP3   OH250195   7.427   2.341  10.155 -0.7375  0.6703 -0.3116
 8667TIP3    H150196   7.467   2.420  10.193 -0.4398  0.7147 -0.7126
 8667TIP3    H250197   7.423   2.279  10.228  1.1536  0.2463 -0.5094
 8668TIP3   OH250198   3.921   6.242  10.890  0.5648 -0.1585 -0.2340
 8668TIP3    H150199   3.871   6.305  10.839  2.2795  0.8058 -0.7795
 8668TIP3    H250200   3.951   6.177  10.826  0.7035 -0.2842 -0.0438
 8669TIP3   OH250201   6.232   6.023   8.746 -0.2979 -0.5853  0.0688
 8669TIP3    H150202   6.183   5.955   8.699  0.9101 -1.1373 -0.4560
 8669TIP3    H250203   6.312   6.034   8.694 -0.6334  1.5458 -0.0774
 8670TIP3   OH250204   7.547   0.231   9.112 -0.0993  0.1438 -0.2625
 8670TIP3    H150205   7.531   0.310   9.164  2.4273  0.3745  0.3305
 8670TIP3    H250206   7.608   0.259   9.043  0.0211 -1.0589 -0.6749
 8671TIP3   OH250207   6.466   7.072   9.255  0.1408 -0.4564  0.7440
 8671TIP3    H150208   6.555   7.071   9.221 -0.9545  0.1327 -2.4920
 8671TIP3    H250209   6.430   7.157   9.229 -1.7525 -1.1961  0.7275
 8672TIP3   OH250210   2.256   6.954  10.325  0.2501 -0.3334 -0.1287
 8672TIP3    H150211   2.287   7.011  10.256  1.5529 -1.1924 -0.2888
 8672TIP3    H250212   2.181   6.907  10.287 -0.3837  0.7270 -0.2183
 8673TIP3   OH250213   5.537   7.456  10.617 -0.7217  0.3773  0.0996
 8673TIP3    H150214   5.463   7.396  10.608 -0.5693 -0.0753  1.6730
 8673TIP3    H250215   5.609   7.411  10.572 -0.8016 -0.2728  0.6104
 8674TIP3   OH250216   1.217   4.867   9.786 -0.0228 -0.0770  0.0478
 8674TIP3    H150217   1.136   4.886   9.739  0.0178 -2.4922 -1.1721
 8674TIP3    H250218   1.236   4.947   9.836 -2.6360  0.8759 -0.3413
 8675TIP3   OH250219   8.112   3.820   9.963 -0.7473 -0.1446  0.2651
 8675TIP3    H150220   8.020   3.794   9.969 -1.4388  2.2810  1.4252
 8675TIP3    H250221   8.135   3.846  10.052  1.3687 -1.5053  0.1668
 8676TIP3   OH250222   7.848   4.504   8.891 -0.2772 -0.2432 -0.0763
 8676TIP3    H150223   7.795   4.434   8.854 -0.3855  1.0119 -2.4307
 8676TIP3    H250224   7.939   4.474   8.879 -0.2945 -1.8502  2.8814
 8677TIP3   OH250225   2.466   1.922   9.205 -0.3715  0.0062 -0.0555
 8677TIP3    H150226   2.405   1.982   9.248 -1.9769 -1.2414 -0.5156
 8677TIP3    H250227   2.469   1.846   9.262  1.1113  0.1990  0.1684
 8678TIP3   OH250228   7.507   2.505  10.771  0.1304 -0.1355 -0.0117
 8678TIP3    H150229   7.441   2.491  10.703 -0.8853 -0.0572  0.9110
 8678TIP3    H250230   7.588   2.471  10.734 -0.6230 -1.1135 -0.8322
 8679TIP3   OH250231   0.125   6.032  10.189  0.7714 -0.7848 -0.0347
 8679TIP3    H150232   0.114   5.991  10.274 -0.1374 -0.4278  0.0289
 8679TIP3    H250233   0.101   6.123  10.203  2.4691 -0.2666 -0.2396
 8680TIP3   OH250234   6.103   5.346  11.096  0.5842 -0.6053 -0.1592
 8680TIP3    H150235   6.190   5.385  11.096 -0.1195  1.1416  1.4955
 8680TIP3    H250236   6.065   5.371  11.180 -1.9865 -0.1655 -1.3423
 8681TIP3   OH250237   5.220   2.602   9.789  0.0932 -0.1505  0.7269
 8681TIP3    H150238   5.221   2.538   9.718  3.0253 -1.2679  1.6320
 8681TIP3    H250239   5.175   2.556   9.861  0.4258 -0.4621  0.7408
 8682TIP3   OH250240   1.983   6.339   9.497  0.3695 -0.0786 -0.1549
 8682TIP3    H150241   2.052   6.285   9.458  0.0111 -0.6494 -0.0258
 8682TIP3    H250242   2.023   6.425   9.510  1.3294 -0.6353  0.7284
 8683TIP3   OH250243   4.948   5.762   8.901 -0.2693  0.2045 -0.6592
 8683TIP3    H150244   4.875   5.700   8.903 -1.9859  2.0999 -1.2341
 8683TIP3    H250245   4.933   5.821   8.975  0.8480  0.4739 -0.6175
 8684TIP3   OH250246   3.556   2.813   8.683 -0.4215  0.2472  0.2473
 8684TIP3    H150247   3.499   2.780   8.613  0.2938  1.1810 -0.8061
 8684TIP3    H250248   3.622   2.865   8.638 -0.3113  1.4140  1.6859
 8685TIP3   OH250249   5.008   5.133   9.390  0.2889  0.1284 -0.6301
 8685TIP3    H150250   5.076   5.126   9.323  0.6940  1.2810 -0.3723
 8685TIP3    H250251   4.987   5.227   9.393 -2.1543 -0.3238 -1.5029
 8686TIP3   OH250252   5.927   8.036  10.086  0.3225  0.7315  0.8196
 8686TIP3    H150253   5.913   8.107  10.149 -1.2646  1.9187 -0.7833
 8686TIP3    H250254   5.839   8.006  10.064  0.8023  0.5684 -1.0309
 8687TIP3   OH250255   4.147   6.901  10.511 -0.7348 -0.2467  0.3665
 8687TIP3    H150256   4.230   6.948  10.514  1.0831 -3.1483 -0.5558
 8687TIP3    H250257   4.091   6.948  10.572  1.2717  2.3191  0.4290
 8688TIP3   OH250258   5.341   1.991   9.347  0.2768  0.4054  0.1592
 8688TIP3    H150259   5.299   2.062   9.297 -1.7079 -1.0422 -0.3682
 8688TIP3    H250260   5.361   1.924   9.281 -2.7134 -1.6981  1.1850
 8689TIP3   OH250261   3.957   8.402   9.701 -0.8217  0.1896  0.2173
 8689TIP3    H150262   4.010   8.423   9.777  0.2291 -2.0530  0.1962
 8689TIP3    H250263   3.903   8.328   9.728 -1.3004  0.1205 -0.8522
 8690TIP3   OH250264   0.148   0.262   9.233 -0.2872 -0.2984 -0.0925
 8690TIP3    H150265   0.084   0.218   9.289 -1.6279  1.2460 -0.3180
 8690TIP3    H250266   0.213   0.195   9.212 -2.1184 -2.1095 -0.2784
 8691TIP3   OH250267   3.268   0.308   9.322 -0.3150  0.1381  0.3776
 8691TIP3    H150268   3.273   0.309   9.226  0.7920  1.9912  0.3907
 8691TIP3    H250269   3.237   0.221   9.344 -1.5690 -0.0174 -1.7095
 8692TIP3   OH250270   2.863   2.074   8.864  0.4813  0.1763 -0.7644
 8692TIP3    H150271   2.883   2.165   8.885  0.6871  0.5282 -2.3685
 8692TIP3    H250272   2.897   2.062   8.775  0.3701 -1.4398 -0.6122
 8693TIP3   OH250273   3.531   5.735  10.014 -0.1918 -1.2158  0.1427
 8693TIP3    H150274   3.591   5.668  10.045 -0.9440 -1.8827  0.1729
 8693TIP3    H250275   3.516   5.791  10.090  0.4480 -0.9835  0.1122
 8694TIP3   OH250276   5.641   8.391  10.185  0.1910 -0.3404 -0.0630
 8694TIP3    H150277   5.587   8.327  10.139 -2.5613  1.7042  0.0609
 8694TIP3    H250278   5.625   8.374  10.278 -0.9092  0.7218 -0.0328
 8695TIP3   OH250279   6.573   7.414  10.158 -0.2513 -0.0893 -0.2645
 8695TIP3    H150280   6.630   7.438  10.231 -1.1573  1.9575 -0.1881
 8695TIP3    H250281   6.500   7.368  10.199  0.6075 -1.4840 -0.2257
 8696TIP3   OH250282   1.159   4.941  10.120  0.0493 -0.2216 -0.5240
 8696TIP3    H150283   1.169   5.031  10.089 -0.3498 -0.4284 -1.2576
 8696TIP3    H250284   1.107   4.898  10.053  0.0963 -0.9618 -0.0916
 8697TIP3   OH250285   0.327   4.027   8.611  0.1519 -0.1785  0.1059
 8697TIP3    H150286   0.325   3.936   8.579 -1.0050 -0.1673  0.0799
 8697TIP3    H250287   0.236   4.056   8.604  0.5988  1.1886 -0.4475
 8698TIP3   OH250288   3.501   6.718  10.244  0.1209  0.2992  0.2837
 8698TIP3    H150289   3.503   6.722  10.339 -3.1206 -1.1543  0.5157
 8698TIP3    H250290   3.410   6.736  10.220  0.0697 -2.5308 -2.2965
 8699TIP3   OH250291   7.142   0.003   9.280 -0.6061 -0.0216  0.3176
 8699TIP3    H150292   7.070  -0.057   9.298 -0.4995  0.2584  1.8831
 8699TIP3    H250293   7.104   0.091   9.289 -0.5107  0.1489 -0.8340
 8700TIP3   OH250294   5.056   0.169   9.738  0.1209 -0.2751 -0.2332
 8700TIP3    H150295   5.121   0.220   9.786  0.7211 -1.6542  0.4841
 8700TIP3    H250296   5.027   0.227   9.667  0.0486  1.4038  1.0996
 8701TIP3   OH250297   2.255   5.307   9.096  1.0245  0.5853  0.4180
 8701TIP3    H150298   2.205   5.227   9.115 -0.5908  1.3891 -0.2910
 8701TIP3    H250299   2.283   5.297   9.005  0.6971  0.8795  0.2829
 8702TIP3   OH250300   5.841   3.424   9.953  0.4527  0.0459 -0.2881
 8702TIP3    H150301   5.797   3.365  10.014 -1.0050  0.4023 -0.9749
 8702TIP3    H250302   5.824   3.387   9.867  0.5654  0.8046 -0.6428
 8703TIP3   OH250303   7.344   2.216   9.027  0.1975  0.5635  0.4911
 8703TIP3    H150304   7.275   2.152   9.009 -0.4856  0.8874  1.8395
 8703TIP3    H250305   7.329   2.242   9.118  0.8608  2.1493  0.1771
 8704TIP3   OH250306   1.611   0.809  10.370  0.8884 -0.0850  0.0546
 8704TIP3    H150307   1.552   0.735  10.354  0.2712  0.3905  0.0701
 8704TIP3    H250308   1.641   0.835  10.283  1.5866 -0.7330  0.0975
 8705TIP3   OH250309   0.379   7.255  10.551  0.0460  0.1600 -0.0125
 8705TIP3    H150310   0.304   7.231  10.495  0.7706 -0.3309 -0.8001
 8705TIP3    H250311   0.343   7.317  10.614 -0.5041  1.9901 -1.9990
 8706TIP3   OH250312   6.609   6.310   9.352 -0.1902  0.4189 -0.4966
 8706TIP3    H150313   6.567   6.225   9.337  0.9496 -0.3171  0.3111
 8706TIP3    H250314   6.681   6.312   9.289  0.5157  0.2482  0.2949
 8707TIP3   OH250315   1.243   6.537   8.606  0.4232  0.2458 -0.3570
 8707TIP3    H150316   1.260   6.507   8.695  0.7024  1.2717 -0.0492
 8707TIP3    H250317   1.267   6.463   8.551  1.5938  0.0828  0.3399
 8708TIP3   OH250318   4.397   1.323  10.810  0.6328 -0.4507  0.3207
 8708TIP3    H150319   4.386   1.418  10.799 -0.3000 -0.7462 -1.7198
 8708TIP3    H250320   4.340   1.285  10.743  0.5540 -2.4768  1.4751
 8709TIP3   OH250321   6.714   6.841   9.317 -0.3720  0.3259  0.0233
 8709TIP3    H150322   6.700   6.908   9.384  0.8131  0.3087  0.3039
 8709TIP3    H250323   6.801   6.860   9.282 -1.5209  1.2904 -2.6068
 8710TIP3   OH250324   6.611   0.260   8.747 -0.1479  0.1112  0.5874
 8710TIP3    H150325   6.699   0.284   8.776  0.1508  0.6739 -0.7408
 8710TIP3    H250326   6.583   0.333   8.692 -1.0230 -0.5378  0.1566
 8711TIP3   OH250327   1.846   6.824   9.242  0.7856  0.2414  0.1277
 8711TIP3    H150328   1.826   6.916   9.227  0.7739  0.3453  0.7501
 8711TIP3    H250329   1.939   6.815   9.220  0.4993  0.1324 -1.1001
 8712TIP3   OH250330   3.906   2.847  10.914 -0.1797 -0.0307  0.4013
 8712TIP3    H150331   3.933   2.881  10.999 -0.2006 -0.6396  0.6596
 8712TIP3    H250332   3.954   2.765  10.905 -0.7539 -0.3500  0.1700
 8713TIP3   OH250333   3.053   1.525   9.309 -0.7632 -0.5913  0.0345
 8713TIP3    H150334   3.076   1.474   9.231 -1.3959 -1.0385  0.1272
 8713TIP3    H250335   3.016   1.606   9.275 -0.5348 -0.5527 -0.1244
 8714TIP3   OH250336   8.147   6.287   8.977 -0.1712 -0.1394 -0.1613
 8714TIP3    H150337   8.108   6.242   8.902 -2.0079  1.5422 -0.3059
 8714TIP3    H250338   8.074   6.334   9.018  1.3612  1.5615  0.7963
 8715TIP3   OH250339   6.728   2.432   9.097 -0.0129 -0.4405 -0.2463
 8715TIP3    H150340   6.633   2.432   9.107 -0.4884 -1.1331 -3.4408
 8715TIP3    H250341   6.750   2.522   9.071 -0.0214 -0.6005 -0.8274
 8716TIP3   OH250342   0.485   2.720   9.945 -0.3042  0.2125  0.1003
 8716TIP3    H150343   0.452   2.712  10.035  2.9019  0.3243  1.4129
 8716TIP3    H250344   0.574   2.685   9.949 -0.3555 -0.6807 -3.3046
 8717TIP3   OH250345   5.391   7.266  11.190 -0.0638 -0.4391  0.2522
 8717TIP3    H150346   5.370   7.292  11.279 -0.1339 -0.0987  0.1381
 8717TIP3    H250347   5.482   7.236  11.194  0.5259  1.2661  0.0931
 8718TIP3   OH250348   3.032   1.907   9.006  0.0514 -0.3984 -0.1205
 8718TIP3    H150349   2.965   1.964   8.969  1.4664  1.4886  0.0617
 8718TIP3    H250350   3.081   1.874   8.931 -0.5104 -1.0712 -0.2014
 8719TIP3   OH250351   7.391   3.960  10.596  0.4104  0.5636 -0.3793
 8719TIP3    H150352   7.403   3.868  10.570 -3.0591  0.3557 -1.8946
 8719TIP3    H250353   7.389   3.958  10.691  1.1218 -0.8136 -0.3703
 8720TIP3   OH250354   6.224   1.744  10.781 -0.0010  0.5726  0.1660
 8720TIP3    H150355   6.314   1.730  10.754 -0.0539  0.6647 -0.0575
 8720TIP3    H250356   6.192   1.658  10.806  0.5095  0.7087  1.3542
 8721TIP3   OH250357   1.969   3.962   9.814  0.3034  0.1171 -0.0705
 8721TIP3    H150358   1.999   3.879   9.776  1.2946  0.0801  0.7456
 8721TIP3    H250359   1.894   3.988   9.760  1.0081 -0.4698 -1.3610
 8722TIP3   OH250360   5.146   1.583  10.019  0.7093 -0.4789  0.1510
 8722TIP3    H150361   5.226   1.590   9.966  0.6326 -1.6778 -0.1592
 8722TIP3    H250362   5.173   1.537  10.098  0.0513 -2.3779 -0.6682
 8723TIP3   OH250363   2.219   2.998   9.546  0.2136 -0.0784  0.1446
 8723TIP3    H150364   2.154   3.060   9.579 -0.4832  0.1878 -1.6140
 8723TIP3    H250365   2.206   2.919   9.598 -0.4910  0.4796  0.8322
 8724TIP3   OH250366   1.743   4.212  10.404  0.0874 -0.3248 -0.2543
 8724TIP3    H150367   1.665   4.156  10.406 -0.5262  0.5474  1.0780
 8724TIP3    H250368   1.736   4.260  10.321 -1.1467  0.2320  0.1530
 8725TIP3   OH250369   6.337   6.703   9.432 -0.3662  0.0559 -0.3282
 8725TIP3    H150370   6.405   6.704   9.499  1.1012 -0.6958 -1.7361
 8725TIP3    H250371   6.275   6.771   9.460  1.9628  2.2065  0.0288
 8726TIP3   OH250372   3.748   0.699   8.960 -0.9168 -0.2158 -0.2878
 8726TIP3    H150373   3.767   0.641   9.033 -0.2898  0.6501  0.2459
 8726TIP3    H250374   3.694   0.646   8.901  0.8391 -1.8400 -0.5245
 8727TIP3   OH250375   2.986   7.236  10.773 -0.2293  0.1970 -0.4356
 8727TIP3    H150376   3.053   7.279  10.827 -0.0305 -0.5198 -0.0988
 8727TIP3    H250377   2.994   7.278  10.688  0.8471 -0.0698 -0.4813
 8728TIP3   OH250378   3.370   1.926  10.218  0.6667  0.1763  0.0659
 8728TIP3    H150379   3.305   1.861  10.193 -0.2726  0.7295  1.0103
 8728TIP3    H250380   3.402   1.898  10.303  0.5056  0.7496  0.3238
 8729TIP3   OH250381   6.777   7.665   8.725 -0.2650  0.1965 -0.6982
 8729TIP3    H150382   6.792   7.598   8.791  2.0693  0.9791 -0.3281
 8729TIP3    H250383   6.737   7.619   8.652 -0.4264 -1.2199  0.2445
 8730TIP3   OH250384   5.078   0.544   8.949 -0.7758 -0.0805 -0.0894
 8730TIP3    H150385   4.989   0.547   8.983 -0.0320  1.6891  1.8720
 8730TIP3    H250386   5.111   0.633   8.959  1.0158 -0.5350 -1.4037
 8731TIP3   OH250387   3.521   5.926  10.226 -0.0000 -0.7305 -0.6586
 8731TIP3    H150388   3.434   5.908  10.260 -0.7954  0.3838 -2.0011
 8731TIP3    H250389   3.566   5.972  10.297 -0.2885 -1.8195  0.2468
 8732TIP3   OH250390   3.578   0.305  10.321 -0.1683 -0.2483  0.4137
 8732TIP3    H150391   3.650   0.308  10.384 -0.2605  1.5587  0.4740
 8732TIP3    H250392   3.504   0.273  10.371  0.5440 -2.1267  0.3523
 8733TIP3   OH250393   2.287   7.711   8.893  0.2340  0.1767 -0.0067
 8733TIP3    H150394   2.214   7.669   8.938  0.1935  1.0779  0.7866
 8733TIP3    H250395   2.307   7.652   8.820 -1.6369  0.1844 -0.5777
 8734TIP3   OH250396   3.365   0.686   9.309 -0.0990  0.4746  0.1897
 8734TIP3    H150397   3.402   0.648   9.229  0.8551 -0.2914  0.9686
 8734TIP3    H250398   3.396   0.776   9.309 -0.6136  0.6712 -0.5946
 8735TIP3   OH250399   4.368   2.904   9.215  0.1477 -0.3898  0.7542
 8735TIP3    H150400   4.404   2.873   9.132  0.6666 -0.7837  1.1243
 8735TIP3    H250401   4.444   2.940   9.261 -0.5961  2.7644 -0.2274
 8736TIP3   OH250402   0.673   2.848  10.806 -0.6796 -0.1345 -0.0818
 8736TIP3    H150403   0.762   2.884  10.800 -0.9386  0.5797  0.2065
 8736TIP3    H250404   0.683   2.763  10.847 -0.2452  0.4638  1.1025
 8737TIP3   OH250405   5.383   2.059   9.624 -0.4592 -0.1836  0.5026
 8737TIP3    H150406   5.298   2.097   9.647 -1.6547 -2.5301  0.3221
 8737TIP3    H250407   5.370   2.026   9.535  0.3453 -1.3302  0.7926
 8738TIP3   OH250408   0.328   7.186  10.098  0.1292 -0.3352  0.1064
 8738TIP3    H150409   0.278   7.193  10.179 -2.1430 -0.4558 -1.2061
 8738TIP3    H250410   0.406   7.137  10.122 -0.4467 -0.3037  2.2233
 8739TIP3   OH250411   1.536   2.138   9.161 -0.3135  0.0348 -0.0528
 8739TIP3    H150412   1.508   2.184   9.082 -1.2188 -1.1902 -0.4831
 8739TIP3    H250413   1.632   2.139   9.157 -0.3461  0.3336 -0.9725
 8740TIP3   OH250414   2.481   5.978  10.586  0.3871 -0.5197 -0.4020
 8740TIP3    H150415   2.423   5.996  10.512 -1.7802  0.6070  1.4287
 8740TIP3    H250416   2.443   5.900  10.627 -0.1288  0.4648  1.0498
 8741TIP3   OH250417   8.390   5.807   9.542  0.4273 -0.2987  0.2089
 8741TIP3    H150418   8.375   5.885   9.488  0.7041 -0.8627 -0.7162
 8741TIP3    H250419   8.360   5.832   9.629  0.4068  0.8020 -0.0931
 8742TIP3   OH250420   2.692   6.316   9.045 -0.4141 -0.1251  0.2054
 8742TIP3    H150421   2.767   6.267   9.078  0.5528  1.1431 -0.0703
 8742TIP3    H250422   2.683   6.287   8.954 -1.2321 -1.4017  0.6638
 8743TIP3   OH250423   5.609   0.187  10.989 -0.2320 -0.1195 -0.1648
 8743TIP3    H150424   5.610   0.103  11.035 -1.6049 -0.0450  0.0387
 8743TIP3    H250425   5.700   0.216  10.989  0.2471 -1.5946 -0.2211
 8744TIP3   OH250426   2.318   4.794  11.246  0.4299  0.1889  0.3304
 8744TIP3    H150427   2.271   4.847  11.311 -1.7480 -0.8630 -0.2800
 8744TIP3    H250428   2.363   4.858  11.191  0.7844  1.1935  1.7315
 8745TIP3   OH250429   4.492   7.928   8.941 -0.5101  0.0420  0.2324
 8745TIP3    H150430   4.417   7.875   8.915 -0.4728 -0.2148  0.6427
 8745TIP3    H250431   4.456   8.016   8.954 -0.6699  0.0015  0.0737
 8746TIP3   OH250432   8.183   2.919  10.145  0.3245 -0.5863 -0.3670
 8746TIP3    H150433   8.163   3.010  10.121 -0.1626 -0.1143  1.6056
 8746TIP3    H250434   8.254   2.926  10.209  0.2931 -1.5827 -0.2072
 8747TIP3   OH250435   4.194   3.327   9.928 -0.5238 -0.0335  0.7889
 8747TIP3    H150436   4.126   3.338   9.861 -0.3578 -0.7412  0.4942
 8747TIP3    H250437   4.262   3.390   9.903 -0.6797  0.0581  0.5842
 8748TIP3   OH250438   0.020   8.335   9.460  0.5306  0.2501 -0.1449
 8748TIP3    H150439  -0.004   8.267   9.397  1.1444  0.6554 -0.8283
 8748TIP3    H250440  -0.048   8.330   9.527  0.8273 -1.3700  0.0877
 8749TIP3   OH250441   6.272   8.050  10.289 -0.2005  0.1966 -0.6143
 8749TIP3    H150442   6.223   8.123  10.326  1.0444  0.1762  1.2436
 8749TIP3    H250443   6.342   8.033  10.353 -0.3847 -2.5473 -1.0017
 8750TIP3   OH250444   7.621   8.163   9.848 -0.0020  0.1538 -0.3176
 8750TIP3    H150445   7.629   8.238   9.789 -1.6300  0.0515 -0.7191
 8750TIP3    H250446   7.537   8.176   9.893  0.3759 -0.6782  0.6951
 8751TIP3   OH250447   3.133   6.366   9.480 -0.0390 -0.5975 -0.5561
 8751TIP3    H150448   3.126   6.441   9.538  0.5753 -1.2171  0.3518
 8751TIP3    H250449   3.218   6.327   9.501 -1.0656 -2.5281  0.2365
 8752TIP3   OH250450   4.854   0.938   9.721  0.4353 -0.1615 -0.0005
 8752TIP3    H150451   4.907   0.970   9.648  0.1600  2.8471  0.9858
 8752TIP3    H250452   4.820   1.017   9.763 -1.1695 -1.8387  2.1252
 8753TIP3   OH250453   7.515   4.223  10.594  0.4894  0.0719 -0.0359
 8753TIP3    H150454   7.467   4.140  10.599  1.1031 -0.3496 -0.8241
 8753TIP3    H250455   7.456   4.287  10.633 -1.3135 -0.1609 -2.2169
 8754TIP3   OH250456   5.327   6.495   8.817  0.7402  0.7455 -0.2571
 8754TIP3    H150457   5.239   6.533   8.812 -0.3191 -1.5586 -0.2337
 8754TIP3    H250458   5.326   6.423   8.754  2.5838  0.5672 -0.1485
 8755TIP3   OH250459   4.446   0.664  11.195 -0.1313  0.2526  0.3063
 8755TIP3    H150460   4.442   0.756  11.169 -1.0067  1.6161  4.4517
 8755TIP3    H250461   4.538   0.640  11.186  0.6373  2.4409  1.5756
 8756TIP3   OH250462   2.761   7.128  10.561 -0.1128  0.2500 -0.5829
 8756TIP3    H150463   2.721   7.213  10.542 -0.3133  0.2446 -0.1789
 8756TIP3    H250464   2.852   7.137  10.531  0.2182  1.0234  0.5879
 8757TIP3   OH250465   6.327   2.273   9.421  0.0170  0.2533 -0.2645
 8757TIP3    H150466   6.416   2.292   9.391  0.4220  2.5724  2.0866
 8757TIP3    H250467   6.274   2.343   9.383 -0.0776  1.1080  1.3548
 8758TIP3   OH250468   5.588   7.839   8.951 -0.3879  0.5940  0.2602
 8758TIP3    H150469   5.493   7.844   8.956 -0.4092  0.7853 -0.2715
 8758TIP3    H250470   5.619   7.922   8.987 -0.4296  0.6291  0.2146
 8759TIP3   OH250471   6.302   3.083  10.171  0.0804  0.3136  0.3652
 8759TIP3    H150472   6.298   3.080  10.267  0.7642 -1.6405  0.3756
 8759TIP3    H250473   6.221   3.128  10.145 -0.9368 -0.5744  1.8196
 8760TIP3   OH250474   0.404   0.513   9.409 -0.0310 -0.4561 -0.1304
 8760TIP3    H150475   0.314   0.490   9.436 -0.0064  0.2882  0.6221
 8760TIP3    H250476   0.411   0.607   9.426  1.2216 -0.6960  0.7913
 8761TIP3   OH250477   0.189   2.140   9.771  0.7185 -0.3430 -0.5499
 8761TIP3    H150478   0.156   2.215   9.722  0.2865 -0.4232 -0.3801
 8761TIP3    H250479   0.124   2.125   9.839  1.3766 -0.1488  0.1401
 8762TIP3   OH250480   3.149   2.163   8.302  0.0508  0.2980  0.1839
 8762TIP3    H150481   3.198   2.132   8.378 -0.2756  1.4085  0.8686
 8762TIP3    H250482   3.118   2.083   8.259  1.6435 -0.4032  0.2513
 8763TIP3   OH250483   5.988   6.981   9.315 -0.0873  0.1086 -0.4468
 8763TIP3    H150484   5.929   6.913   9.283 -1.2614  1.7903 -2.0250
 8763TIP3    H250485   5.932   7.057   9.330  1.1464  0.7200  1.5209
 8764TIP3   OH250486   4.103   4.081  14.541 -0.0419 -0.0530 -0.3476
 8764TIP3    H150487   4.031   4.027  14.574 -0.5340  0.4267 -0.6252
 8764TIP3    H250488   4.066   4.128  14.466  0.3328  0.7898 -0.0157
 8765TIP3   OH250489   1.250   4.372  10.648  0.5924 -0.0950  0.7945
 8765TIP3    H150490   1.180   4.319  10.610  0.5083  0.4433  0.1918
 8765TIP3    H250491   1.331   4.328  10.620  0.5348  0.3554 -0.1187
 8766TIP3   OH250492   0.617   3.483   9.136 -0.2292  0.6022 -0.0764
 8766TIP3    H150493   0.712   3.494   9.137 -0.2168  0.4647  1.0739
 8766TIP3    H250494   0.597   3.441   9.219 -1.2666  0.3133 -0.4596
 8767TIP3   OH250495   3.510   5.183   9.325  0.2882  0.0633 -0.3148
 8767TIP3    H150496   3.574   5.212   9.389 -0.9081  0.2590  0.8315
 8767TIP3    H250497   3.533   5.091   9.308  1.2453  0.3142 -0.4209
 8768TIP3   OH250498   4.493   1.792  10.885 -0.2737 -0.1560  0.3375
 8768TIP3    H150499   4.472   1.885  10.875 -1.1930 -0.5574 -2.3853
 8768TIP3    H250500   4.589   1.790  10.889 -0.0867  0.8565 -1.7728
 8769TIP3   OH250501   1.205   4.889  10.687 -0.0654 -0.3411  0.2003
 8769TIP3    H150502   1.181   4.796  10.697  2.2146 -0.9983  0.0920
 8769TIP3    H250503   1.194   4.907  10.594  1.9301 -1.2865 -0.2566
 8770TIP3   OH250504   2.787   2.802   9.835 -0.2337 -0.0245  0.2650
 8770TIP3    H150505   2.693   2.794   9.822 -0.2218 -1.3463  0.7957
 8770TIP3    H250506   2.818   2.852   9.759 -1.2166 -0.5129 -0.4780
 8771TIP3   OH250507   7.989   3.346  10.809 -0.1023 -0.5824 -0.5862
 8771TIP3    H150508   7.912   3.296  10.783 -0.2502 -0.6485 -0.0337
 8771TIP3    H250509   7.955   3.431  10.834 -0.2331 -1.1567  1.3309
 8772TIP3   OH250510   0.032   2.095  10.675 -0.0685 -0.2450 -0.2865
 8772TIP3    H150511   0.073   2.009  10.688 -2.0739 -0.9444  2.5367
 8772TIP3    H250512   0.090   2.156  10.721 -0.5627 -0.7597  1.0849
 8773TIP3   OH250513   7.571   3.543   9.364 -0.5800  0.2047  0.8644
 8773TIP3    H150514   7.582   3.632   9.395  0.9180 -0.0518  1.1408
 8773TIP3    H250515   7.555   3.551   9.271 -0.2316  0.7525  0.8523
 8774TIP3   OH250516   4.302   4.342   9.601  0.2681 -0.0896  0.2377
 8774TIP3    H150517   4.380   4.389   9.630 -0.3801 -0.8223  3.5706
 8774TIP3    H250518   4.230   4.401   9.623 -0.2819  0.8440 -3.3324
 8775TIP3   OH250519   1.306   6.977   9.866 -0.5301  0.6237  0.2577
 8775TIP3    H150520   1.219   6.939   9.875 -0.0817 -0.3374  0.7057
 8775TIP3    H250521   1.344   6.933   9.790 -1.1014  2.4147 -1.1366
 8776TIP3   OH250522   6.615   8.316  15.115  0.3537 -0.0338 -0.1694
 8776TIP3    H150523   6.704   8.338  15.090  0.8006 -0.0552  1.2904
 8776TIP3    H250524   6.621   8.228  15.152 -0.1529  0.2200  0.5382
 8777TIP3   OH250525   1.939   1.292   9.907  0.2950 -0.6140  0.1532
 8777TIP3    H150526   2.009   1.328   9.961  0.1720 -1.0066  0.5770
 8777TIP3    H250527   1.915   1.210   9.950  0.3142 -1.0172 -0.5874
 8778TIP3   OH250528   2.798   5.183  10.594  0.2703 -0.1384  0.4253
 8778TIP3    H150529   2.806   5.269  10.636 -0.4629 -0.4446  1.2197
 8778TIP3    H250530   2.728   5.193  10.530  2.6414  0.8592 -2.1759
 8779TIP3   OH250531   7.065   1.864   9.630 -0.2200 -0.2781 -0.0541
 8779TIP3    H150532   6.971   1.868   9.647 -0.5029 -1.8765 -1.0366
 8779TIP3    H250533   7.073   1.881   9.536  0.3855 -0.8451 -0.1116
 8780TIP3   OH250534   3.955   5.821   9.441  0.2985 -0.3710 -0.2890
 8780TIP3    H150535   3.885   5.881   9.468  1.9564  1.4280  0.2559
 8780TIP3    H250536   4.011   5.875   9.384  2.1158 -1.2312  0.6052
 8781TIP3   OH250537   2.065   5.846   8.883 -0.2008  0.1301  0.1202
 8781TIP3    H150538   2.110   5.779   8.934 -1.1909 -0.4263  0.2937
 8781TIP3    H250539   1.996   5.878   8.942 -0.4773  0.4660 -0.3823
 8782TIP3   OH250540   6.871   4.680   9.761  0.2282 -0.0046 -0.2398
 8782TIP3    H150541   6.872   4.684   9.856 -0.7878  1.4520 -0.2727
 8782TIP3    H250542   6.963   4.681   9.736  0.4861  0.1873  0.6958
 8783TIP3   OH250543   2.371   1.510   8.814  0.5212 -0.5731  0.1476
 8783TIP3    H150544   2.383   1.553   8.898 -1.9039 -1.1919  0.9208
 8783TIP3    H250545   2.301   1.560   8.771 -0.2646 -1.9320 -0.2217
 8784TIP3   OH250546   5.874   2.124   9.127  0.1487 -0.0953  0.2526
 8784TIP3    H150547   5.866   2.196   9.189 -1.3443 -0.3566  0.4063
 8784TIP3    H250548   5.918   2.161   9.052 -1.7286  1.3725 -0.2085
 8785TIP3   OH250549   6.355   2.967   9.647 -0.0462 -0.0550  0.8677
 8785TIP3    H150550   6.406   2.963   9.566 -0.7222  2.9652  0.1482
 8785TIP3    H250551   6.420   2.974   9.717  0.5639  0.7766  0.2374
 8786TIP3   OH250552   7.425   6.562   9.694 -0.0776  0.8595 -0.2295
 8786TIP3    H150553   7.412   6.519   9.778 -0.9954  0.1987 -0.6904
 8786TIP3    H250554   7.519   6.560   9.679 -0.1005 -1.1346 -0.2975
 8787TIP3   OH250555   7.780   7.936   9.405 -0.4161 -0.1493  0.1309
 8787TIP3    H150556   7.848   7.908   9.467  0.2036  2.1189  0.5582
 8787TIP3    H250557   7.703   7.952   9.459 -1.1518 -2.0239 -0.2678
 8788TIP3   OH250558   4.026   6.024  10.006  0.0563  0.1015  0.2703
 8788TIP3    H150559   4.068   5.946  10.043  0.1993  0.2930  0.5135
 8788TIP3    H250560   4.060   6.097  10.058 -0.6114  0.2550  0.5046
 8789TIP3   OH250561   3.990   0.408   9.449  0.0435 -0.5437 -0.0111
 8789TIP3    H150562   4.034   0.336   9.404  1.2726 -0.5489  1.1150
 8789TIP3    H250563   3.899   0.380   9.457 -0.0684 -0.8101 -1.8702
 8790TIP3   OH250564   7.418   2.514   9.674  0.1151  0.1400 -0.5543
 8790TIP3    H150565   7.326   2.520   9.650 -0.0117  0.0985 -0.0932
 8790TIP3    H250566   7.457   2.457   9.607 -0.7326 -1.9623  0.6443
 8791TIP3   OH250567   7.109   2.513  10.388 -0.1585  0.7414  0.2520
 8791TIP3    H150568   7.081   2.425  10.365 -0.3748  0.8113  0.2519
 8791TIP3    H250569   7.033   2.569  10.372  0.1904  1.0408 -0.4175
 8792TIP3   OH250570   4.645   4.274   9.427 -0.2641 -0.2007  0.5172
 8792TIP3    H150571   4.694   4.255   9.507 -1.3865  2.6687  2.0229
 8792TIP3    H250572   4.710   4.308   9.366  0.1065  0.9268  1.5086
 8793TIP3   OH250573   4.092   7.048   9.296 -0.5483 -0.2589  0.0698
 8793TIP3    H150574   4.063   6.989   9.227 -2.1761 -0.1127  0.6010
 8793TIP3    H250575   4.115   7.129   9.250 -0.0099 -0.7000 -0.4599
 8794TIP3   OH250576   5.014   3.358  10.584 -0.1051  0.4431 -0.3761
 8794TIP3    H150577   5.037   3.359  10.677 -1.1475 -0.3751 -0.0849
 8794TIP3    H250578   5.084   3.307  10.542 -0.7774 -1.1057  0.3214
 8795TIP3   OH250579   5.096   2.445   9.356 -0.0888  0.4184 -0.6021
 8795TIP3    H150580   5.019   2.426   9.408  0.2493 -0.7534 -0.4986
 8795TIP3    H250581   5.077   2.529   9.314 -1.6401 -0.1197 -1.0200
 8796TIP3   OH250582   1.567   2.079  10.208 -0.8540 -0.3954 -0.5678
 8796TIP3    H150583   1.661   2.064  10.199 -1.0227 -1.5490 -0.5441
 8796TIP3    H250584   1.555   2.170  10.183  0.4330  0.1326  0.6032
 8797TIP3   OH250585   3.570   2.898   9.185  0.2090 -0.1035  0.7362
 8797TIP3    H150586   3.525   2.834   9.240 -0.5361 -0.1802  0.0613
 8797TIP3    H250587   3.502   2.929   9.124  1.1232 -0.3569 -0.4422
 8798TIP3   OH250588   7.876   0.451   8.719  0.6954  0.3723 -0.1473
 8798TIP3    H150589   7.838   0.467   8.633  2.6095  2.1881 -0.7548
 8798TIP3    H250590   7.935   0.526   8.733  2.6407 -1.3365  1.4647
 8799TIP3   OH250591   3.253   7.459   8.575 -0.1272 -0.0994  0.3842
 8799TIP3    H150592   3.222   7.423   8.658  1.0528 -0.1152  0.8451
 8799TIP3    H250593   3.257   7.384   8.516 -0.2836 -0.2235  0.5309
 8800TIP3   OH250594   1.131   7.214  10.701 -0.4256 -0.6439 -0.1159
 8800TIP3    H150595   1.150   7.274  10.629 -1.0182  1.7355  1.6068
 8800TIP3    H250596   1.213   7.206  10.749 -0.4159 -1.0088 -0.1914
 8801TIP3   OH250597   1.222   1.015   9.855 -0.2499 -0.1249  0.3924
 8801TIP3    H150598   1.132   0.985   9.867  0.1387 -1.4032  0.2348
 8801TIP3    H250599   1.232   1.024   9.760 -0.8646  2.2047  0.4809
 8802TIP3   OH250600   3.853   3.661   9.303 -0.8802  0.2836 -0.1651
 8802TIP3    H150601   3.803   3.677   9.223 -0.8166 -2.2337 -0.7836
 8802TIP3    H250602   3.902   3.742   9.317 -1.7215  1.1792 -2.0566
 8803TIP3   OH250603   1.289   4.888   9.455 -0.3023  0.3939  0.4406
 8803TIP3    H150604   1.304   4.978   9.484 -0.8117  0.5116  0.3558
 8803TIP3    H250605   1.287   4.836   9.535  0.8226  0.3277  0.4336
 8804TIP3   OH250606   7.671   0.956  10.880  0.1389 -0.3164  0.0154
 8804TIP3    H150607   7.597   0.900  10.857  0.8150 -1.0357 -0.4852
 8804TIP3    H250608   7.719   0.966  10.798  0.4204  0.4104  0.2619
 8805TIP3   OH250609   2.966   4.176  10.199 -0.1379 -0.3036 -1.0954
 8805TIP3    H150610   2.896   4.215  10.146 -2.8435 -1.3676  1.4463
 8805TIP3    H250611   3.007   4.249  10.244 -1.9324  0.1143 -0.0613
 8806TIP3   OH250612   4.281   1.146  10.288  0.9113 -0.2403  0.0426
 8806TIP3    H150613   4.375   1.146  10.304  1.2433  1.9360 -1.4766
 8806TIP3    H250614   4.270   1.192  10.205 -1.5753  1.1488  1.0041
 8807TIP3   OH250615   6.419   7.851   8.718 -0.2570 -0.5192 -0.5115
 8807TIP3    H150616   6.420   7.791   8.644  2.2410 -1.7577  0.4141
 8807TIP3    H250617   6.495   7.908   8.704 -1.3728  1.0921 -0.2875
 8808TIP3   OH250618   0.905   7.192   9.344  0.3655  0.2110 -0.0891
 8808TIP3    H150619   0.887   7.129   9.274  0.5776 -1.0468  0.9582
 8808TIP3    H250620   1.000   7.204   9.342  0.3728  0.1653  0.0054
 8809TIP3   OH250621   1.904   6.465  10.678 -0.1546  0.0845  0.0097
 8809TIP3    H150622   1.820   6.468  10.723 -0.0609  0.3018  0.1698
 8809TIP3    H250623   1.954   6.399  10.726  0.1300  0.6842  0.5512
 8810TIP3   OH250624   3.979   0.225   8.685 -0.3153  0.1044  0.2104
 8810TIP3    H150625   3.944   0.193   8.602 -0.1997  0.1512  0.1435
 8810TIP3    H250626   3.942   0.165   8.750  2.3405 -2.2237 -0.1925
 8811TIP3   OH250627   1.073   0.110   8.810 -0.4628  0.2711  0.0374
 8811TIP3    H150628   1.097   0.053   8.737  1.3187  1.6600 -0.5165
 8811TIP3    H250629   0.990   0.150   8.783 -0.8211 -0.6831 -0.3317
 8812TIP3   OH250630   4.357   4.661   9.249 -0.4976 -0.1506 -0.5760
 8812TIP3    H150631   4.407   4.602   9.306 -1.5406  0.0110  0.5411
 8812TIP3    H250632   4.297   4.604   9.201 -2.2901  0.0308  1.3141
 8813TIP3   OH250633   7.137   1.555   9.542 -0.0313  0.0346 -0.1712
 8813TIP3    H150634   7.101   1.633   9.584  1.1467  0.2571  0.4639
 8813TIP3    H250635   7.177   1.505   9.613  0.4101 -0.4824 -0.7653
 8814TIP3   OH250636   6.989   1.146  10.636 -0.6014 -0.2504 -0.1138
 8814TIP3    H150637   6.924   1.129  10.703 -3.3946  0.4431 -2.4429
 8814TIP3    H250638   7.008   1.060  10.598 -1.3444 -0.2856 -0.4147
 8815TIP3   OH250639   1.555   2.269   8.587 -0.2070 -0.2063 -0.4689
 8815TIP3    H150640   1.572   2.358   8.620  1.7708 -0.9744  0.7974
 8815TIP3    H250641   1.461   2.257   8.598 -0.5050  1.6700 -0.5503
 8816TIP3   OH250642   4.479   8.423   9.670  0.0428  0.2298 -0.3055
 8816TIP3    H150643   4.442   8.353   9.615  1.8633  0.1631 -1.5159
 8816TIP3    H250644   4.417   8.495   9.660  0.3777  0.2765 -2.6461
 8817TIP3   OH250645   5.267   5.774   9.818 -0.6505 -0.3357 -0.7049
 8817TIP3    H150646   5.203   5.772   9.889  0.3684  0.4395  0.2768
 8817TIP3    H250647   5.223   5.732   9.744 -2.3165  0.2942 -0.1084
 8818TIP3   OH250648   0.005   3.605   9.778 -0.2001  0.2100  0.0282
 8818TIP3    H150649   0.090   3.593   9.819 -0.1585 -0.4481 -0.2376
 8818TIP3    H250650  -0.002   3.533   9.716 -0.6182  0.7145 -0.5160
 8819TIP3   OH250651   2.038   0.274   8.690 -0.1036  0.2470  0.2423
 8819TIP3    H150652   1.978   0.206   8.657  0.2460 -1.1142  2.1852
 8819TIP3    H250653   2.022   0.350   8.634 -0.0330 -1.6171 -2.4928
 8820TIP3   OH250654   3.361   4.490   9.299  0.0664 -0.1595 -0.4687
 8820TIP3    H150655   3.420   4.489   9.374 -0.4707  0.3487 -0.0340
 8820TIP3    H250656   3.412   4.530   9.229 -0.1264  1.3809  0.2288
 8821TIP3   OH250657   5.274   7.280   8.799  0.3869 -0.0950 -0.0595
 8821TIP3    H150658   5.325   7.312   8.873  0.3442  0.8696 -0.4377
 8821TIP3    H250659   5.283   7.184   8.803  0.5339 -0.0394  1.0675
 8822TIP3   OH250660   5.839   0.397  10.280  0.1422  0.1979  0.2081
 8822TIP3    H150661   5.896   0.350  10.340 -0.7248  0.8664  1.5903
 8822TIP3    H250662   5.784   0.329  10.241 -0.3921 -0.0834  1.4016
 8823TIP3   OH250663   0.779   6.397  10.703  0.1341  0.0566  0.2804
 8823TIP3    H150664   0.754   6.320  10.652 -0.2760  0.7252 -0.5582
 8823TIP3    H250665   0.874   6.390  10.712  0.5692  1.0719 -2.5929
 8824TIP3   OH250666   4.142   2.965   8.664 -0.2010  0.0052  0.5369
 8824TIP3    H150667   4.152   2.903   8.735  0.4088  1.1470  1.4796
 8824TIP3    H250668   4.079   3.030   8.697  0.7755  1.0501  0.4134
 8825TIP3   OH250669   4.449   7.754  10.702 -0.2525  0.5398  0.3559
 8825TIP3    H150670   4.368   7.726  10.658  0.5489  1.1981 -1.6529
 8825TIP3    H250671   4.435   7.847  10.720 -0.2861  0.4439  0.8260
 8826TIP3   OH250672   3.981   3.928   9.117  0.7433 -0.1196 -0.0270
 8826TIP3    H150673   3.977   4.010   9.167  1.9496 -0.5038  0.7594
 8826TIP3    H250674   3.992   3.956   9.026 -0.2637  0.5911  0.0501
 8827TIP3   OH250675   0.233   2.580  10.452  0.1091  0.1563 -0.1293
 8827TIP3    H150676   0.290   2.641  10.498 -2.3247  2.8039 -0.2931
 8827TIP3    H250677   0.148   2.588  10.496 -0.8829 -1.4987 -1.5631
 8828TIP3   OH250678   3.998   4.886  10.554 -0.0865 -0.3125 -0.0303
 8828TIP3    H150679   3.933   4.950  10.525 -1.1870 -0.6265  1.6325
 8828TIP3    H250680   3.947   4.812  10.585  1.0972 -0.8725  0.6508
 8829TIP3   OH250681   0.959   4.926   9.930 -0.3225 -0.3084  0.3683
 8829TIP3    H150682   0.899   4.977   9.875  0.1524  1.5173  1.4536
 8829TIP3    H250683   0.958   4.838   9.892 -1.5357  0.3814 -1.3106
 8830TIP3   OH250684   1.092   0.392   9.869 -0.1353  0.0232 -0.4924
 8830TIP3    H150685   1.026   0.385   9.938 -0.1501 -0.4227 -0.5520
 8830TIP3    H250686   1.042   0.390   9.787  0.0493 -1.8010 -0.5890
 8831TIP3   OH250687   0.975   7.560  10.900 -0.3317  0.3979  0.8468
 8831TIP3    H150688   0.931   7.616  10.963 -1.6123  1.4659 -0.9047
 8831TIP3    H250689   0.994   7.617  10.825 -0.9873 -1.2880 -0.6939
 8832TIP3   OH250690   4.337   0.202   9.578  0.2329  0.5025 -0.3093
 8832TIP3    H150691   4.306   0.143   9.509  2.1242  2.3875 -2.9905
 8832TIP3    H250692   4.282   0.280   9.569  0.1222  0.5615  0.7605
 8833TIP3   OH250693   4.994   3.858   9.277 -0.3305  0.0895 -0.4898
 8833TIP3    H150694   5.040   3.774   9.280 -0.6705 -0.0850  0.0453
 8833TIP3    H250695   4.974   3.871   9.185 -3.7761 -2.3852 -0.2953
 8834TIP3   OH250696   4.542   5.692   8.593  0.0869 -0.1795  0.3121
 8834TIP3    H150697   4.569   5.766   8.647  0.0722 -0.3306  0.5268
 8834TIP3    H250698   4.590   5.703   8.510  2.4858 -1.5719  1.3952
 8835TIP3   OH250699   4.256   4.987  10.448 -0.0675  0.2151 -0.1903
 8835TIP3    H150700   4.169   4.977  10.487 -1.7586  3.6288 -2.5456
 8835TIP3    H250701   4.313   5.008  10.522 -1.7328  0.1848  1.1829
 8836TIP3   OH250702   2.909   6.511   9.172 -0.2629 -0.8518  0.5860
 8836TIP3    H150703   2.820   6.545   9.183 -0.1777 -0.2384 -0.5400
 8836TIP3    H250704   2.931   6.530   9.081  0.4311 -2.4392  0.3965
 8837TIP3   OH250705   4.097   7.358  10.664 -0.2166  0.1794  0.0768
 8837TIP3    H150706   4.035   7.411  10.713 -0.8573 -1.0343  0.6211
 8837TIP3    H250707   4.050   7.277  10.644  1.8982 -1.9292  2.7627
 8838TIP3   OH250708   3.364   5.682  10.415 -0.2024 -0.0651  0.2421
 8838TIP3    H150709   3.342   5.775  10.415  2.7714  0.8334 -2.3800
 8838TIP3    H250710   3.432   5.673  10.482 -0.3774 -0.3135  0.3879
 8839TIP3   OH250711   6.309   5.397   9.046  0.3050  0.2830 -0.2106
 8839TIP3    H150712   6.379   5.336   9.025  0.7062 -0.3747  2.7474
 8839TIP3    H250713   6.230   5.343   9.049  0.6579 -0.2184  2.3903
 8840TIP3   OH250714   4.569   4.872   8.971 -0.2914  0.1016 -0.0317
 8840TIP3    H150715   4.536   4.795   8.926 -0.0911  0.2870 -0.4992
 8840TIP3    H250716   4.490   4.920   8.998 -0.4465 -0.9282  1.4456
 8841TIP3   OH250717   7.144   2.102  10.482 -0.0645  0.3449 -0.5505
 8841TIP3    H150718   7.075   2.142  10.428  1.2711  1.9323 -1.1594
 8841TIP3    H250719   7.221   2.157  10.468  0.6733  0.1141  2.0724
 8842TIP3   OH250720   1.771   2.714   9.531 -0.2145  0.3989  0.6170
 8842TIP3    H150721   1.849   2.683   9.577 -0.4766 -0.2495  0.6398
 8842TIP3    H250722   1.700   2.662   9.568 -0.4573 -0.0194 -0.3952
 8843TIP3   OH250723   6.840   4.563   8.885  0.0756  0.3506  0.3401
 8843TIP3    H150724   6.761   4.610   8.857 -1.5004 -2.5053 -0.3229
 8843TIP3    H250725   6.811   4.510   8.959  1.7509  0.2252  0.9357
 8844TIP3   OH250726   2.132   3.744   9.705  0.3558  0.4222 -0.0233
 8844TIP3    H150727   2.190   3.766   9.632 -1.1846  0.5181 -1.2736
 8844TIP3    H250728   2.191   3.710   9.773  1.9646  1.4875 -0.8264
 8845TIP3   OH250729   4.827   4.125   9.171 -0.1358  0.2255 -0.5014
 8845TIP3    H150730   4.852   4.217   9.185 -0.1309  0.1580 -0.0220
 8845TIP3    H250731   4.875   4.077   9.240 -0.2675 -0.1136 -0.6462
 8846TIP3   OH250732   0.217   5.721   9.582 -0.1553 -0.3615 -0.1483
 8846TIP3    H150733   0.131   5.721   9.540 -1.0038 -1.2607  1.4828
 8846TIP3    H250734   0.201   5.759   9.668  1.1065 -0.4775  0.1503
 8847TIP3   OH250735   2.315   6.618   9.338 -0.5317 -0.3817 -0.6952
 8847TIP3    H150736   2.410   6.616   9.349 -0.5365 -2.3450 -0.7043
 8847TIP3    H250737   2.300   6.689   9.275  0.8280  0.5447 -0.0313
 8848TIP3   OH250738   0.973   6.081  10.277  0.1561  0.4223 -0.3171
 8848TIP3    H150739   0.952   5.989  10.293  0.8401  0.4830  1.0615
 8848TIP3    H250740   0.888   6.122  10.260 -0.1161 -0.5223 -1.3549
 8849TIP3   OH250741   1.944   4.671   9.936 -0.4413 -0.0874  0.8550
 8849TIP3    H150742   1.891   4.592   9.936 -1.1028  0.3161 -0.4240
 8849TIP3    H250743   1.959   4.691  10.028 -0.5243 -1.5199  1.1915
 8850TIP3   OH250744   5.556   6.783   9.781  0.1792  0.5027  0.2991
 8850TIP3    H150745   5.524   6.757   9.695 -0.3046 -1.3455  0.9999
 8850TIP3    H250746   5.647   6.754   9.783  0.5679  1.6319  0.0011
 8851TIP3   OH250747   5.292   5.656  10.497 -0.4116  0.2848 -0.0319
 8851TIP3    H150748   5.276   5.564  10.517 -1.0774  0.1630 -1.0065
 8851TIP3    H250749   5.313   5.697  10.581 -0.3710 -0.7067  0.4441
 8852TIP3   OH250750   7.554   7.770  10.340 -0.0038 -0.2348 -0.1004
 8852TIP3    H150751   7.631   7.729  10.380 -0.7808  0.8439  2.6783
 8852TIP3    H250752   7.554   7.859  10.374 -1.6618  0.2476 -1.2722
 8853TIP3   OH250753   2.998   6.060   8.948 -0.5336 -0.5503 -0.0725
 8853TIP3    H150754   2.938   6.027   9.015 -1.5394  1.6535  0.1814
 8853TIP3    H250755   2.942   6.099   8.882  0.5373 -0.9686 -1.2764
 8854TIP3   OH250756   1.105   6.799   9.827 -0.2456 -0.1261 -0.6171
 8854TIP3    H150757   1.157   6.740   9.772 -2.1194 -1.1850 -1.3468
 8854TIP3    H250758   1.040   6.837   9.767  0.4315  2.1645 -0.0093
 8855TIP3   OH250759   0.964   6.674  10.553 -0.4323  0.4817 -0.4413
 8855TIP3    H150760   0.993   6.603  10.495 -0.5367 -0.8609  1.1087
 8855TIP3    H250761   1.038   6.689  10.612 -1.4353 -0.3089  1.0603
 8856TIP3   OH250762   1.559   2.913  10.009 -0.4000 -0.1441  0.4441
 8856TIP3    H150763   1.553   2.818  10.017 -0.4723 -0.1314  0.5403
 8856TIP3    H250764   1.639   2.927   9.958  0.6132 -0.1939  1.9572
 8857TIP3   OH250765   1.642   6.619   8.838 -0.3943 -0.8348 -0.3339
 8857TIP3    H150766   1.614   6.657   8.921  1.0377  0.2641 -0.3009
 8857TIP3    H250767   1.642   6.524   8.853  1.0104 -0.6101  1.3435
 8858TIP3   OH250768   3.356   2.635  10.397 -0.6945 -0.0375 -0.0036
 8858TIP3    H150769   3.385   2.545  10.379 -1.0032 -0.4199  1.2762
 8858TIP3    H250770   3.382   2.685  10.319  4.1155 -0.1314  1.2328
 8859TIP3   OH250771   2.277   2.626   9.701 -0.2136 -0.9068 -0.5703
 8859TIP3    H150772   2.302   2.534   9.711  1.9512 -0.2926  0.3088
 8859TIP3    H250773   2.244   2.651   9.787  0.2777 -0.5845 -0.4704
 8860TIP3   OH250774   7.620   5.606   8.913  0.6185 -0.1999 -0.8585
 8860TIP3    H150775   7.662   5.520   8.917  0.3803 -0.2706  1.0580
 8860TIP3    H250776   7.527   5.587   8.901  0.3573 -0.3083  1.0961
 8861TIP3   OH250777   1.216   4.697  10.463 -0.0152 -0.1072  0.4435
 8861TIP3    H150778   1.232   4.625  10.401  0.8716  1.9342 -1.8470
 8861TIP3    H250779   1.178   4.767  10.409  0.3403  1.6231  2.3213
 8862TIP3   OH250780   6.011   6.740  10.838 -0.1319 -0.4731 -0.2179
 8862TIP3    H150781   6.054   6.776  10.916 -0.6470 -0.1629 -0.0746
 8862TIP3    H250782   5.984   6.652  10.864 -1.6206  0.1527  0.4551
 8863TIP3   OH250783   5.504   6.668   9.531 -0.1655 -0.2396 -0.6189
 8863TIP3    H150784   5.574   6.654   9.467 -0.8023 -0.4203 -1.2959
 8863TIP3    H250785   5.432   6.703   9.479  0.0812  1.9094  0.3852
 8864TIP3   OH250786   6.542   1.265  10.679  0.0272 -0.2913  0.0430
 8864TIP3    H150787   6.585   1.346  10.652 -0.5160 -0.0186 -0.0152
 8864TIP3    H250788   6.453   1.291  10.701  0.0692 -0.7404  0.7842
 8865TIP3   OH250789   1.298   1.997   8.959 -0.1377 -0.0512  0.0869
 8865TIP3    H150790   1.361   2.060   8.994  0.8323 -0.6757 -0.5014
 8865TIP3    H250791   1.295   2.015   8.865  0.5455 -1.1897 -0.1788
 8866TIP3   OH250792   1.360   3.299   8.648 -0.6419  0.1667 -0.0861
 8866TIP3    H150793   1.363   3.214   8.691 -2.0530 -0.3732 -0.9649
 8866TIP3    H250794   1.267   3.323   8.650 -0.2449  1.7787  0.2912
 8867TIP3   OH250795   7.650   6.289   8.824  0.1564 -0.0319  0.2168
 8867TIP3    H150796   7.555   6.283   8.812  0.3887 -0.0504 -1.9639
 8867TIP3    H250797   7.669   6.226   8.894 -1.3925 -0.2180  0.5175
 8868TIP3   OH250798   5.146   5.007   9.687 -0.3149 -0.4711 -0.6191
 8868TIP3    H150799   5.151   4.973   9.598 -2.2547 -0.0009 -0.9497
 8868TIP3    H250800   5.237   5.003   9.719  0.4233 -0.6526 -2.5875
 8869TIP3   OH250801   7.193   8.337  10.742  0.1607 -0.2409 -0.9864
 8869TIP3    H150802   7.227   8.271  10.802 -0.9974 -1.3429 -1.4933
 8869TIP3    H250803   7.129   8.385  10.793  0.7824  0.3112 -0.7089
 8870TIP3   OH250804   0.642   7.654  10.262 -0.1372 -0.5259 -1.2381
 8870TIP3    H150805   0.637   7.567  10.303 -0.1934  0.0219 -0.0512
 8870TIP3    H250806   0.572   7.704  10.303  2.9598  1.6285  1.9116
 8871TIP3   OH250807   4.399   3.897   9.025 -0.4603  0.4205 -0.3952
 8871TIP3    H150808   4.400   3.991   9.010  1.0882  0.4647 -0.1884
 8871TIP3    H250809   4.474   3.880   9.082 -0.2778 -1.0115 -0.9990
 8872TIP3   OH250810   4.278   5.383  10.467 -0.0430  0.6844  0.0628
 8872TIP3    H150811   4.320   5.325  10.530 -0.0622 -0.0680 -0.5919
 8872TIP3    H250812   4.268   5.466  10.513 -0.2141  0.1076  1.0945
 8873TIP3   OH250813   3.709   6.742   9.914  0.2202  0.2923  0.1510
 8873TIP3    H150814   3.788   6.784   9.881 -0.2439  0.7241 -0.4432
 8873TIP3    H250815   3.701   6.773  10.004  0.9508 -0.0923  0.3565
 8874TIP3   OH250816   5.071   4.570   9.458 -0.0800  0.0509  0.4870
 8874TIP3    H150817   5.143   4.523   9.499  1.4465  0.1441 -1.8818
 8874TIP3    H250818   5.031   4.506   9.399  2.5750  1.6708 -3.4526
 8875TIP3   OH250819   2.258   3.554   9.488 -0.7422 -0.3520  1.0679
 8875TIP3    H150820   2.287   3.499   9.560  2.2315  0.2463  0.4741
 8875TIP3    H250821   2.314   3.632   9.493 -0.1472 -0.4268 -1.9802
 8876TIP3   OH250822   2.601   3.213   9.797 -0.2760  0.0944  0.0036
 8876TIP3    H150823   2.631   3.143   9.740  1.4959 -0.3900  1.4438
 8876TIP3    H250824   2.641   3.293   9.762  0.1560 -0.0833  0.0870
 8877TIP3   OH250825   6.505   5.125  10.320  0.1952  0.2591  0.0573
 8877TIP3    H150826   6.447   5.126  10.397  1.6286  0.2544  1.1710
 8877TIP3    H250827   6.526   5.217  10.305  2.2031  0.0913  1.4969
 8878TIP3   OH250828   5.088   5.493   8.942 -0.0646 -0.4529  0.3573
 8878TIP3    H150829   5.010   5.438   8.943  0.7315 -1.6382  0.7626
 8878TIP3    H250830   5.059   5.576   8.904 -1.5132 -0.8441  0.5440
 8879TIP3   OH250831   7.068   3.758   9.887  0.0550 -0.1734 -0.1779
 8879TIP3    H150832   7.060   3.667   9.916 -1.5802  0.0873  0.2616
 8879TIP3    H250833   7.100   3.805   9.964 -1.3880  0.0032  0.3415
 8880TIP3   OH250834   1.441   7.586   8.632  0.2781 -0.3204  0.2383
 8880TIP3    H150835   1.417   7.676   8.654  1.2189  0.4393 -1.5943
 8880TIP3    H250836   1.360   7.546   8.601  0.1330  0.3508 -0.2632
 8881TIP3   OH250837   6.022   7.754   8.899 -0.3222  0.0252  0.0302
 8881TIP3    H150838   6.016   7.708   8.983 -1.2947  1.9477  1.0718
 8881TIP3    H250839   5.953   7.715   8.845 -1.1754  0.2831  0.9097
 8882TIP3   OH250840   4.506   3.256   9.766  0.2977 -0.2791  0.4145
 8882TIP3    H150841   4.502   3.179   9.823 -1.5416 -0.6642 -0.1783
 8882TIP3    H250842   4.444   3.237   9.696  1.4476  0.8063 -0.9630
 8883TIP3   OH250843   1.864   1.271   9.105 -0.6356  0.0386 -0.6780
 8883TIP3    H150844   1.821   1.354   9.087  0.5624  0.9785  0.5744
 8883TIP3    H250845   1.956   1.287   9.088 -0.4777 -1.2991 -1.2299
 8884TIP3   OH250846   0.183   5.987   9.937 -0.2371  0.5147  0.5555
 8884TIP3    H150847   0.164   5.894   9.924  0.5697  0.3336  0.6053
 8884TIP3    H250848   0.147   6.007  10.023  0.3754  0.0146  0.9360
 8885TIP3   OH250849   6.144   1.517  10.887 -0.5415 -0.0193  0.0708
 8885TIP3    H150850   6.186   1.431  10.885  0.0768  0.2795 -1.7981
 8885TIP3    H250851   6.053   1.499  10.910 -0.1274 -1.0261  0.9950
 8886TIP3   OH250852   6.830   6.712  10.888 -0.1048  0.0129 -0.1752
 8886TIP3    H150853   6.869   6.726  10.802  1.6914 -2.8049  0.0630
 8886TIP3    H250854   6.844   6.796  10.934  0.1027  1.1214 -2.1480
 8887TIP3   OH250855   8.150   4.051   9.290 -0.1872 -0.0875 -0.0886
 8887TIP3    H150856   8.101   4.072   9.368  1.1618  0.7421  0.5748
 8887TIP3    H250857   8.236   4.024   9.322 -0.0918 -1.2337 -1.2143
 8888TIP3   OH250858   6.215   0.329   9.739  0.0630  0.4403  0.0553
 8888TIP3    H150859   6.196   0.350   9.830 -1.6814  1.2345 -0.4579
 8888TIP3    H250860   6.216   0.234   9.735 -1.0668  0.3947  0.6740
 8889TIP3   OH250861   0.922   0.444   9.026 -0.1220  0.0909 -0.5195
 8889TIP3    H150862   0.978   0.423   8.951  2.3230  2.2729  0.5492
 8889TIP3    H250863   0.896   0.535   9.012 -0.1245  0.3468  0.9550
 8890TIP3   OH250864   7.512   6.069   9.351 -0.7776  0.1299 -0.0680
 8890TIP3    H150865   7.533   6.072   9.258  0.6827 -1.9777  0.1380
 8890TIP3    H250866   7.472   5.983   9.364  0.9563 -0.4776  1.5842
 8891TIP3   OH250867   4.894   6.056   9.522 -0.1944 -0.0028  0.6639
 8891TIP3    H150868   4.883   6.151   9.520  0.6901  0.1056  0.5080
 8891TIP3    H250869   4.948   6.039   9.599  3.9014  0.1653 -1.8185
 8892TIP3   OH250870   8.036   5.495   9.580 -0.1386  0.5998  0.8455
 8892TIP3    H150871   7.982   5.440   9.523  0.8589 -2.1209  2.3100
 8892TIP3    H250872   7.984   5.574   9.595 -2.8808 -1.0381  0.6662
 8893TIP3   OH250873   5.022   7.641  10.653 -0.6012 -0.4446 -0.2354
 8893TIP3    H150874   4.997   7.723  10.693  0.5252  0.7447 -1.8317
 8893TIP3    H250875   5.082   7.601  10.715  0.4707  0.9572 -0.3226
 8894TIP3   OH250876   1.715   7.324   9.909  0.3428  0.2649  0.1918
 8894TIP3    H150877   1.738   7.322   9.817  0.3011  0.1043  0.1854
 8894TIP3    H250878   1.685   7.235   9.929  0.7262  0.1919  0.4579
 8895TIP3   OH250879   3.568   1.189  10.770  0.0088 -0.0565 -0.0418
 8895TIP3    H150880   3.480   1.179  10.808 -0.0531  1.3222  0.2555
 8895TIP3    H250881   3.585   1.106  10.726 -1.7385 -0.1228 -0.6800
 8896TIP3   OH250882   4.335   1.980   9.075 -0.0039 -0.4359  0.1200
 8896TIP3    H150883   4.310   2.072   9.084 -0.7369 -0.5231 -0.8178
 8896TIP3    H250884   4.304   1.938   9.155 -1.5151 -0.2346 -0.3146
 8897TIP3   OH250885   4.631   0.037   9.197  0.0886  0.4497 -0.6811
 8897TIP3    H150886   4.576  -0.009   9.260 -0.0504 -1.7706 -2.2879
 8897TIP3    H250887   4.720   0.026   9.229 -0.1009  0.6799 -0.0747
 8898TIP3   OH250888   4.483   0.361  10.434  0.4193  0.6755 -0.5046
 8898TIP3    H150889   4.574   0.373  10.460  0.2974  0.7172 -0.0960
 8898TIP3    H250890   4.432   0.408  10.500  0.1137  0.9378 -0.9215
 8899TIP3   OH250891   3.615   5.241  10.040 -0.2258 -0.1855 -0.1656
 8899TIP3    H150892   3.563   5.222  10.118  1.4310  0.5839  1.1958
 8899TIP3    H250893   3.553   5.234   9.967 -2.2258  0.7313  1.3533
 8900TIP3   OH250894   7.227   4.787   9.876 -0.0740  0.7776  0.0968
 8900TIP3    H150895   7.169   4.762   9.948  0.7170  1.7334  1.0960
 8900TIP3    H250896   7.201   4.730   9.803 -1.2857  0.1990  0.9492
 8901TIP3   OH250897   1.861   6.751   8.596 -0.2269  0.0076 -0.1109
 8901TIP3    H150898   1.935   6.720   8.545 -0.4387  0.4849 -0.7326
 8901TIP3    H250899   1.898   6.774   8.681 -0.1175 -2.1917  0.4908
 8902TIP3   OH250900   3.597   2.761  10.485  0.3057  0.4257  0.4289
 8902TIP3    H150901   3.571   2.841  10.531 -1.1260  0.2310  0.0062
 8902TIP3    H250902   3.517   2.732  10.441  0.3571 -2.1491  1.8812
 8903TIP3   OH250903   3.411   8.415  10.321 -0.0469  0.3665 -0.0398
 8903TIP3    H150904   3.398   8.487  10.383  1.4722  0.7620 -0.1420
 8903TIP3    H250905   3.454   8.346  10.371  0.5735  0.4227 -0.4833
 8904TIP3   OH250906   2.742   4.795  10.166  0.2199 -0.1899 -0.4118
 8904TIP3    H150907   2.724   4.890  10.167  0.1067 -0.1896  1.7962
 8904TIP3    H250908   2.734   4.771  10.074 -0.0839  1.8892 -0.9925
 8905TIP3   OH250909   6.696   1.016  10.608  0.0414 -0.4632 -0.0322
 8905TIP3    H150910   6.723   1.067  10.531  1.6321 -0.9168  0.1871
 8905TIP3    H250911   6.735   1.062  10.682  0.1731 -1.1205  0.3105
 8906TIP3   OH250912   2.685   0.764  10.167  0.0454  0.0973  0.3792
 8906TIP3    H150913   2.757   0.826  10.161  1.1650 -1.1727  0.0995
 8906TIP3    H250914   2.724   0.684  10.202 -1.5823 -0.1342  1.8302
 8907TIP3   OH250915   0.064   1.952   9.245  0.2903 -0.3032  0.1266
 8907TIP3    H150916   0.157   1.965   9.258  0.2987 -0.5921  0.3643
 8907TIP3    H250917   0.051   1.962   9.150  0.6488 -0.7733  0.0226
 8908TIP3   OH250918   6.621   2.168   9.132 -0.2313 -0.0760 -0.2689
 8908TIP3    H150919   6.660   2.253   9.110 -1.1588  0.1585 -1.0972
 8908TIP3    H250920   6.572   2.144   9.053 -0.4842 -1.0893  0.1871
 8909TIP3   OH250921   8.277   6.571   9.297 -0.0508  0.2581 -0.0607
 8909TIP3    H150922   8.234   6.647   9.257 -1.3217  0.8386  2.2265
 8909TIP3    H250923   8.312   6.522   9.223 -0.4866  2.2955 -1.7188
 8910TIP3   OH250924   6.667   0.386  10.888 -0.2182  0.4367  0.5088
 8910TIP3    H150925   6.738   0.441  10.855  0.6644 -1.0130 -0.1278
 8910TIP3    H250926   6.590   0.442  10.884  0.4930  1.3833 -0.8701
 8911TIP3   OH250927   5.054   0.316   9.516  0.1046  0.1574 -0.0070
 8911TIP3    H150928   5.093   0.395   9.553 -0.2298 -0.3409  1.4542
 8911TIP3    H250929   4.971   0.345   9.479  0.3686  0.6312 -0.2432
 8912TIP3   OH250930   7.990   7.462   8.895  0.2018 -0.1378  0.1566
 8912TIP3    H150931   8.013   7.438   8.985  0.8094  1.1760  0.3666
 8912TIP3    H250932   8.029   7.392   8.842  0.3106 -0.6352  0.8762
 8913TIP3   OH250933   2.709   3.758   9.198  0.7370 -0.0391  0.3366
 8913TIP3    H150934   2.780   3.799   9.247  1.0084 -0.7087  0.5045
 8913TIP3    H250935   2.630   3.801   9.230  1.1295  1.4977 -0.6303
 8914TIP3   OH250936   2.789   2.185  10.371  0.2997  0.2118  0.4917
 8914TIP3    H150937   2.833   2.258  10.328  0.4354  0.4429  1.0073
 8914TIP3    H250938   2.720   2.227  10.423 -0.4397 -0.1355 -0.1928
 8915TIP3   OH250939   2.708   5.055  10.100 -0.2820 -0.3625  0.4797
 8915TIP3    H150940   2.613   5.056  10.106 -0.4705  1.4818 -1.6021
 8915TIP3    H250941   2.730   5.133  10.048  2.3466 -0.8799  0.6698
 8916TIP3   OH250942   2.393   6.502  10.735  0.0607  0.2514  0.3050
 8916TIP3    H150943   2.305   6.502  10.695  0.0486 -3.0521 -0.0030
 8916TIP3    H250944   2.395   6.581  10.788 -2.5900  1.1721 -0.7551
 8917TIP3   OH250945   4.600   6.431   8.812 -0.2252 -0.1750 -0.4455
 8917TIP3    H150946   4.581   6.481   8.732  0.1802 -0.6565 -0.8526
 8917TIP3    H250947   4.518   6.431   8.861  0.0526  1.8305  0.0994
 8918TIP3   OH250948   6.439   0.609   8.955  0.3908  0.0169  0.3661
 8918TIP3    H150949   6.435   0.700   8.925  0.1557 -0.6053 -1.6324
 8918TIP3    H250950   6.383   0.561   8.894  1.0744 -1.5786  0.9405
 8919TIP3   OH250951   6.504   0.889  11.053  0.6846  0.6386  0.0118
 8919TIP3    H150952   6.600   0.885  11.054  0.6753 -1.6840 -1.5664
 8919TIP3    H250953   6.483   0.946  10.979  0.9321 -2.2240 -2.4175
 8920TIP3   OH250954   0.355   3.072  10.513 -0.1246  0.2056 -0.5929
 8920TIP3    H150955   0.360   3.039  10.603  1.0358  0.4835 -0.5307
 8920TIP3    H250956   0.447   3.081  10.486 -0.4553  0.2803 -1.7529
 8921TIP3   OH250957   1.253   8.013  10.413 -0.4115  0.0442  0.1229
 8921TIP3    H150958   1.236   8.100  10.377 -0.2803 -0.3946 -1.0260
 8921TIP3    H250959   1.348   8.012  10.428 -0.1751 -0.4314 -1.3189
 8922TIP3   OH250960   8.255   7.320  10.005  0.2331 -0.1601  0.8981
 8922TIP3    H150961   8.254   7.277   9.919  0.1287  2.0786 -0.3078
 8922TIP3    H250962   8.174   7.372  10.007  1.2503  1.4907  1.3985
 8923TIP3   OH250963   3.241   2.121  10.855  0.0168 -0.2314  0.5001
 8923TIP3    H150964   3.315   2.069  10.823 -0.9082 -0.6193 -1.1031
 8923TIP3    H250965   3.269   2.151  10.941  3.0715  1.6522 -0.9796
 8924TIP3   OH250966   6.025   7.819  10.321  0.0312 -0.6770 -0.7197
 8924TIP3    H150967   6.025   7.906  10.283 -0.6206  0.4369  1.6755
 8924TIP3    H250968   5.939   7.783  10.299  0.4060 -0.8755 -1.9526
 8925TIP3   OH250969   0.932   3.793   8.959  0.2225 -0.4041 -0.2572
 8925TIP3    H150970   1.023   3.764   8.952  0.5273  0.3586  0.3974
 8925TIP3    H250971   0.925   3.825   9.049 -0.6494 -0.2949 -0.3616
 8926TIP3   OH250972   6.611   4.554   9.740  0.0880  0.0884  0.1724
 8926TIP3    H150973   6.582   4.553   9.649  0.5213 -2.2869  0.0079
 8926TIP3    H250974   6.697   4.597   9.737 -0.1876  0.6139 -0.4178
 8927TIP3   OH250975   7.632   7.667   9.371 -0.2666 -0.0495 -0.0948
 8927TIP3    H150976   7.661   7.756   9.350  0.3278 -0.4055 -0.8560
 8927TIP3    H250977   7.538   7.676   9.386 -0.6480  0.4021 -2.3084
 8928TIP3   OH250978   6.668   3.126   9.570  0.2806  0.0421  0.1042
 8928TIP3    H150979   6.646   3.059   9.635  1.5768 -0.9247 -0.4156
 8928TIP3    H250980   6.678   3.206   9.622 -0.9042 -0.2296  0.7896
 8929TIP3   OH250981   7.838   2.500   9.583  0.2287  0.2590  0.3769
 8929TIP3    H150982   7.909   2.547   9.539 -0.8079  2.1555  0.6321
 8929TIP3    H250983   7.771   2.489   9.515  0.4457 -0.8583  0.3304
 8930TIP3   OH250984   8.178   2.046   9.639 -0.1016  0.1992 -0.1303
 8930TIP3    H150985   8.083   2.057   9.647  0.1310  2.3031  0.4968
 8930TIP3    H250986   8.196   2.059   9.546 -0.4729 -0.8119 -0.3512
 8931TIP3   OH250987   4.317   0.790   9.291 -0.1746  0.0853  0.2200
 8931TIP3    H150988   4.341   0.823   9.378 -0.6673 -0.9029  0.7493
 8931TIP3    H250989   4.228   0.756   9.303  0.6924 -2.4589  0.0192
 8932TIP3   OH250990   6.985   0.384   8.867  0.3064 -0.0287 -0.0208
 8932TIP3    H150991   7.080   0.378   8.866  0.3374  0.4357 -0.4578
 8932TIP3    H250992   6.955   0.295   8.854  0.6878 -0.1212 -0.2967
 8933TIP3   OH250993   0.590   3.005   9.161  0.8873 -0.3882 -0.3981
 8933TIP3    H150994   0.685   3.019   9.165  0.9822 -1.3517  1.7959
 8933TIP3    H250995   0.567   2.971   9.247 -1.6239  0.7246 -0.5601
 8934TIP3   OH250996   6.196   3.763  10.643  0.0872  0.1295  0.0633
 8934TIP3    H150997   6.242   3.775  10.560 -0.0778 -1.2369 -0.2563
 8934TIP3    H250998   6.113   3.811  10.632  1.5407  3.0411  0.8315
 8935TIP3   OH250999   2.159   4.581  10.309  0.4787  0.7434  0.5279
 8935TIP3    H151000   2.176   4.625  10.392 -0.5557 -0.3629  1.3722
 8935TIP3    H251001   2.237   4.528  10.293  0.7895  1.1591  0.6639
 8936TIP3   OH251002   0.425   2.566   9.132 -0.3610  0.2182  0.1540
 8936TIP3    H151003   0.336   2.592   9.155 -1.2974 -2.0568 -0.5639
 8936TIP3    H251004   0.450   2.622   9.059 -1.6017  0.2438 -0.2605
 8937TIP3   OH251005   7.506   0.459   9.267 -0.3646 -0.3826  0.2094
 8937TIP3    H151006   7.573   0.516   9.304 -0.1223 -1.3120  1.2503
 8937TIP3    H251007   7.434   0.462   9.330 -1.2710  0.4939 -0.8286
 8938TIP3   OH251008   3.348   1.265  10.438 -0.9673 -0.0896 -0.2602
 8938TIP3    H151009   3.369   1.284  10.347 -0.5676  1.9567  0.2032
 8938TIP3    H251010   3.293   1.338  10.466  2.3775  1.7483  2.2736
 8939TIP3   OH251011   5.856   8.026   8.898 -0.8949  0.1424  0.1112
 8939TIP3    H151012   5.863   7.931   8.908  2.2566  0.3079  0.3369
 8939TIP3    H251013   5.864   8.041   8.804 -1.0060  0.2280  0.1146
 8940TIP3   OH251014   2.483   3.032   9.475 -0.0518 -0.2465 -0.3685
 8940TIP3    H151015   2.491   2.955   9.420 -0.8713 -1.7779  1.5274
 8940TIP3    H251016   2.392   3.031   9.505 -0.1189  1.5518 -0.4019
 8941TIP3   OH251017   2.373   2.195  10.238 -0.1695  0.4977 -0.0368
 8941TIP3    H151018   2.328   2.110  10.240  0.6333 -0.0076 -1.6145
 8941TIP3    H251019   2.406   2.207  10.327 -0.6627 -0.6394  0.3178
 8942TIP3   OH251020   2.686   0.785   9.760 -0.8457  0.2582 -0.0538
 8942TIP3    H151021   2.725   0.732   9.829 -1.5602 -1.1918 -0.7224
 8942TIP3    H251022   2.752   0.851   9.740  0.4989 -0.9726  0.1357
 8943TIP3   OH251023   6.759   4.187  11.041  0.0021  0.4981  0.1556
 8943TIP3    H151024   6.777   4.094  11.052  0.2773  0.3594 -1.1913
 8943TIP3    H251025   6.836   4.231  11.078  0.2170  0.1563  0.1191
 8944TIP3   OH251026   1.180   5.665   9.567  0.1005  1.0272  0.3137
 8944TIP3    H151027   1.226   5.749   9.570 -0.9305  1.5944  0.5592
 8944TIP3    H251028   1.197   5.625   9.653 -0.6648  1.6734  0.7716
 8945TIP3   OH251029   3.328   2.759   8.554 -0.1295  0.4159 -0.6035
 8945TIP3    H151030   3.316   2.818   8.480 -0.2682 -0.3389 -1.1947
 8945TIP3    H251031   3.262   2.691   8.543 -0.6540  0.6955  0.6397
 8946TIP3   OH251032   5.224   2.988  10.527  0.1359 -0.4880 -0.2712
 8946TIP3    H151033   5.248   3.039  10.604 -1.2445  0.4669 -0.4365
 8946TIP3    H251034   5.308   2.965  10.486  0.8418  0.0649  0.8231
 8947TIP3   OH251035   8.084   1.539   9.676 -0.5964 -0.6194  0.1955
 8947TIP3    H151036   7.998   1.517   9.640 -1.1689  0.0816  1.0641
 8947TIP3    H251037   8.147   1.493   9.621 -1.5354 -1.1562 -0.4453
 8948TIP3   OH251038   5.284   6.228   8.727  0.4397  0.0220  0.2194
 8948TIP3    H151039   5.257   6.150   8.774 -2.1887 -0.3272 -1.6448
 8948TIP3    H251040   5.365   6.203   8.682  1.8065 -0.2823  2.6727
 8949TIP3   OH251041   1.364   6.322   9.225 -0.3352 -0.2329  0.8939
 8949TIP3    H151042   1.455   6.299   9.206 -0.1486  0.3300  1.0823
 8949TIP3    H251043   1.355   6.314   9.319  0.1289  1.7469  1.1591
 8950TIP3   OH251044   1.703   7.769  10.803 -0.1486  0.4582  0.1173
 8950TIP3    H151045   1.615   7.770  10.839 -1.0433 -1.3583 -1.7867
 8950TIP3    H251046   1.751   7.707  10.858 -0.5642  0.1548  0.1442
 8951TIP3   OH251047   6.562   5.403  10.227  0.1304 -1.1689  0.1855
 8951TIP3    H151048   6.621   5.478  10.235  0.7964 -1.7698  1.0162
 8951TIP3    H251049   6.475   5.443  10.217  0.3445 -0.2600  1.6090
 8952TIP3   OH251050   3.783   6.001   9.862 -0.0490 -0.0700 -0.3677
 8952TIP3    H151051   3.800   6.060   9.789  0.2542 -0.3971 -0.5668
 8952TIP3    H251052   3.865   5.998   9.911 -0.3193  0.3166  0.1114
 8953TIP3   OH251053   1.190   7.197   9.312 -0.0182  0.3949  0.0138
 8953TIP3    H151054   1.238   7.269   9.353  1.3706 -1.4288  1.8693
 8953TIP3    H251055   1.247   7.121   9.324 -1.6222 -1.1189 -1.3904
 8954TIP3   OH251056   2.022   2.091   8.906 -0.1563 -0.6169  0.0435
 8954TIP3    H151057   2.010   2.181   8.937 -2.5246 -0.8824  0.0378
 8954TIP3    H251058   2.060   2.045   8.981 -0.8790 -0.0704  0.7621
 8955TIP3   OH251059   4.143   6.526   9.221  0.0245 -0.7521  0.1151
 8955TIP3    H151060   4.058   6.562   9.245  1.4542  3.8874 -0.8733
 8955TIP3    H251061   4.176   6.486   9.301 -1.2421  1.3779  1.7976
 8956TIP3   OH251062   4.248   1.215  10.598 -0.4968  0.0732  0.1230
 8956TIP3    H151063   4.158   1.224  10.566 -0.2588 -0.7685 -0.8374
 8956TIP3    H251064   4.264   1.121  10.597  0.4645  0.2311  0.0885
 8957TIP3   OH251065   5.049   2.769  11.298 -0.4571  0.4539  0.2049
 8957TIP3    H151066   5.122   2.813  11.253 -0.7483  0.3995 -0.3249
 8957TIP3    H251067   5.008   2.838  11.349 -1.4727  1.0321 -1.3291
 8958TIP3   OH251068   7.949   0.423  10.170 -0.3041  0.4745  0.1759
 8958TIP3    H151069   7.896   0.422  10.250  0.1135 -0.4214  0.4496
 8958TIP3    H251070   8.020   0.484  10.189  0.7452 -1.0022  1.1294
 8959TIP3   OH251071   0.738   3.555   9.633  0.5006 -0.7277  0.2779
 8959TIP3    H151072   0.706   3.609   9.560 -0.5746 -2.8515 -0.9237
 8959TIP3    H251073   0.785   3.616   9.689 -1.6645  1.6916 -0.3470
 8960TIP3   OH251074   3.504   1.002   9.617 -0.2657 -0.5079 -0.1853
 8960TIP3    H151075   3.518   0.929   9.677  0.2890  0.6811  1.1947
 8960TIP3    H251076   3.422   1.043   9.646  1.3964  1.7710  1.6886
 8961TIP3   OH251077   6.558   0.160  11.139  0.0838 -0.8223 -0.7422
 8961TIP3    H151078   6.491   0.227  11.143  0.1052 -0.8434  2.1454
 8961TIP3    H251079   6.510   0.078  11.125 -0.2008 -0.5573 -1.3546
 8962TIP3   OH251080   3.236   7.026   8.952  0.0587 -0.1591 -0.6952
 8962TIP3    H151081   3.291   7.024   9.030 -0.6391  2.2533 -0.0288
 8962TIP3    H251082   3.258   6.947   8.904  0.8580 -1.4841  1.7127
 8963TIP3   OH251083   4.535   3.263  10.839 -0.2038 -0.4800 -0.1163
 8963TIP3    H151084   4.629   3.277  10.826  0.0895 -1.3002  0.9755
 8963TIP3    H251085   4.493   3.322  10.776  1.0425 -0.7170 -1.2192
 8964TIP3   OH251086   6.132   4.451   9.999  0.3732  0.1428 -0.3911
 8964TIP3    H151087   6.079   4.529  10.014 -0.4185 -0.3556 -0.5425
 8964TIP3    H251088   6.209   4.484   9.951  0.5075  0.9612  0.3600
 8965TIP3   OH251089   8.005   5.703   9.860  0.3424  0.0361 -0.0457
 8965TIP3    H151090   7.953   5.700   9.780 -0.3666  1.5786  0.3022
 8965TIP3    H251091   7.978   5.626   9.910  1.3092 -1.3258 -1.5599
 8966TIP3   OH251092   3.163   5.347  10.492 -0.2714  0.0180  0.0798
 8966TIP3    H151093   3.130   5.383  10.574 -0.2287 -0.4655  0.3142
 8966TIP3    H251094   3.236   5.291  10.518 -0.3444 -0.2479 -0.2745
 8967TIP3   OH251095   1.651   2.636   9.983  0.7236 -0.1776 -0.0852
 8967TIP3    H151096   1.630   2.546  10.008  1.1919 -0.8280 -1.8688
 8967TIP3    H251097   1.744   2.633   9.959  0.5852  0.6463 -0.7596
 8968TIP3   OH251098   2.431   1.139  10.244 -0.5361 -0.1081 -0.8851
 8968TIP3    H151099   2.521   1.143  10.274 -1.0484  1.2785  0.6227
 8968TIP3    H251100   2.383   1.197  10.304 -3.1090 -3.5845  0.7433
 8969TIP3   OH251101   7.716   6.608  10.315 -0.0989  0.4819  0.1138
 8969TIP3    H151102   7.704   6.694  10.354 -0.3443  1.1334 -1.3268
 8969TIP3    H251103   7.634   6.562  10.331 -0.2249  0.7671  0.2870
 8970TIP3   OH251104   3.606   1.391   9.345  0.5091 -0.5897 -0.0316
 8970TIP3    H151105   3.544   1.386   9.418  2.3712 -1.8306  1.5938
 8970TIP3    H251106   3.687   1.424   9.386  1.6144 -1.3066 -1.5451
 8971TIP3   OH251107   8.223   3.016  10.734 -0.3561  0.9754 -0.3798
 8971TIP3    H151108   8.146   2.961  10.742 -0.3044  0.7085 -1.5920
 8971TIP3    H251109   8.208   3.067  10.654  1.8021 -0.8836 -2.1190
 8972TIP3   OH251110   5.894   2.392   8.754 -0.1520  0.1765  0.1844
 8972TIP3    H151111   5.928   2.341   8.681 -0.7878  0.1097 -0.0743
 8972TIP3    H251112   5.926   2.481   8.738  0.5715 -0.0382  0.3879
 8973TIP3   OH251113   6.842   2.802  10.019  0.7147 -0.6336 -0.4490
 8973TIP3    H151114   6.929   2.767  10.037  0.9739  0.7953  1.4725
 8973TIP3    H251115   6.857   2.879   9.965  0.7976  0.2015  0.7119
 8974TIP3   OH251116   2.097   6.432   9.256 -0.4072  0.1253 -0.7212
 8974TIP3    H151117   2.145   6.502   9.299 -0.5526  0.3125 -0.8638
 8974TIP3    H251118   2.139   6.422   9.171 -1.8545  1.6570 -1.6814
 8975TIP3   OH251119   7.704   7.133  10.219 -0.1129 -0.1584 -0.0176
 8975TIP3    H151120   7.620   7.177  10.227  0.1973  0.3093  0.8819
 8975TIP3    H251121   7.769   7.203  10.225  0.3750 -0.6727  1.0251
 8976TIP3   OH251122   3.212   5.697  10.020 -0.2841  0.0687  0.4943
 8976TIP3    H151123   3.224   5.623  10.080 -1.2569  0.3090  1.0031
 8976TIP3    H251124   3.295   5.703   9.972  0.9920  0.6346  2.6657
 8977TIP3   OH251125   6.443   3.816   9.244  0.1146  0.0385  0.0694
 8977TIP3    H151126   6.418   3.864   9.323  2.3189 -1.1664  1.5979
 8977TIP3    H251127   6.418   3.725   9.261  2.5708 -0.6466  0.4150
 8978TIP3   OH251128   3.880   0.381  10.495 -0.3089 -0.0006  0.4293
 8978TIP3    H151129   3.873   0.287  10.476  0.9647  0.2411 -1.5317
 8978TIP3    H251130   3.823   0.394  10.570 -1.2400 -2.1784  0.1900
 8979TIP3   OH251131   1.754   5.866   9.846  0.1812 -0.0321  0.7209
 8979TIP3    H151132   1.814   5.934   9.817  0.5621  0.1286  1.8470
 8979TIP3    H251133   1.694   5.854   9.772  0.7164  0.8078  0.1317
 8980TIP3   OH251134   0.774   8.113   9.632  0.3369 -0.6181  0.0087
 8980TIP3    H151135   0.853   8.079   9.590  0.7261 -0.0858  0.3037
 8980TIP3    H251136   0.731   8.165   9.565 -0.8527 -2.5354 -0.8226
 8981TIP3   OH251137   4.840   4.799   9.375 -0.0606  0.7852  1.1738
 8981TIP3    H151138   4.874   4.859   9.308  0.4396 -2.2818 -1.5856
 8981TIP3    H251139   4.757   4.768   9.339  0.2730 -1.0335  1.8528
 8982TIP3   OH251140   4.481   5.434   9.878 -0.2109 -0.2592  0.4158
 8982TIP3    H151141   4.435   5.483   9.810 -0.5638 -2.7949 -1.3203
 8982TIP3    H251142   4.436   5.458   9.959 -1.1431  1.2952 -0.5070
 8983TIP3   OH251143   1.766   1.505   9.730  0.1728 -0.2667  0.2396
 8983TIP3    H151144   1.802   1.416   9.725 -1.0618 -0.7260 -3.4491
 8983TIP3    H251145   1.674   1.495   9.706  0.1747  2.0488 -1.0197
 8984TIP3   OH251146   8.104   8.372   9.584 -0.2218 -0.6557 -0.2248
 8984TIP3    H151147   8.147   8.368   9.670 -0.0761  1.2556 -0.1518
 8984TIP3    H251148   8.029   8.430   9.598 -1.3113 -1.8220 -0.9836
 8985TIP3   OH251149   6.506   5.985  11.141 -0.4135  0.1588  0.5545
 8985TIP3    H151150   6.569   6.007  11.073 -0.5344  1.2095  0.7588
 8985TIP3    H251151   6.557   5.941  11.209 -0.3486 -1.2068 -0.3373
 8986TIP3   OH251152   0.999   5.236   9.647 -0.0363  0.0580 -0.2217
 8986TIP3    H151153   0.909   5.205   9.640  0.5927 -1.7151 -1.1823
 8986TIP3    H251154   0.992   5.323   9.686 -1.9287 -1.4008  3.1282
 8987TIP3   OH251155   5.972   3.734   9.676  0.0841 -0.2880 -0.8290
 8987TIP3    H151156   5.973   3.719   9.581 -0.5762 -0.9181 -0.7379
 8987TIP3    H251157   5.983   3.829   9.685  0.6266 -0.2792 -1.5172
 8988TIP3   OH251158   3.596   2.182  10.009 -0.8415 -0.5185  0.1003
 8988TIP3    H151159   3.662   2.236   9.965 -2.2885  1.7891  0.5739
 8988TIP3    H251160   3.645   2.109  10.045  1.4677  1.0513  0.3710
 8989TIP3   OH251161   2.010   6.194  10.701  0.0333 -0.1228 -0.0354
 8989TIP3    H151162   2.067   6.225  10.631 -1.2188  1.1351 -0.5685
 8989TIP3    H251163   2.035   6.103  10.714  1.3026  0.0401 -1.0926
 8990TIP3   OH251164   0.915   0.433  10.113 -0.2556  0.2524 -0.0815
 8990TIP3    H151165   0.838   0.390  10.076  0.0034  0.7022 -1.1988
 8990TIP3    H251166   0.891   0.451  10.204 -0.9242 -0.8926 -0.0073
 8991TIP3   OH251167   7.921   3.247   9.442  0.2095  0.6214  0.0079
 8991TIP3    H151168   7.945   3.264   9.533 -1.0745 -1.8254  0.9209
 8991TIP3    H251169   7.923   3.151   9.435  0.0588  0.7401 -2.4905
 8992TIP3   OH251170   7.050   4.128  10.212 -0.2301 -0.2505 -0.5927
 8992TIP3    H151171   7.082   4.079  10.136  0.1080 -1.6905  0.4168
 8992TIP3    H251172   7.127   4.133  10.270 -0.9606 -0.8614  0.4579
 8993TIP3   OH251173   4.049   2.750  11.388 -0.2919  0.1467 -0.4845
 8993TIP3    H151174   4.121   2.732  11.327  0.0682  0.8532 -0.2790
 8993TIP3    H251175   4.092   2.761  11.473 -0.4196  2.2307 -0.6363
 8994TIP3   OH251176   2.737   1.271   9.690 -0.3681 -0.3008  0.8764
 8994TIP3    H151177   2.647   1.289   9.718 -0.4614 -0.6226  0.7963
 8994TIP3    H251178   2.776   1.357   9.677 -0.5310 -0.1533  1.3374
 8995TIP3   OH251179   7.714   6.550   9.633 -0.7239 -0.2038  0.1532
 8995TIP3    H151180   7.786   6.572   9.692  0.2005 -1.6619 -0.3917
 8995TIP3    H251181   7.712   6.623   9.570 -0.0775  0.1119  0.4862
 8996TIP3   OH251182   2.970   6.830   9.544  0.0263 -0.3346 -0.1796
 8996TIP3    H151183   3.014   6.886   9.608 -0.5782  1.7022 -1.4526
 8996TIP3    H251184   2.880   6.822   9.576 -0.3582  0.9364 -0.8753
 8997TIP3   OH251185   0.716   4.170   9.111  0.1272 -0.3585 -0.2682
 8997TIP3    H151186   0.770   4.109   9.061 -1.6889 -1.4095 -1.0666
 8997TIP3    H251187   0.771   4.197   9.184  2.3465  0.0330 -1.9744
 8998TIP3   OH251188   5.072   5.490   9.887 -0.5846 -0.1806 -0.8210
 8998TIP3    H151189   5.060   5.405   9.846 -0.9807 -0.4814 -0.0844
 8998TIP3    H251190   5.103   5.471   9.976 -0.1269  0.4552 -0.8333
 8999TIP3   OH251191   3.203   6.543  10.159  0.6605 -0.1200  0.5754
 8999TIP3    H151192   3.194   6.611  10.093  1.3260 -0.0528  0.5481
 8999TIP3    H251193   3.116   6.503  10.164 -0.3138  1.9844  1.9717
 9000TIP3   OH251194   2.185   3.632   9.003 -0.7481 -0.2073 -1.0270
 9000TIP3    H151195   2.281   3.624   8.999 -0.4101  1.7734  1.0226
 9000TIP3    H251196   2.156   3.548   9.040  0.1692 -0.8390 -1.6886
 9001TIP3   OH251197   7.001   5.537  10.264 -0.3526 -0.4926 -0.1461
 9001TIP3    H151198   6.991   5.484  10.343 -0.0672 -0.8026 -0.3150
 9001TIP3    H251199   7.000   5.628  10.295  0.5720 -0.6268  0.3143
 9002TIP3   OH251200   5.353   8.344  11.049  0.3538 -0.5882 -0.0874
 9002TIP3    H151201   5.432   8.379  11.091 -0.6034  1.7757 -0.0601
 9002TIP3    H251202   5.364   8.249  11.052  2.8413 -0.3655  0.5628
 9003TIP3   OH251203   3.416   2.798  10.149  0.1416 -0.0485 -0.1535
 9003TIP3    H151204   3.325   2.770  10.163  0.0923  1.0847  2.4018
 9003TIP3    H251205   3.408   2.889  10.122  0.5216 -0.2759 -1.0656
 9004TIP3   OH251206   6.066   4.579   9.395 -0.1144  0.0492  0.2157
 9004TIP3    H151207   6.138   4.529   9.433 -0.2854  0.3955  1.0021
 9004TIP3    H251208   6.101   4.610   9.311  1.1986  1.4425  1.2200
 9005TIP3   OH251209   0.550   0.201   9.655  0.3221 -0.5423 -0.1847
 9005TIP3    H151210   0.593   0.249   9.727  1.8888 -0.1253 -1.3256
 9005TIP3    H251211   0.622   0.180   9.595 -1.1020  0.3270 -2.2970
 9006TIP3   OH251212   3.680   6.670   9.497  0.3303 -0.1778 -0.3608
 9006TIP3    H151213   3.609   6.716   9.541 -0.7477  1.8359 -3.8457
 9006TIP3    H251214   3.636   6.601   9.447  1.0816 -0.2955 -0.8733
 9007TIP3   OH251215   0.544   6.027  10.347 -0.1490 -0.2186 -0.0872
 9007TIP3    H151216   0.594   5.967  10.402 -0.8320  0.6307  1.5342
 9007TIP3    H251217   0.610   6.073  10.295  0.9190  1.4453  2.5549
 9008TIP3   OH251218   5.154   1.173  10.470  0.0390  0.2076  0.1198
 9008TIP3    H151219   5.179   1.185  10.561  0.4984  1.8060 -0.1892
 9008TIP3    H251220   5.075   1.226  10.459  0.2473  0.4026 -0.5045
 9009TIP3   OH251221   0.384   5.528   9.735  0.3892  0.1944 -0.1532
 9009TIP3    H151222   0.303   5.503   9.780  0.8805  2.1106  1.9613
 9009TIP3    H251223   0.363   5.608   9.689  0.4975 -0.5817 -1.6113
 9010TIP3   OH251224   7.614   7.720   8.920  0.0950 -0.4157  0.0312
 9010TIP3    H151225   7.680   7.735   8.853 -0.6343 -0.3724 -0.6932
 9010TIP3    H251226   7.651   7.759   8.999  1.3907 -1.3128 -0.0962
 9011TIP3   OH251227   3.207   1.845   8.795  0.0463 -0.6670  0.2064
 9011TIP3    H151228   3.202   1.765   8.743 -0.4517 -0.7627  0.3989
 9011TIP3    H251229   3.298   1.847   8.827  0.5341 -0.3082 -1.1275
 9012TIP3   OH251230   6.077   1.539   8.782 -0.0098 -0.0798  0.0842
 9012TIP3    H151231   6.116   1.576   8.862 -1.1085  1.5846 -0.1003
 9012TIP3    H251232   6.075   1.612   8.720 -2.4547 -0.3406 -0.2505
 9013TIP3   OH251233   1.877   3.025   8.792 -0.1737 -0.3121  0.1630
 9013TIP3    H151234   1.827   3.054   8.716 -0.1371 -1.5535 -0.3614
 9013TIP3    H251235   1.863   2.930   8.795  1.8593 -0.6608  0.2017
 9014TIP3   OH251236   0.917   7.787   9.709  0.0774 -1.1472 -0.4472
 9014TIP3    H151237   0.850   7.733   9.667 -0.6836 -0.1910 -0.5131
 9014TIP3    H251238   0.929   7.860   9.649  0.7348 -0.9926 -0.1303
 9015TIP3   OH251239   3.390   7.363  10.004 -0.3354  0.4508  0.2414
 9015TIP3    H151240   3.454   7.415  10.053  0.9910  0.4415 -1.4040
 9015TIP3    H251241   3.311   7.366  10.058  0.6709  1.4750  1.7515
 9016TIP3   OH251242   2.829   6.490  10.681  0.2957  0.0344  0.0463
 9016TIP3    H151243   2.868   6.562  10.730  1.1341 -1.0626  1.0614
 9016TIP3    H251244   2.769   6.448  10.743  1.4058 -1.4044  0.2078
 9017TIP3   OH251245   6.985   5.026  11.126 -0.0476 -0.0722 -0.4765
 9017TIP3    H151246   7.033   5.102  11.091 -1.5568  1.3293  0.3602
 9017TIP3    H251247   6.901   5.027  11.080 -1.3263  0.6933  1.7484
 9018TIP3   OH251248   2.970   4.712   8.975 -0.4778  0.5758  0.7289
 9018TIP3    H151249   2.970   4.755   8.889  1.9746  0.0841  0.3892
 9018TIP3    H251250   2.919   4.632   8.961  1.5840 -0.5505 -0.9561
 9019TIP3   OH251251   4.720   5.945   9.745 -0.1916 -0.0898 -0.0357
 9019TIP3    H151252   4.794   5.884   9.737  1.3306  1.6365  0.2575
 9019TIP3    H251253   4.690   5.934   9.835  0.3053 -0.1454  0.1252
 9020TIP3   OH251254   7.062   3.462   9.988  0.3828  0.4730  0.7526
 9020TIP3    H151255   6.975   3.433   9.961 -0.5693  2.3955  1.6025
 9020TIP3    H251256   7.102   3.383  10.026 -1.6499 -0.0812  1.9340
 9021TIP3   OH251257   6.933   6.201  10.405  0.5162  0.0642 -0.3555
 9021TIP3    H151258   6.882   6.161  10.335 -1.1526 -0.6543  1.1867
 9021TIP3    H251259   6.904   6.292  10.408 -0.6396 -0.3069  0.4214
 9022TIP3   OH251260   7.609   6.009  10.710 -0.0172 -0.8189 -0.2558
 9022TIP3    H151261   7.564   5.958  10.778  2.1718 -1.6928  0.6357
 9022TIP3    H251262   7.598   6.100  10.738 -1.2155 -0.9831 -0.1035
 9023TIP3   OH251263   1.877   5.173   9.829  0.4551  0.1954  0.4878
 9023TIP3    H151264   1.948   5.109   9.836 -0.8067 -1.1790  1.1623
 9023TIP3    H251265   1.880   5.221   9.911 -0.7957 -1.4153  1.5300
 9024TIP3   OH251266   5.321   7.920   9.441  0.2190  0.4700  0.6217
 9024TIP3    H151267   5.263   7.900   9.515  0.4194  0.6121  0.8174
 9024TIP3    H251268   5.321   7.840   9.389  0.5946  0.1407  1.1189
 9025TIP3   OH251269   2.249   5.710  10.288 -0.0669 -0.1525  0.1897
 9025TIP3    H151270   2.280   5.796  10.261 -0.7760 -0.2633 -1.0337
 9025TIP3    H251271   2.228   5.721  10.381  1.6439  0.4592  0.5527
 9026TIP3   OH251272   2.717   1.780  10.680  0.0219 -0.5084 -0.5596
 9026TIP3    H151273   2.781   1.709  10.676  0.3917 -0.2903  1.0241
 9026TIP3    H251274   2.767   1.859  10.662  0.3873 -0.2541  1.4046
 9027TIP3   OH251275   7.657   0.703   9.295 -0.4720 -0.0951  0.1962
 9027TIP3    H151276   7.632   0.743   9.379  1.4799 -0.0396  0.8077
 9027TIP3    H251277   7.631   0.767   9.229  0.1018  0.9564  0.9632
 9028TIP3   OH251278   1.686   1.960   9.610  0.2277  0.4209 -0.3456
 9028TIP3    H151279   1.642   1.947   9.695  0.5380  1.1296 -0.0687
 9028TIP3    H251280   1.656   1.887   9.557 -2.6322  1.7142 -0.7125
 9029TIP3   OH251281   7.600   1.629  10.510 -0.3605  0.1498  0.3747
 9029TIP3    H151282   7.613   1.685  10.433 -0.2928  2.6110  2.0586
 9029TIP3    H251283   7.505   1.629  10.524 -0.3671 -0.2490  0.3533
 9030TIP3   OH251284   0.582   0.554   9.040 -0.1963 -0.0394 -0.5097
 9030TIP3    H151285   0.558   0.474   9.086  0.2516  0.7557  1.2094
 9030TIP3    H251286   0.508   0.571   8.980 -0.0452 -1.9770 -1.3072
 9031TIP3   OH251287   0.389   4.031   8.866  0.1385  0.0099  0.5106
 9031TIP3    H151288   0.351   4.052   8.780  1.1893  0.7514  0.2029
 9031TIP3    H251289   0.321   4.056   8.929 -0.0592  0.9145 -0.0412
 9032TIP3   OH251290   6.194   0.048  10.436 -0.3212 -0.5093  0.4147
 9032TIP3    H151291   6.276   0.082  10.402  0.1500  0.4564  2.3675
 9032TIP3    H251292   6.183  -0.036  10.392  0.6333  0.2641 -1.4118
 9033TIP3   OH251293   1.841   4.460   9.245 -0.6376  0.5084  0.4575
 9033TIP3    H151294   1.881   4.467   9.331 -0.0994  0.4571  0.2149
 9033TIP3    H251295   1.848   4.368   9.222  3.1761  1.0736 -1.4662
 9034TIP3   OH251296   8.370   4.745   9.683 -0.5432 -0.0033  0.1649
 9034TIP3    H151297   8.382   4.650   9.695  1.5505 -0.0740 -1.7682
 9034TIP3    H251298   8.298   4.752   9.619 -1.6120 -0.1906  1.3104
 9035TIP3   OH251299   7.921   5.329   9.857 -0.3558  0.6624 -0.0414
 9035TIP3    H151300   7.976   5.280   9.797 -0.6599 -0.0776  0.2763
 9035TIP3    H251301   7.849   5.361   9.803 -0.6913 -0.1015 -0.0591
 9036TIP3   OH251302   6.025   2.275   8.550 -0.0978 -0.0219 -0.5156
 9036TIP3    H151303   6.100   2.332   8.533 -1.4871  1.3235 -2.6174
 9036TIP3    H251304   6.032   2.206   8.483 -0.2285 -0.4508 -0.0942
 9037TIP3   OH251305   6.222   2.472   8.601  0.0387  0.0529  0.7483
 9037TIP3    H151306   6.308   2.481   8.559 -0.0515 -0.2842  0.4826
 9037TIP3    H251307   6.230   2.519   8.683 -0.0310  1.4509 -0.0191
 9038TIP3   OH251308   6.547   0.612  10.504  0.0759  0.4187 -0.2923
 9038TIP3    H151309   6.521   0.577  10.419 -0.8905 -1.5503  0.7342
 9038TIP3    H251310   6.622   0.558  10.531 -0.7577 -0.2213  0.8554
 9039TIP3   OH251311   5.155   1.393  10.232 -0.0772 -0.1825 -0.1586
 9039TIP3    H151312   5.178   1.301  10.219 -1.2124 -0.4901 -0.0496
 9039TIP3    H251313   5.074   1.391  10.283 -0.2979  0.8654 -0.4446
 9040TIP3   OH251314   1.497   2.895  10.627 -0.2710 -0.2827  0.2878
 9040TIP3    H151315   1.451   2.812  10.614  1.3684 -1.2330  0.2537
 9040TIP3    H251316   1.535   2.915  10.541 -0.4484  0.3838  0.3604
 9041TIP3   OH251317   3.371   7.672  10.148 -0.1660 -0.3392  0.3336
 9041TIP3    H151318   3.293   7.627  10.182 -0.4373  0.5057  0.8604
 9041TIP3    H251319   3.444   7.613  10.169 -0.4010 -0.1169  1.8748
 9042TIP3   OH251320   2.917   0.140  10.618  0.1720  0.4942 -0.5395
 9042TIP3    H151321   2.830   0.141  10.660  0.9236  1.2576  1.0689
 9042TIP3    H251322   2.956   0.058  10.648  0.4234  0.6792 -0.3614
 9043TIP3   OH251323   1.782   0.505   9.916  0.0387  0.3356 -0.2537
 9043TIP3    H151324   1.715   0.437   9.906 -1.3383  1.6889 -0.6700
 9043TIP3    H251325   1.791   0.543   9.829 -1.2264  2.4553  0.4664
 9044TIP3   OH251326   6.587   4.836   9.351 -0.0221  0.0794 -0.1213
 9044TIP3    H151327   6.591   4.917   9.402  0.4347  0.8530 -1.3286
 9044TIP3    H251328   6.646   4.776   9.396 -0.7408  0.2416  1.0673
 9045TIP3   OH251329   3.709   1.894  10.758  0.3297 -0.5751  0.5523
 9045TIP3    H151330   3.747   1.957  10.697  0.0284 -1.2893 -0.4106
 9045TIP3    H251331   3.710   1.938  10.842  1.8206  0.0102  0.2563
 9046TIP3   OH251332   7.718   7.454   9.025 -0.4008 -0.4702 -0.7283
 9046TIP3    H151333   7.637   7.504   9.018  1.0705  2.0581 -0.6516
 9046TIP3    H251334   7.769   7.480   8.948  2.3045  1.8516  1.6673
 9047TIP3   OH251335   2.487   6.369  11.029 -0.8589 -1.0685  0.1160
 9047TIP3    H151336   2.485   6.319  11.111 -0.7700 -0.3906  0.5420
 9047TIP3    H251337   2.409   6.425  11.034  1.0465  1.6961  1.5054
 9048TIP3   OH251338   1.895   7.506   8.754  0.3584 -0.2148 -0.9240
 9048TIP3    H151339   1.831   7.563   8.712  0.6919 -0.6418 -2.0655
 9048TIP3    H251340   1.871   7.506   8.846 -1.1236 -0.1421 -1.2804
 9049TIP3   OH251341   0.864   7.301  10.375 -0.3621 -0.0470  0.2032
 9049TIP3    H151342   0.948   7.326  10.337 -1.2533 -1.1717 -2.8186
 9049TIP3    H251343   0.859   7.206  10.360 -2.5980  0.1601 -0.6994
 9050TIP3   OH251344   4.565   4.183   9.904  0.0672 -0.4386 -0.0500
 9050TIP3    H151345   4.582   4.089   9.900 -1.7608 -0.8165 -0.0209
 9050TIP3    H251346   4.547   4.208   9.813 -0.9642 -0.4570  0.1378
 9051TIP3   OH251347   5.927   0.777   8.869 -0.4812  0.2654 -0.4886
 9051TIP3    H151348   6.002   0.721   8.851  1.4957  3.1354 -1.9307
 9051TIP3    H251349   5.892   0.800   8.783  0.4195  3.1834 -0.1836
 9052TIP3   OH251350   2.925   8.372   8.556  0.0105 -0.4497  0.5516
 9052TIP3    H151351   2.882   8.401   8.475  0.0802 -2.0567 -0.0867
 9052TIP3    H251352   2.946   8.454   8.602 -0.8061  0.4685 -0.6366
 9053TIP3   OH251353   6.830   4.308   9.335  0.4312 -0.1031 -0.8097
 9053TIP3    H151354   6.773   4.239   9.300 -0.2235  0.2124 -0.3766
 9053TIP3    H251355   6.806   4.314   9.428  1.2609 -0.0511 -0.5845
 9054TIP3   OH251356   3.537   6.362   9.748 -0.4193  0.1946  0.3588
 9054TIP3    H151357   3.593   6.318   9.812  0.7613  2.2609  0.8190
 9054TIP3    H251358   3.448   6.338   9.774  0.1329 -1.0328  1.2069
 9055TIP3   OH251359   5.350   2.413   9.597 -0.0436 -0.1948 -0.3004
 9055TIP3    H151360   5.299   2.376   9.524  0.6145  0.0482 -0.8942
 9055TIP3    H251361   5.390   2.492   9.560  1.9647 -1.1627 -0.3131
 9056TIP3   OH251362   8.079   0.899   9.258 -0.3433  0.0340  0.8264
 9056TIP3    H151363   8.124   0.964   9.311  2.0770 -1.5030  0.7937
 9056TIP3    H251364   8.022   0.853   9.319  2.0816 -1.4204  2.1320
 9057TIP3   OH251365   4.601   4.765   9.259  0.2173  0.4114 -0.3388
 9057TIP3    H151366   4.599   4.790   9.166 -1.1338 -0.6818 -0.6396
 9057TIP3    H251367   4.510   4.742   9.279  0.5634  0.2759  1.1688
 9058TIP3   OH251368   6.607   6.927   9.857 -0.3262 -0.2558 -0.6469
 9058TIP3    H151369   6.617   7.019   9.831 -0.4543  0.4384  1.5612
 9058TIP3    H251370   6.697   6.896   9.867 -0.2767 -0.0325 -0.3681
 9059TIP3   OH251371   2.450   2.944  10.017  0.4817  0.3097  0.2699
 9059TIP3    H151372   2.363   2.911   9.995  0.9593  0.1692 -1.5610
 9059TIP3    H251373   2.503   2.865  10.030  1.2119  0.2896 -2.4059
 9060TIP3   OH251374   4.017   6.070  10.715  0.3859  0.2702 -0.2624
 9060TIP3    H151375   4.063   6.000  10.762 -0.9433  1.0917  2.4976
 9060TIP3    H251376   3.970   6.025  10.644  0.3086 -1.5158  0.8691
 9061TIP3   OH251377   7.359   6.701  10.378 -0.0779  0.0632 -0.0760
 9061TIP3    H151378   7.345   6.757  10.455 -0.7082  0.0121 -0.1524
 9061TIP3    H251379   7.432   6.645  10.404  1.0834  1.4125 -0.2796
 9062TIP3   OH251380   7.296   7.525   8.682  0.4782  0.1557 -0.2226
 9062TIP3    H151381   7.359   7.569   8.738  0.2237  2.3729 -1.5508
 9062TIP3    H251382   7.255   7.596   8.632 -1.2286 -1.4599 -1.2398
 9063TIP3   OH251383   6.110   6.254  10.461  0.4332  0.2661  0.3638
 9063TIP3    H151384   6.100   6.340  10.421  0.7064 -0.6121 -1.7187
 9063TIP3    H251385   6.040   6.249  10.525 -0.7016  1.3724 -0.7390
 9064TIP3   OH251386   2.448   8.411   9.874  0.3720  0.5242 -0.3335
 9064TIP3    H151387   2.513   8.383   9.939  0.3485 -0.2591 -0.6354
 9064TIP3    H251388   2.386   8.339   9.870 -0.1190  0.9518 -0.5858
 9065TIP3   OH251389   6.042   3.178  10.118  0.4895  0.0920 -0.0328
 9065TIP3    H151390   6.038   3.193  10.024 -0.2307 -0.5526 -0.1175
 9065TIP3    H251391   5.951   3.159  10.143  0.7842 -0.4401  0.6672
 9066TIP3   OH251392   1.056   7.755   9.145 -0.1376  0.5065  0.3012
 9066TIP3    H151393   0.962   7.773   9.145 -0.4480 -0.9664  0.3003
 9066TIP3    H251394   1.062   7.663   9.121  1.3296  0.6509  0.0523
 9067TIP3   OH251395   4.102   0.734   9.849 -0.6718 -0.3246 -0.3323
 9067TIP3    H151396   4.186   0.768   9.821 -0.4315 -0.1466  0.5862
 9067TIP3    H251397   4.118   0.696   9.935 -1.3401 -1.0781 -0.5167
 9068TIP3   OH251398   0.223   4.106   9.064  0.3935  0.1397 -0.0199
 9068TIP3    H151399   0.304   4.127   9.110  0.7506  1.1840 -1.0648
 9068TIP3    H251400   0.175   4.050   9.125  1.6532 -0.0599  0.8393
 9069TIP3   OH251401   3.923   8.304  10.025 -0.2831  0.6028 -0.0416
 9069TIP3    H151402   3.877   8.262   9.952 -0.6309  1.5655 -0.3873
 9069TIP3    H251403   3.853   8.344  10.078 -0.0700 -0.3759  1.0262
 9070TIP3   OH251404   4.085   5.964   9.227  0.6687  0.4120 -0.1427
 9070TIP3    H151405   4.158   5.908   9.202  0.4552  0.7736 -1.7048
 9070TIP3    H251406   4.125   6.050   9.241  0.5578  0.6376 -1.1137
 9071TIP3   OH251407   3.280   0.627   9.770 -0.0416  0.0249  0.2166
 9071TIP3    H151408   3.288   0.600   9.678  0.9964  0.2613  0.2222
 9071TIP3    H251409   3.347   0.695   9.780 -1.7927  1.7860  0.5114
 9072TIP3   OH251410   4.343   7.556   9.454  0.0675 -0.0463  0.1580
 9072TIP3    H151411   4.307   7.571   9.367  1.1840 -0.6530 -0.4343
 9072TIP3    H251412   4.296   7.617   9.511  0.0164  1.0776 -1.0396
 9073TIP3   OH251413   7.088   7.345   9.446  0.0995  0.3046  0.0872
 9073TIP3    H151414   7.013   7.330   9.503  1.0167  0.9628  1.4973
 9073TIP3    H251415   7.156   7.379   9.503  1.1188  0.8217 -1.3727
 9074TIP3   OH251416   8.209   4.089  10.071  0.2516  0.0239  0.3707
 9074TIP3    H151417   8.239   4.145  10.143  1.5241 -0.4310  0.2351
 9074TIP3    H251418   8.281   4.027  10.058  0.0577  0.1105 -1.3180
 9075TIP3   OH251419   0.394   5.442   9.068 -0.1341 -0.5711 -0.6738
 9075TIP3    H151420   0.334   5.396   9.009 -1.0314  0.2489 -0.4289
 9075TIP3    H251421   0.338   5.476   9.137  0.1160  2.5947 -1.8687
 9076TIP3   OH251422   1.944   6.805   8.869  0.0760 -0.4854  0.2907
 9076TIP3    H151423   1.857   6.779   8.897  0.6262 -1.4388  1.2051
 9076TIP3    H251424   1.994   6.813   8.951  0.7237  0.5404 -0.1757
 9077TIP3   OH251425   3.174   0.034   9.851 -0.2923 -0.0026 -0.4044
 9077TIP3    H151426   3.092   0.028   9.900 -0.3879  0.1599 -0.5433
 9077TIP3    H251427   3.181   0.126   9.828  0.3940  0.1678  0.4027
 9078TIP3   OH251428   5.463   1.104   9.857 -0.2848  0.3397 -0.4816
 9078TIP3    H151429   5.395   1.072   9.799 -1.7470  0.8587  0.8863
 9078TIP3    H251430   5.433   1.190   9.886 -0.1710 -0.3116  1.8571
 9079TIP3   OH251431   5.829   3.481   9.017 -0.1214  0.0320  0.3330
 9079TIP3    H151432   5.775   3.434   8.955 -1.7608  1.4158  0.6332
 9079TIP3    H251433   5.865   3.414   9.075 -1.3102 -0.9490 -0.0480
 9080TIP3   OH251434   1.301   5.756  10.594  0.1005  0.2751  0.9459
 9080TIP3    H151435   1.344   5.841  10.587 -0.7114  0.6409  0.1067
 9080TIP3    H251436   1.346   5.711  10.666  1.6945  0.7343  0.2801
 9081TIP3   OH251437   0.251   3.660  11.198 -0.3222 -0.3069 -0.0648
 9081TIP3    H151438   0.284   3.577  11.232 -2.0041 -1.0133 -0.0351
 9081TIP3    H251439   0.165   3.670  11.238 -0.4832  1.0758 -0.6736
 9082TIP3   OH251440   6.866   7.123  10.636  0.5009 -0.9102 -0.2570
 9082TIP3    H151441   6.773   7.120  10.658 -0.0564 -1.2799 -2.4189
 9082TIP3    H251442   6.890   7.031  10.624  0.2746 -0.7241 -2.7589
 9083TIP3   OH251443   0.870   7.326  10.040 -0.1907  0.4959  0.3595
 9083TIP3    H151444   0.930   7.262  10.002 -1.0561  0.6296 -1.3264
 9083TIP3    H251445   0.790   7.277  10.058 -0.8774  1.0755 -0.9947
 9084TIP3   OH251446   7.101   7.424  10.295  0.5673 -0.8988  0.1081
 9084TIP3    H151447   7.173   7.488  10.299  0.2648 -0.5309 -0.2139
 9084TIP3    H251448   7.070   7.429  10.204 -1.1854  0.4161  0.7312
 9085TIP3   OH251449   4.799   4.034   8.914 -0.2004  0.2382  0.1574
 9085TIP3    H151450   4.842   4.088   8.980  0.7479 -1.3297  0.8906
 9085TIP3    H251451   4.709   4.065   8.911 -0.2373  0.3968  2.1557
 9086TIP3   OH251452   6.161   4.439   8.942 -0.6033 -0.2349 -0.2664
 9086TIP3    H151453   6.244   4.423   8.898  0.6599  0.6544  1.6691
 9086TIP3    H251454   6.099   4.381   8.897  0.7837 -0.1283 -2.4662
 9087TIP3   OH251455   1.633   5.344   9.297 -0.5309 -0.4987 -0.0328
 9087TIP3    H151456   1.711   5.329   9.351 -1.0463  1.1118  1.2429
 9087TIP3    H251457   1.625   5.439   9.292 -2.7779 -0.6014  0.4519
 9088TIP3   OH251458   3.444   7.209  10.772 -0.2860  0.0864  0.2471
 9088TIP3    H151459   3.522   7.176  10.726 -0.1297  0.3506  0.3172
 9088TIP3    H251460   3.379   7.139  10.763 -0.4538  0.3613 -0.8689
 9089TIP3   OH251461   7.856   3.084  10.121  0.2392  0.3750  0.1450
 9089TIP3    H151462   7.839   3.070  10.028  1.7882  0.4877 -0.1843
 9089TIP3    H251463   7.873   2.997  10.156 -0.2676  0.3407  0.3142
 9090TIP3   OH251464   1.178   4.005   8.981  0.0814 -0.4740  1.1246
 9090TIP3    H151465   1.232   3.996   9.059 -0.1207  2.1737  1.6905
 9090TIP3    H251466   1.239   4.031   8.912  0.1860 -2.3173  0.4880
 9091TIP3   OH251467   2.426   4.152   9.732  0.0275 -0.4137  0.3354
 9091TIP3    H151468   2.385   4.094   9.797 -1.0782 -0.1910 -0.1538
 9091TIP3    H251469   2.375   4.140   9.653 -0.0725  1.0592  0.1500
 9092TIP3   OH251470   2.921   5.985   9.635  0.0933 -0.7250 -0.4708
 9092TIP3    H151471   3.007   6.017   9.607 -0.6698  3.3581  1.2365
 9092TIP3    H251472   2.940   5.918   9.700  2.0555  0.7270  0.5288
 9093TIP3   OH251473   0.214   0.656   8.725 -0.6556 -0.3119  0.2620
 9093TIP3    H151474   0.284   0.593   8.743 -0.5509  0.2237  1.9574
 9093TIP3    H251475   0.250   0.714   8.658  0.2631 -0.4849  0.5891
 9094TIP3   OH251476   3.229   1.776   9.617  0.1845  0.0547 -0.4114
 9094TIP3    H151477   3.175   1.832   9.561 -0.7838  0.5614  0.9894
 9094TIP3    H251478   3.293   1.737   9.557 -0.4036  1.0802 -1.7514
 9095TIP3   OH251479   0.984   5.474   9.762  0.2618 -0.4589  0.5886
 9095TIP3    H151480   0.944   5.469   9.849  0.9195  0.9562  1.0052
 9095TIP3    H251481   0.994   5.567   9.746 -0.3360 -0.6775 -1.2637
 9096TIP3   OH251482   7.769   0.935   9.942  0.0913 -0.0366  0.5086
 9096TIP3    H151483   7.744   0.994   9.870  1.6778  1.9668  1.4995
 9096TIP3    H251484   7.704   0.951  10.010 -0.9287 -1.3253 -0.1287
 9097TIP3   OH251485   3.003   5.155  10.399 -0.4627 -0.0125  0.1326
 9097TIP3    H151486   2.935   5.140  10.465 -1.3392 -0.6918 -0.8815
 9097TIP3    H251487   3.063   5.217  10.440 -1.8507  0.8493  0.9567
 9098TIP3   OH251488   5.782   8.359   9.043 -0.1050 -0.4626  0.2064
 9098TIP3    H151489   5.787   8.422   9.115  0.1363 -0.4297  0.1603
 9098TIP3    H251490   5.690   8.364   9.014  0.1566  0.7008 -0.5318
 9099TIP3   OH251491   4.697   4.343  10.602 -0.0814  0.5536  0.5202
 9099TIP3    H151492   4.724   4.432  10.624  2.6951 -0.3574  1.1709
 9099TIP3    H251493   4.699   4.340  10.506 -0.6799  1.2899  0.4721
 9100TIP3   OH251494   2.231   0.030   8.891  0.2523 -0.5813 -0.3590
 9100TIP3    H151495   2.280  -0.047   8.863  0.3386 -1.1517  1.2127
 9100TIP3    H251496   2.185   0.001   8.971 -0.4692  0.7226 -0.2727
 9101TIP3   OH251497   1.881   0.135   8.998 -0.3128  0.3899  0.3722
 9101TIP3    H151498   1.886   0.109   9.090  1.6371 -1.9220 -0.2785
 9101TIP3    H251499   1.958   0.190   8.984  0.8772 -1.3755 -0.3863
 9102TIP3   OH251500   0.430   7.928   9.770  0.4560 -0.0046  0.2366
 9102TIP3    H151501   0.481   7.996   9.814  0.4587 -0.5449  1.0920
 9102TIP3    H251502   0.488   7.851   9.769  0.0907 -0.2850  0.1849
 9103TIP3   OH251503   6.408   3.805   9.530  0.1600  0.2203  0.0730
 9103TIP3    H151504   6.366   3.746   9.468 -0.5561  2.3039 -1.5149
 9103TIP3    H251505   6.499   3.775   9.533 -0.6994 -2.6494  1.4877
 9104TIP3   OH251506   0.384   3.024   9.399 -0.2767 -0.2583  0.2856
 9104TIP3    H151507   0.449   3.060   9.458 -0.8503  0.4073  0.5244
 9104TIP3    H251508   0.340   3.100   9.362 -0.0748 -0.6722 -0.8387
 9105TIP3   OH251509   7.423   8.353   8.870  0.1492  0.0814  0.8817
 9105TIP3    H151510   7.370   8.418   8.915 -0.3296 -0.1489  0.6639
 9105TIP3    H251511   7.382   8.269   8.892 -0.3214 -0.0124 -0.2594
 9106TIP3   OH251512   3.774   6.317   8.753  0.1990  0.1510 -0.2028
 9106TIP3    H151513   3.764   6.328   8.848  3.5275 -0.5072  0.3466
 9106TIP3    H251514   3.726   6.236   8.733  1.8257 -1.3126  1.5030
 9107TIP3   OH251515   4.321   7.044  10.188  0.1466  0.1038 -0.2672
 9107TIP3    H151516   4.394   7.106  10.182  0.3705  0.3026  2.7856
 9107TIP3    H251517   4.363   6.958  10.190  0.3966  0.2276  1.7015
 9108TIP3   OH251518   3.897   7.467  10.134  0.3344  0.1106  0.2333
 9108TIP3    H151519   3.933   7.435  10.051  1.4713  0.0802  0.7157
 9108TIP3    H251520   3.880   7.388  10.185  2.7732  0.1501  1.2734
 9109TIP3   OH251521   2.817   0.457   9.382  0.0537  0.3362 -0.2805
 9109TIP3    H151522   2.728   0.422   9.383  0.9113 -2.0045  0.1101
 9109TIP3    H251523   2.807   0.548   9.412 -2.2689  0.4043 -1.0233
 9110TIP3   OH251524   8.284   6.617   8.931  0.6301 -0.1655 -0.0057
 9110TIP3    H151525   8.207   6.565   8.909  0.2141 -0.0928  1.1836
 9110TIP3    H251526   8.278   6.695   8.875 -2.1885  1.6401  2.4891
 9111TIP3   OH251527   6.242   3.657   9.363 -0.0306  0.1313  0.4349
 9111TIP3    H151528   6.170   3.683   9.305  0.0974  2.4107  1.2251
 9111TIP3    H251529   6.222   3.566   9.385 -1.2297 -0.1170 -1.4507
 9112TIP3   OH251530   0.905   1.600  10.151 -0.3714  0.1894 -0.0294
 9112TIP3    H151531   0.940   1.580  10.238  2.3191  1.9611 -0.5900
 9112TIP3    H251532   0.895   1.695  10.151 -1.2821  0.1181 -1.3505
 9113TIP3   OH251533   3.922   5.143   9.714 -0.1461  0.2932  0.4129
 9113TIP3    H151534   3.928   5.239   9.717 -0.8597  0.3397  0.6485
 9113TIP3    H251535   3.882   5.124   9.629 -1.3136  0.3015  0.9305
 9114TIP3   OH251536   7.218   1.849  10.439 -0.4880 -0.9599 -0.4012
 9114TIP3    H151537   7.302   1.877  10.401 -0.9697  0.1365 -0.7063
 9114TIP3    H251538   7.175   1.931  10.465 -1.1069 -1.5584  0.5313
 9115TIP3   OH251539   4.442   7.657  10.046 -0.0975 -0.9070 -0.2587
 9115TIP3    H151540   4.447   7.712   9.968 -1.5931 -0.6258 -0.1805
 9115TIP3    H251541   4.349   7.648  10.063  0.1524 -2.5514  0.3948
 9116TIP3   OH251542   0.668   5.920  10.086 -0.0013 -0.2851 -0.2364
 9116TIP3    H151543   0.759   5.946  10.072 -0.3164  0.2696 -1.3626
 9116TIP3    H251544   0.622   5.952  10.009 -1.5021  1.1476  1.1750
 9117TIP3   OH251545   8.246   7.193   9.769  0.2130 -0.0713 -0.1636
 9117TIP3    H151546   8.256   7.101   9.791  0.1881 -0.0041  0.1298
 9117TIP3    H251547   8.280   7.201   9.680 -0.0314 -0.4148 -0.2882
 9118TIP3   OH251548   4.358   3.246  11.068  0.2374  0.1960 -0.0575
 9118TIP3    H151549   4.275   3.233  11.022 -0.2040  2.2546  0.0294
 9118TIP3    H251550   4.420   3.268  10.998  0.1024  1.0935  0.0947
 9119TIP3   OH251551   2.381   1.989   9.571  0.0374 -0.1388  0.3800
 9119TIP3    H151552   2.393   1.911   9.517  0.6676 -0.6505  1.2276
 9119TIP3    H251553   2.386   2.062   9.510 -1.0175 -0.7652 -0.5000
 9120TIP3   OH251554   8.067   7.434  10.732  0.1879 -0.4029 -0.2212
 9120TIP3    H151555   8.061   7.528  10.749  0.6248 -0.4130 -0.0133
 9120TIP3    H251556   7.994   7.416  10.672  0.0347  0.0446 -0.1730
 9121TIP3   OH251557   1.013   7.492  10.565 -0.1996  0.4528  0.2432
 9121TIP3    H151558   0.926   7.454  10.552 -0.5136  1.3635 -0.4077
 9121TIP3    H251559   1.056   7.483  10.479  0.9325 -1.3557  0.9273
 9122TIP3   OH251560   6.536   3.303  10.175  0.3492 -0.0771 -0.2038
 9122TIP3    H151561   6.476   3.232  10.155  2.6058 -1.6846 -1.8651
 9122TIP3    H251562   6.596   3.266  10.240  0.4622  0.9688  0.3121
 9123TIP3   OH251563   5.228   1.581  10.901 -0.3499  0.2098 -0.3565
 9123TIP3    H151564   5.284   1.636  10.846 -0.2396  0.0227 -0.4341
 9123TIP3    H251565   5.157   1.638  10.929  0.6763  0.9016  0.9980
 9124TIP3   OH251566   1.620   6.704  10.953  0.4442  0.2349 -0.0378
 9124TIP3    H151567   1.527   6.726  10.953  0.8682  2.1721  0.1623
 9124TIP3    H251568   1.626   6.630  10.893 -1.1446  0.4429 -0.5170
 9125TIP3   OH251569   7.320   2.595   9.932  0.0565  0.5483 -0.2441
 9125TIP3    H151570   7.369   2.657   9.988 -1.1557  1.5425 -0.2450
 9125TIP3    H251571   7.388   2.549   9.883  1.1456 -0.1505  1.8211
 9126TIP3   OH251572   6.060   6.140  10.151  0.9916  0.2559  0.4073
 9126TIP3    H151573   6.137   6.088  10.126  1.6098  0.6950  1.3718
 9126TIP3    H251574   6.015   6.086  10.215 -0.1317 -0.4879 -0.9514
 9127TIP3   OH251575   7.563   0.804   9.528 -0.0382  0.0679  0.4008
 9127TIP3    H151576   7.490   0.768   9.478 -1.1132  1.1647  1.1401
 9127TIP3    H251577   7.552   0.770   9.616  0.3231  0.2735  0.5276
 9128TIP3   OH251578   2.118   2.729   8.820  0.5392 -0.5844  0.4771
 9128TIP3    H151579   2.127   2.823   8.807  0.9604 -0.4606  1.5419
 9128TIP3    H251580   2.202   2.692   8.793  0.5901 -0.5905  0.6457
 9129TIP3   OH251581   6.489   5.720  10.452 -0.2383  0.5494 -0.4395
 9129TIP3    H151582   6.524   5.736  10.539 -0.1394  0.0055 -0.3748
 9129TIP3    H251583   6.557   5.670  10.407 -0.2649  0.8692 -0.8505
 9130TIP3   OH251584   1.095   8.004   8.994 -0.3386 -0.0715  0.0531
 9130TIP3    H151585   1.112   8.076   9.054  0.4779  0.0110 -0.2659
 9130TIP3    H251586   1.081   7.928   9.051  0.3437  0.0233  0.3541
 9131TIP3   OH251587   0.015   6.293  10.173 -0.4377  0.7966 -0.0244
 9131TIP3    H151588  -0.073   6.289  10.137 -0.5682  0.2443  0.3402
 9131TIP3    H251589   0.046   6.381  10.152 -0.5601  0.5422 -1.3622
 9132TIP3   OH251590   6.167   6.951  10.299  0.0657  0.2483  0.4237
 9132TIP3    H151591   6.100   6.883  10.305  0.3004 -0.1453 -1.0628
 9132TIP3    H251592   6.244   6.914  10.343  1.0364 -1.5824 -2.5644
 9133TIP3   OH251593   1.225   7.613   8.869  0.3271 -0.0554 -0.1432
 9133TIP3    H151594   1.215   7.564   8.788 -0.6552  0.8581 -0.6185
 9133TIP3    H251595   1.274   7.692   8.844  0.1138  0.1799  0.1645
 9134TIP3   OH251596   1.809   3.693   9.909  0.1292  0.4578 -0.3820
 9134TIP3    H151597   1.870   3.686   9.981  0.0367 -0.0658 -0.3510
 9134TIP3    H251598   1.824   3.615   9.857 -0.6411  0.2298 -0.2708
 9135TIP3   OH251599   3.427   4.378  10.719  1.2568 -0.0396 -0.6412
 9135TIP3    H151600   3.432   4.458  10.771  0.3384  0.2238 -0.9365
 9135TIP3    H251601   3.340   4.381  10.679  1.2646 -1.1203 -0.7667
 9136TIP3   OH251602   4.331   5.059   9.270 -0.0306 -0.7403  0.8279
 9136TIP3    H151603   4.362   5.056   9.361  0.6844 -0.3064  0.6017
 9136TIP3    H251604   4.291   5.145   9.260  1.3611 -0.1401  0.2671
 9137TIP3   OH251605   3.468   0.982   9.338  0.0978  0.8329  0.2588
 9137TIP3    H151606   3.458   0.989   9.433 -1.4243 -1.2123  0.3096
 9137TIP3    H251607   3.557   0.949   9.325 -0.0356  0.1248  1.0519
 9138TIP3   OH251608   2.843   4.656  10.845 -0.6546 -0.1149  0.1198
 9138TIP3    H151609   2.803   4.586  10.795 -2.1523  1.4551 -1.0052
 9138TIP3    H251610   2.787   4.667  10.922 -0.4140 -0.1651  0.3043
 9139TIP3   OH251611   6.809   7.360   9.646  0.6596  0.4029 -0.2243
 9139TIP3    H151612   6.809   7.449   9.682 -2.4036  0.5912 -0.4737
 9139TIP3    H251613   6.794   7.373   9.552 -1.1008 -0.3858 -0.0785
 9140TIP3   OH251614   0.416   3.217   8.790 -0.0908 -0.2409  0.1175
 9140TIP3    H151615   0.397   3.132   8.748  0.0785 -0.5537  0.6737
 9140TIP3    H251616   0.369   3.214   8.873  0.1541  0.0962  0.2699
 9141TIP3   OH251617   2.126   2.853  10.829 -0.0125 -0.1414 -0.1159
 9141TIP3    H151618   2.199   2.897  10.786  0.4349  0.3590  1.1043
 9141TIP3    H251619   2.151   2.760  10.831 -0.5313 -0.3507 -1.8491
 9142TIP3   OH251620   7.167   0.700   9.020  0.2877  0.2908 -0.2073
 9142TIP3    H151621   7.109   0.774   9.005 -0.0012 -0.1550 -1.4199
 9142TIP3    H251622   7.236   0.710   8.954  1.0539  0.2740  0.5731
 9143TIP3   OH251623   1.028   3.813  10.213 -0.2738 -0.6310  0.3412
 9143TIP3    H151624   0.954   3.822  10.153 -1.7485  0.7453  2.2467
 9143TIP3    H251625   0.998   3.753  10.280 -0.7568  1.8709  2.5345
 9144TIP3   OH251626   7.183   7.785   9.622  0.3953 -0.2087 -0.6494
 9144TIP3    H151627   7.232   7.853   9.576  1.6426 -0.5426  0.1323
 9144TIP3    H251628   7.222   7.782   9.709 -0.6207 -0.9210 -0.1941
 9145TIP3   OH251629   4.604   4.670   9.914  0.4108  0.0523  0.2824
 9145TIP3    H151630   4.648   4.750   9.942 -0.3447  0.7454 -0.4432
 9145TIP3    H251631   4.513   4.697   9.899  0.5665 -0.4598 -1.9288
 9146TIP3   OH251632   2.849   3.964  10.317 -0.1218 -0.4925 -0.0333
 9146TIP3    H151633   2.897   4.038  10.281 -3.0787  0.6854 -1.8954
 9146TIP3    H251634   2.855   3.897  10.249  1.2169 -1.4509  0.9754
 9147TIP3   OH251635   6.655   8.025   8.693  0.1911 -0.0043 -0.3588
 9147TIP3    H151636   6.742   8.050   8.723  0.7687 -1.5351 -0.6993
 9147TIP3    H251637   6.600   8.101   8.713  1.5919  0.9742 -0.1377
 9148TIP3   OH251638   7.957   4.272  10.252  0.4533 -0.2998 -0.2876
 9148TIP3    H151639   7.984   4.202  10.312  1.7725  1.8686  1.7772
 9148TIP3    H251640   8.039   4.315  10.228 -0.3317  0.5193 -1.6011
 9149TIP3   OH251641   1.628   1.114  10.204 -0.5738 -0.1478  0.5516
 9149TIP3    H151642   1.585   1.163  10.274  0.9529  1.0930  0.6559
 9149TIP3    H251643   1.560   1.106  10.137 -1.3042  0.8390  1.1375
 9150TIP3   OH251644   0.350   4.318  11.005  0.7444  0.7321  0.4722
 9150TIP3    H151645   0.411   4.293  11.074  1.7166  2.3322  0.2465
 9150TIP3    H251646   0.405   4.358  10.938 -0.5321  2.2469  0.2637
 9151TIP3   OH251647   0.001   4.199   8.920  0.5469 -0.3214  0.2293
 9151TIP3    H151648   0.083   4.201   8.969  1.2829 -1.0579 -0.9005
 9151TIP3    H251649  -0.067   4.189   8.986  1.2819  1.0937  1.2557
 9152TIP3   OH251650   3.168   0.893  10.638  0.7365  0.3479  0.5497
 9152TIP3    H151651   3.256   0.924  10.616  1.1111 -1.9841 -1.7074
 9152TIP3    H251652   3.170   0.882  10.733  2.8976  0.3559  0.5727
 9153TIP3   OH251653   0.117   0.137   9.841 -0.5564  0.3059 -0.2161
 9153TIP3    H151654   0.154   0.188   9.768 -1.5722 -0.3567 -1.2332
 9153TIP3    H251655   0.143   0.185   9.919  3.1438 -0.4926 -0.7238
 9154TIP3   OH251656   1.786   5.193  11.013  0.3182 -0.2948 -0.4551
 9154TIP3    H151657   1.730   5.215  10.939 -0.2543  2.6614  0.6994
 9154TIP3    H251658   1.738   5.126  11.061 -1.0312  0.3380 -0.8726
 9155TIP3   OH251659   0.001   4.575   9.230 -0.4192 -0.4849 -1.5011
 9155TIP3    H151660  -0.053   4.583   9.152 -0.4910 -0.0802 -1.4107
 9155TIP3    H251661   0.002   4.663   9.268 -0.6534 -0.7456 -0.8719
 9156TIP3   OH251662   7.074   0.611  10.357  0.1374  0.1906 -0.5680
 9156TIP3    H151663   7.019   0.627  10.433 -0.1852  1.6399 -1.0715
 9156TIP3    H251664   7.162   0.599  10.393 -0.3709 -1.4826  0.1884
 9157TIP3   OH251665   1.175   7.493   8.617  0.0822 -0.0364 -0.2445
 9157TIP3    H151666   1.169   7.397   8.623 -1.8111  0.0941  0.9814
 9157TIP3    H251667   1.087   7.523   8.641  1.2381  2.1048  1.6060
 9158TIP3   OH251668   1.193   7.734  10.484  0.4847 -0.3317  0.2999
 9158TIP3    H151669   1.226   7.820  10.458  0.6217 -0.2540  0.7262
 9158TIP3    H251670   1.256   7.671  10.448  0.1500 -0.2831 -0.3894
 9159TIP3   OH251671   7.964   3.213  10.509 -0.0901  0.2366 -0.1593
 9159TIP3    H151672   8.040   3.262  10.479 -1.1967  0.7402 -2.4137
 9159TIP3    H251673   7.897   3.280  10.525 -0.2895 -0.2398  1.1092
 9160TIP3   OH251674   5.508   6.126   8.572  0.4900  0.1536 -0.3076
 9160TIP3    H151675   5.595   6.151   8.604  1.0408  0.3851 -1.8783
 9160TIP3    H251676   5.518   6.034   8.546 -0.8003 -1.0706  2.9419
 9161TIP3   OH251677   4.572   3.157   9.182 -0.2216  0.1293 -0.4718
 9161TIP3    H151678   4.621   3.119   9.255 -1.3407 -0.8005 -0.1852
 9161TIP3    H251679   4.623   3.132   9.105  0.2096 -0.0919 -0.1258
 9162TIP3   OH251680   7.869   0.047   8.966 -0.4426 -0.4117  0.0402
 9162TIP3    H151681   7.850   0.140   8.964  0.2029 -0.2924 -1.1275
 9162TIP3    H251682   7.856   0.022   9.058 -1.2655  0.6744  0.2335
 9163TIP3   OH251683   2.264   0.757   9.902  0.3861  0.6207  0.0207
 9163TIP3    H151684   2.185   0.711   9.931  0.0374  1.9007  1.1933
 9163TIP3    H251685   2.336   0.707   9.938  0.1028 -0.1231 -0.4123
 9164TIP3   OH251686   2.127   6.873   9.088 -0.0570 -0.0550  0.6139
 9164TIP3    H151687   2.211   6.827   9.082 -0.3000 -0.5348  0.8369
 9164TIP3    H251688   2.150   6.960   9.121  0.7110  0.8948 -2.1188
 9165TIP3   OH251689   0.495   0.652  10.250 -0.0227 -0.2122  0.1297
 9165TIP3    H151690   0.560   0.721  10.239  0.5045 -0.9659 -1.9484
 9165TIP3    H251691   0.539   0.585  10.302  0.4130 -0.1500 -0.1577
 9166TIP3   OH251692   2.423   7.695   9.619  0.9081 -0.2067 -0.0972
 9166TIP3    H151693   2.398   7.788   9.617  2.3697  0.2213  0.3004
 9166TIP3    H251694   2.479   7.687   9.696 -1.3839 -2.0448  1.5171
 9167TIP3   OH251695   7.056   7.159  11.079 -0.0212 -0.3099  0.0863
 9167TIP3    H151696   6.997   7.230  11.104  0.8292  0.2768  0.4755
 9167TIP3    H251697   7.143   7.199  11.079  0.1096 -0.1937 -3.9730
 9168TIP3   OH251698   0.390   2.750  10.587  0.7260  0.3332 -0.4134
 9168TIP3    H151699   0.433   2.678  10.633  2.6792  1.1760 -0.8468
 9168TIP3    H251700   0.393   2.823  10.648 -0.2720  0.3801 -0.3960
 9169TIP3   OH251701   7.862   0.692  10.345  0.1846 -0.3144  0.2900
 9169TIP3    H151702   7.844   0.691  10.439 -1.3999 -3.1404  0.0581
 9169TIP3    H251703   7.779   0.716  10.305  1.0192  1.5779 -0.4701
 9170TIP3   OH251704   2.772   7.265   9.724 -0.5476  0.4815 -0.2705
 9170TIP3    H151705   2.847   7.239   9.777  0.0435 -0.8488 -1.7023
 9170TIP3    H251706   2.715   7.188   9.723 -2.0539  1.5283  0.9380
 9171TIP3   OH251707   0.822   3.739  10.701  0.3139  0.1505 -0.2428
 9171TIP3    H151708   0.733   3.710  10.679  0.4744  0.4840 -1.4036
 9171TIP3    H251709   0.866   3.660  10.731  0.5485 -0.7563 -2.7030
 9172TIP3   OH251710   0.106   6.011  10.890  0.1700 -0.3490 -0.5596
 9172TIP3    H151711   0.084   6.042  10.978  0.2235 -2.7777  0.3898
 9172TIP3    H251712   0.036   6.045  10.835 -0.3474  0.5073  0.5825
 9173TIP3   OH251713   0.949   6.370   8.795 -0.7496 -0.6581 -0.3088
 9173TIP3    H151714   1.040   6.353   8.817 -1.0475 -0.3841  1.2323
 9173TIP3    H251715   0.953   6.424   8.716  0.5597  1.7413  1.2564
 9174TIP3   OH251716   4.306   2.710   9.540 -0.1664  0.6051 -0.3590
 9174TIP3    H151717   4.241   2.717   9.610  1.7341  3.8442  1.3637
 9174TIP3    H251718   4.266   2.755   9.465  0.1370  3.0689  0.8609
 9175TIP3   OH251719   5.201   0.104  10.146 -0.4276 -0.3159  0.3391
 9175TIP3    H151720   5.160   0.030  10.100 -2.3575  0.3396  0.8875
 9175TIP3    H251721   5.200   0.079  10.238  0.0294 -0.1021  0.4026
 9176TIP3   OH251722   2.461   0.552  10.366 -0.5845 -0.3322 -0.3828
 9176TIP3    H151723   2.476   0.646  10.356 -1.1068 -0.4000 -1.9740
 9176TIP3    H251724   2.366   0.543  10.369 -0.6127 -0.9419 -1.9880
 9177TIP3   OH251725   3.762   6.444   9.605  0.0103  0.4047  0.0277
 9177TIP3    H151726   3.752   6.537   9.586 -1.5309  0.5749  1.5122
 9177TIP3    H251727   3.683   6.420   9.653  0.0963 -1.8164 -0.7965
 9178TIP3   OH251728   0.044   1.309   9.854 -0.1566  0.1360 -0.0076
 9178TIP3    H151729   0.094   1.349   9.783  2.8905 -2.2808  0.5530
 9178TIP3    H251730   0.103   1.313   9.930 -1.6533 -1.0504  1.2821
 9179TIP3   OH251731   1.641   7.718   9.558 -0.5390 -0.5223  0.2903
 9179TIP3    H151732   1.681   7.643   9.514 -1.2311 -0.7293  0.0045
 9179TIP3    H251733   1.572   7.680   9.613 -0.7031 -0.1204  0.3646
 9180TIP3   OH251734   1.304   5.916   9.585  0.2683 -0.7567 -0.0809
 9180TIP3    H151735   1.387   5.926   9.632  0.3405 -0.7015 -0.2206
 9180TIP3    H251736   1.270   6.005   9.576  0.5918 -0.6994 -0.7455
 9181TIP3   OH251737   3.239   2.919   8.782 -0.0321  0.2582 -0.3010
 9181TIP3    H151738   3.148   2.899   8.759 -0.2673  0.2832  0.5772
 9181TIP3    H251739   3.291   2.871   8.716 -0.6805  1.1295 -1.4824
 9182TIP3   OH251740   5.324   6.221   9.908 -0.3339  0.1542  0.2494
 9182TIP3    H151741   5.370   6.163   9.849 -1.0979 -0.8205  0.5816
 9182TIP3    H251742   5.251   6.169   9.942 -1.5220  1.5473 -0.0441
 9183TIP3   OH251743   7.671   2.605   9.754  0.1193  0.3462  0.6259
 9183TIP3    H151744   7.719   2.542   9.701  0.4420  2.1543 -1.3307
 9183TIP3    H251745   7.579   2.583   9.741  0.0936  1.6720 -2.0418
 9184TIP3   OH251746   3.967   3.860  10.591  0.3319  0.0158  0.5060
 9184TIP3    H151747   3.953   3.766  10.602 -0.2334 -0.0774 -0.7987
 9184TIP3    H251748   3.885   3.893  10.553  1.8805  0.2274 -3.1238
 9185TIP3   OH251749   6.809   5.911   9.671 -0.4461 -0.1410 -0.1104
 9185TIP3    H151750   6.742   5.958   9.620  1.5161  1.4846 -1.3604
 9185TIP3    H251751   6.837   5.975   9.737 -1.0755 -1.3124  1.3468
 9186TIP3   OH251752   7.268   5.935  10.633 -0.3096  0.3736 -0.2200
 9186TIP3    H151753   7.194   5.878  10.653 -0.3031  1.1989  2.4702
 9186TIP3    H251754   7.345   5.877  10.637 -0.3767  0.3727  1.7454
 9187TIP3   OH251755   7.858   1.080   8.917 -0.0279  0.2773  0.0586
 9187TIP3    H151756   7.897   1.127   8.991  1.4281  0.8732 -1.0594
 9187TIP3    H251757   7.823   1.148   8.860 -0.2658 -0.1302 -0.2892
 9188TIP3   OH251758   3.290   0.097   9.046 -0.0944 -0.1869  0.2840
 9188TIP3    H151759   3.196   0.108   9.060  0.1391  0.1546  1.7452
 9188TIP3    H251760   3.300   0.005   9.024 -0.8011 -0.1481 -0.2500
 9189TIP3   OH251761   0.409   4.751  10.481  0.1404 -0.0221 -0.1543
 9189TIP3    H151762   0.503   4.755  10.465  0.3819 -0.6156  0.9726
 9189TIP3    H251763   0.387   4.838  10.512  0.6680 -0.3428  1.2004
 9190TIP3   OH251764   7.039   0.287  11.143  0.0801 -0.1871 -0.1682
 9190TIP3    H151765   6.985   0.221  11.099  1.2749 -0.8859 -0.6379
 9190TIP3    H251766   6.985   0.367  11.141 -0.7772 -0.7584 -0.9595
 9191TIP3   OH251767   2.885   2.508   9.112 -0.0464 -0.8381 -0.1705
 9191TIP3    H151768   2.964   2.508   9.166 -0.7921  0.6258  1.0152
 9191TIP3    H251769   2.819   2.465   9.166 -0.5683 -0.1923 -0.2775
 9192TIP3   OH251770   0.223   2.171  10.228  0.5465  0.0778  0.2357
 9192TIP3    H151771   0.215   2.198  10.320  0.9759  1.3877 -0.0816
 9192TIP3    H251772   0.204   2.077  10.228  0.9127 -0.0140  1.7174
 9193TIP3   OH251773   1.075   1.858   9.151  0.3425 -0.0445  0.6375
 9193TIP3    H151774   1.133   1.887   9.081  2.0997 -0.9751  1.6272
 9193TIP3    H251775   1.020   1.934   9.170  2.2264  1.3956  0.6070
 9194TIP3   OH251776   6.536   5.710   9.087  0.2500 -0.0760  0.0670
 9194TIP3    H151777   6.631   5.707   9.094  0.2079 -0.1735  0.6505
 9194TIP3    H251778   6.512   5.626   9.048  0.3900 -0.1026  0.0382
 9195TIP3   OH251779   3.399   1.397   9.534 -0.1359 -0.6530  0.0780
 9195TIP3    H151780   3.314   1.435   9.554 -0.1427  0.1441 -1.3175
 9195TIP3    H251781   3.405   1.320   9.591 -0.9301  0.3674  1.6048
 9196TIP3   OH251782   6.484   3.625  10.343  0.6704  0.1640 -0.0410
 9196TIP3    H151783   6.423   3.564  10.384 -1.4956  2.7348  0.8330
 9196TIP3    H251784   6.472   3.611  10.249  0.9580 -1.3463  0.1100
 9197TIP3   OH251785   4.353   1.150  11.005 -0.5341  0.4792 -0.3481
 9197TIP3    H151786   4.387   1.222  10.952 -0.1166 -0.8388 -1.9349
 9197TIP3    H251787   4.266   1.180  11.031 -0.4196  1.5203 -1.0718
 9198TIP3   OH251788   5.403   4.755   8.962 -0.3067  0.3059 -0.3327
 9198TIP3    H151789   5.494   4.730   8.977  0.5225  1.9743 -2.0883
 9198TIP3    H251790   5.397   4.844   8.997 -1.2846  0.1712 -0.1487
 9199TIP3   OH251791   8.225   3.424   9.035 -0.4679 -0.2366 -0.4407
 9199TIP3    H151792   8.313   3.422   8.997 -1.2039 -1.5644 -2.2481
 9199TIP3    H251793   8.210   3.334   9.066 -0.8562  0.1975  0.6585
 9200TIP3   OH251794   3.911   2.733  10.478  0.3064  0.1733  0.0053
 9200TIP3    H151795   3.951   2.657  10.520  0.0197  0.0888  0.1253
 9200TIP3    H251796   3.817   2.718  10.485  0.2403 -0.1447 -1.2062
 9201TIP3   OH251797   4.039   5.446  10.723 -0.0228  0.9322  0.1134
 9201TIP3    H151798   4.004   5.357  10.712 -0.2930  1.1947 -1.4167
 9201TIP3    H251799   3.964   5.496  10.755 -0.1879  0.8272 -0.0974
 9202TIP3   OH251800   5.693   1.720  10.347 -0.6036  0.4761  0.0977
 9202TIP3    H151801   5.621   1.749  10.403 -0.8687  1.0321 -0.5210
 9202TIP3    H251802   5.650   1.672  10.275 -0.2688 -0.2237  0.3517
 9203TIP3   OH251803   6.832   2.337  10.085  0.4667  0.0829  0.8889
 9203TIP3    H151804   6.861   2.370  10.000 -1.2793 -0.1044  0.1821
 9203TIP3    H251805   6.740   2.364  10.091 -0.0765 -1.7779  1.7209
 9204TIP3   OH251806   7.216   7.245   9.781 -0.0735  0.4866  0.4144
 9204TIP3    H151807   7.140   7.201   9.820 -1.2889  0.9224 -1.3097
 9204TIP3    H251808   7.188   7.336   9.771 -0.6753  0.0683 -3.1245
 9205TIP3   OH251809   4.693   0.333  10.164  0.0483 -0.2606 -0.3046
 9205TIP3    H151810   4.684   0.273  10.238  0.5737 -0.1257 -0.1264
 9205TIP3    H251811   4.783   0.320  10.133  0.9430  1.9157  1.0676
 9206TIP3   OH251812   6.767   0.586   8.922 -0.2910  0.1321  0.1260
 9206TIP3    H151813   6.683   0.560   8.885 -0.4881  1.3946 -0.3854
 9206TIP3    H251814   6.831   0.529   8.879 -0.7759 -0.0360 -0.3808
 9207TIP3   OH251815   6.021   3.705   9.176 -0.2744  0.4626  0.0550
 9207TIP3    H151816   5.966   3.713   9.098  0.5536  0.3624 -0.5466
 9207TIP3    H251817   5.960   3.676   9.244 -0.7741 -0.8132 -0.8744
 9208TIP3   OH251818   6.539   6.507   8.912  0.2175  0.2800 -0.1968
 9208TIP3    H151819   6.538   6.486   9.006  0.8336 -2.3588 -0.6916
 9208TIP3    H251820   6.521   6.601   8.908 -3.2173 -0.0789  2.3785
 9209TIP3   OH251821   4.354   0.240   9.176  0.1512 -0.2100  0.5237
 9209TIP3    H151822   4.369   0.219   9.084 -0.5710 -0.2874  0.4203
 9209TIP3    H251823   4.259   0.245   9.184  0.1568 -1.5050  1.5611
 9210TIP3   OH251824   2.746   0.913   8.422  0.3699  0.4363 -1.0235
 9210TIP3    H151825   2.757   1.001   8.387 -1.5806  1.3839  0.5464
 9210TIP3    H251826   2.673   0.921   8.484 -0.8816 -2.5931 -1.9245
 9211TIP3   OH251827   3.306   2.356   9.790  0.5446 -0.0419  0.2058
 9211TIP3    H151828   3.268   2.271   9.812 -1.5494  0.4985 -1.0162
 9211TIP3    H251829   3.235   2.403   9.745  2.4667  1.3496 -1.5558
 9212TIP3   OH251830   0.249   1.677   8.746  0.5792  0.3618 -0.7731
 9212TIP3    H151831   0.300   1.751   8.778 -0.9634  1.4812 -0.7934
 9212TIP3    H251832   0.158   1.706   8.751 -0.2155 -2.0073  0.4971
 9213TIP3   OH251833   6.463   0.038   8.915 -0.2276 -0.2205 -0.1827
 9213TIP3    H151834   6.374   0.074   8.909 -0.3729 -0.4671  0.4045
 9213TIP3    H251835   6.511   0.081   8.845 -0.8134 -0.0846 -0.5094
 9214TIP3   OH251836   3.313   3.198   9.422 -0.1247  0.3851 -0.0865
 9214TIP3    H151837   3.297   3.145   9.501 -0.2628 -0.4582 -0.6730
 9214TIP3    H251838   3.316   3.134   9.351  1.2128  1.0132 -0.6159
 9215TIP3   OH251839   7.914   7.703   8.852 -0.4096  0.3288 -0.0963
 9215TIP3    H151840   7.918   7.719   8.946 -1.8094  0.1079  0.0205
 9215TIP3    H251841   7.957   7.618   8.840  1.6528  1.3009  0.0457
 9216TIP3   OH251842   4.632   1.940  11.081 -0.0733  0.2031 -0.2259
 9216TIP3    H151843   4.703   1.911  11.024 -1.1982 -1.3741 -0.9137
 9216TIP3    H251844   4.599   2.019  11.040  1.4476  1.1317  0.2723
 9217TIP3   OH251845   2.285   7.020   9.694  0.3490 -0.0308 -0.1139
 9217TIP3    H151846   2.363   6.966   9.681  0.6626  0.3793  0.0408
 9217TIP3    H251847   2.317   7.110   9.684 -0.2651  0.1121 -0.8898
 9218TIP3   OH251848   3.487   3.251   9.109  0.1560  0.4846  0.1520
 9218TIP3    H151849   3.407   3.212   9.144  0.3205  0.1016  0.1098
 9218TIP3    H251850   3.456   3.317   9.047 -0.1280  0.4730  0.2778
 9219TIP3   OH251851   3.119   7.483   9.116 -0.6100 -0.4541  0.4219
 9219TIP3    H151852   3.103   7.415   9.182  0.1974 -1.1866 -0.1165
 9219TIP3    H251853   3.167   7.438   9.046  0.1942  0.7264  0.1757
 9220TIP3   OH251854   3.147   5.266   9.775 -0.1364 -0.1138 -0.3886
 9220TIP3    H151855   3.127   5.283   9.867 -1.4753  1.4958 -0.9305
 9220TIP3    H251856   3.061   5.252   9.734  0.4998 -1.6691 -1.2555
 9221TIP3   OH251857   8.304   3.203   9.462  0.9829 -0.4404  0.0659
 9221TIP3    H151858   8.349   3.124   9.490 -0.9650 -1.3844  0.7579
 9221TIP3    H251859   8.251   3.229   9.538  0.6816  0.8538 -0.5456
 9222TIP3   OH251860   6.134   6.063   9.279  0.5786  0.1538  0.0581
 9222TIP3    H151861   6.085   6.057   9.196 -1.9347 -1.6651  1.5344
 9222TIP3    H251862   6.195   5.989   9.276 -0.4209 -0.7058  0.3249
 9223TIP3   OH251863   3.809   4.868   9.794  0.3411  0.6744  0.0717
 9223TIP3    H151864   3.837   4.960   9.787  2.4325  0.2940  2.2203
 9223TIP3    H251865   3.719   4.873   9.828  0.9140  1.9695  1.5224
 9224TIP3   OH251866   6.186   2.446   9.219  0.3533  0.3045 -0.0028
 9224TIP3    H151867   6.218   2.393   9.146 -1.6040 -1.2966  0.2320
 9224TIP3    H251868   6.205   2.537   9.193  1.8898 -0.3516 -1.3541
 9225TIP3   OH251869   1.605   7.215   9.382  0.3575  0.3866 -0.1734
 9225TIP3    H151870   1.620   7.227   9.476 -0.5400  1.7892 -0.1833
 9225TIP3    H251871   1.517   7.176   9.377  0.7262 -0.4251 -0.4063
 9226TIP3   OH251872   1.859   7.888  10.199 -0.1397 -0.4343 -0.1805
 9226TIP3    H151873   1.918   7.874  10.274 -0.8395 -1.1506  0.2488
 9226TIP3    H251874   1.855   7.983  10.190  2.1089 -0.3496 -1.0519
 9227TIP3   OH251875   5.459   2.794   8.714 -0.2398 -0.0486 -0.0569
 9227TIP3    H151876   5.540   2.747   8.692 -0.3998 -0.0338 -0.6830
 9227TIP3    H251877   5.451   2.784   8.809  0.1457 -0.6170 -0.0802
 9228TIP3   OH251878   6.685   8.254   9.463 -0.4156  0.5493  0.0655
 9228TIP3    H151879   6.618   8.273   9.397 -0.7287  1.1634  0.5486
 9228TIP3    H251880   6.718   8.340   9.489  0.6580  0.2460 -0.2554
 9229TIP3   OH251881   0.863   3.348   9.537  0.0645 -0.2854  0.0344
 9229TIP3    H151882   0.872   3.439   9.566  0.9414  0.2702 -1.8233
 9229TIP3    H251883   0.806   3.307   9.602  2.0762  0.7887  2.6284
 9230TIP3   OH251884   7.678   6.174   9.948 -0.2976  0.2487  0.5341
 9230TIP3    H151885   7.652   6.228   9.873 -1.6386 -1.7505 -0.5446
 9230TIP3    H251886   7.603   6.177  10.007 -0.4117 -0.4425  0.4356
 9231TIP3   OH251887   2.568   2.356   8.574  0.6341 -0.4056 -0.2411
 9231TIP3    H151888   2.499   2.419   8.594  0.8274 -0.2066 -0.2021
 9231TIP3    H251889   2.524   2.271   8.575  0.7728 -0.4978  1.8146
 9232TIP3   OH251890   7.365   5.569   9.346  0.2519 -0.5288  0.0611
 9232TIP3    H151891   7.379   5.521   9.427  1.2241 -0.0469  0.1957
 9232TIP3    H251892   7.307   5.513   9.294  0.8468 -1.5526  0.4686
 9233TIP3   OH251893   8.262   4.879   9.906 -0.0149 -0.4064  0.2622
 9233TIP3    H151894   8.294   4.828   9.831 -0.2250  2.4164 -1.9109
 9233TIP3    H251895   8.326   4.949   9.917 -1.9158  1.4707  0.1623
 9234TIP3   OH251896   6.782   0.612  10.185 -0.0079  0.5778 -0.1684
 9234TIP3    H151897   6.731   0.634  10.108 -0.3874 -0.0001 -0.0932
 9234TIP3    H251898   6.796   0.695  10.230  1.1659  1.0936 -1.4229
 9235TIP3   OH251899   6.086   1.501  10.168  0.3278 -0.6037 -0.2792
 9235TIP3    H151900   6.141   1.477  10.243 -1.9801 -1.6272  1.2068
 9235TIP3    H251901   6.059   1.591  10.186  1.7284  0.0296 -1.1956
 9236TIP3   OH251902   6.340   3.819   9.818 -0.1297 -0.2134  0.9473
 9236TIP3    H151903   6.246   3.816   9.836  0.0416  0.4770  2.0617
 9236TIP3    H251904   6.346   3.828   9.723 -1.1353 -2.0788  0.6517
 9237TIP3   OH251905   1.729   2.858  10.384  0.3295 -0.1450 -0.6637
 9237TIP3    H151906   1.786   2.835  10.311  1.6129 -0.7343  0.4778
 9237TIP3    H251907   1.661   2.791  10.384  0.4719 -0.2932 -1.1366
 9238TIP3   OH251908   0.681   0.835   9.463  0.3350 -0.1416 -0.3875
 9238TIP3    H151909   0.770   0.871   9.459  0.3037 -0.0136 -0.0004
 9238TIP3    H251910   0.684   0.759   9.405  1.3027 -1.3946  1.1910
 9239TIP3   OH251911   4.875   6.291  10.369 -0.4371  0.0522 -0.1661
 9239TIP3    H151912   4.783   6.300  10.394 -0.4640 -0.2060 -0.1711
 9239TIP3    H251913   4.906   6.381  10.357 -0.3751  0.2017  0.9871
 9240TIP3   OH251914   4.691   5.913  10.020 -0.1541 -0.1994 -0.2411
 9240TIP3    H151915   4.604   5.890  10.052  0.9480 -0.2286  3.1829
 9240TIP3    H251916   4.745   5.837  10.041  0.8255 -0.0480 -1.9789
 9241TIP3   OH251917   8.038   4.762  10.294 -0.1751 -0.8342 -0.4408
 9241TIP3    H151918   8.010   4.842  10.250 -0.8982 -0.6423  0.3387
 9241TIP3    H251919   8.128   4.778  10.320  0.1962 -0.8742 -1.6461
 9242TIP3   OH251920   5.826   7.216   9.439 -0.3303  0.3233  0.5381
 9242TIP3    H151921   5.840   7.240   9.347  1.6118 -1.3391  0.3380
 9242TIP3    H251922   5.762   7.280   9.470 -1.6363  0.4902 -2.1545
 9243TIP3   OH251923   8.323   7.462   8.878  0.6121  0.5533  0.3196
 9243TIP3    H151924   8.381   7.396   8.916 -1.4528 -1.9209 -0.5366
 9243TIP3    H251925   8.271   7.495   8.951 -0.6914 -1.3622  0.3214
 9244TIP3   OH251926   4.657   6.751  10.138  0.0117  0.4529  0.4270
 9244TIP3    H151927   4.723   6.812  10.172  0.8715 -0.9665  1.3866
 9244TIP3    H251928   4.691   6.664  10.160 -1.5711 -0.3540 -0.1999
 9245TIP3   OH251929   1.534   2.961   9.199  0.4950 -0.5037  0.7606
 9245TIP3    H151930   1.544   2.917   9.115 -0.3759 -0.8171  0.8151
 9245TIP3    H251931   1.503   3.049   9.176 -2.1257 -1.3484  0.8302
 9246TIP3   OH251932   1.366   0.215  10.439  0.0744 -0.0049  0.5162
 9246TIP3    H151933   1.296   0.151  10.451 -0.9655  0.6610 -1.5482
 9246TIP3    H251934   1.328   0.298  10.469  0.3056  0.1959  0.2627
 9247TIP3   OH251935   0.298   3.728   9.446 -0.3977  0.1872  0.1851
 9247TIP3    H151936   0.369   3.752   9.386 -0.6766  0.3295 -0.0923
 9247TIP3    H251937   0.307   3.634   9.457  0.3582  0.3233  0.8287
 9248TIP3   OH251938   7.709   1.735   9.757 -0.3009  0.3327  0.0470
 9248TIP3    H151939   7.717   1.640   9.759  1.0731  0.3199 -2.4987
 9248TIP3    H251940   7.698   1.757   9.664 -0.6514  2.6630  0.5732
 9249TIP3   OH251941   4.378   3.444  10.675  0.0148 -0.2237  0.3196
 9249TIP3    H151942   4.320   3.369  10.686 -0.7664  0.2805 -0.2633
 9249TIP3    H251943   4.333   3.500  10.612  1.6705 -0.3566 -1.0592
 9250TIP3   OH251944   7.528   2.916  10.498  0.3168  0.0596  0.3983
 9250TIP3    H151945   7.459   2.980  10.515 -0.3054 -0.7811  1.1606
 9250TIP3    H251946   7.481   2.835  10.478  1.0714  0.1310 -1.9449
 9251TIP3   OH251947   0.627   4.983  11.272  0.5398 -0.1521  0.2310
 9251TIP3    H151948   0.579   4.901  11.280  1.4819 -0.7838 -0.4171
 9251TIP3    H251949   0.560   5.049  11.252  0.0733 -1.3179 -2.5498
 9252TIP3   OH251950   3.589   3.067   9.445 -0.4448 -0.2331 -0.2317
 9252TIP3    H151951   3.618   3.010   9.374  1.7690  0.1004  0.3143
 9252TIP3    H251952   3.513   3.023   9.482  0.0657 -1.8685 -1.0117
 9253TIP3   OH251953   2.224   4.971   8.749  0.5934  0.2450  0.5921
 9253TIP3    H151954   2.249   4.879   8.737  0.7759  0.2827  0.6792
 9253TIP3    H251955   2.166   4.970   8.825  0.4903  0.1821  0.5112
 9254TIP3   OH251956   5.044   2.908   8.932 -0.0861  0.0384  0.1340
 9254TIP3    H151957   4.965   2.885   8.980 -0.7830  0.2609 -0.8860
 9254TIP3    H251958   5.018   2.909   8.840  1.5040 -1.6022 -0.4106
 9255TIP3   OH251959   0.151   8.163  10.091 -0.1440  0.3668 -0.0839
 9255TIP3    H151960   0.172   8.119  10.009 -0.3638  0.2718 -0.0899
 9255TIP3    H251961   0.131   8.253  10.065 -2.3199 -0.1693 -0.4166
 9256TIP3   OH251962   3.396   1.619   9.276 -0.0492 -0.2365  0.1606
 9256TIP3    H151963   3.352   1.589   9.197  0.6028 -0.8811  0.0295
 9256TIP3    H251964   3.429   1.539   9.317  0.9636  0.2214  0.2692
 9257TIP3   OH251965   2.509   1.029   8.530 -0.4851 -0.1343  0.1076
 9257TIP3    H151966   2.501   0.973   8.608 -1.5283  0.6266  0.5778
 9257TIP3    H251967   2.456   1.106   8.551  2.0634  1.7562  0.1107
 9258TIP3   OH251968   8.218   1.365   9.855 -0.4413  0.4721  0.7197
 9258TIP3    H151969   8.312   1.353   9.845 -0.7320 -1.8806  0.0255
 9258TIP3    H251970   8.197   1.439   9.798  0.8329  0.2498 -0.0841
 9259TIP3   OH251971   5.314   7.288  10.679 -0.3080 -0.1081  0.3027
 9259TIP3    H151972   5.292   7.343  10.754 -1.7839  0.0537 -0.2281
 9259TIP3    H251973   5.298   7.198  10.710 -1.1817 -0.0254  0.1070
 9260TIP3   OH251974   6.258   0.059   9.723 -0.4727 -0.1828 -0.1509
 9260TIP3    H151975   6.226  -0.028   9.698  0.6841 -0.1810 -1.8346
 9260TIP3    H251976   6.343   0.066   9.679  0.9752  0.5517  2.5639
 9261TIP3   OH251977   5.860   7.927  10.655 -0.1072  0.5674  0.0425
 9261TIP3    H151978   5.791   7.877  10.611 -0.7479 -0.0502  1.6824
 9261TIP3    H251979   5.831   8.018  10.649  0.2792  0.6129 -1.5798
 9262TIP3   OH251980   4.838   7.928   9.301 -0.2815 -0.2354  0.7388
 9262TIP3    H151981   4.873   7.858   9.357 -0.1428  0.2373  1.2455
 9262TIP3    H251982   4.794   7.881   9.230  0.7647 -0.8395  0.4652
 9263TIP3   OH251983   8.344   4.487   8.978  0.0997  0.1297 -0.1008
 9263TIP3    H151984   8.265   4.537   8.958  0.4823  0.0765 -1.9038
 9263TIP3    H251985   8.313   4.397   8.986 -0.0676  0.1533 -0.4649
 9264TIP3   OH251986   0.339   6.774  10.060  0.5362 -0.1244  0.1997
 9264TIP3    H151987   0.262   6.813  10.102  1.0429 -0.8597  1.9085
 9264TIP3    H251988   0.304   6.703  10.006 -0.0928  0.5487 -0.3069
 9265TIP3   OH251989   4.224   3.552  10.491 -0.0922 -0.0312 -0.4524
 9265TIP3    H151990   4.134   3.576  10.516 -0.0437 -0.0811 -0.2315
 9265TIP3    H251991   4.217   3.527  10.399 -0.3843 -0.4717 -0.3116
 9266TIP3   OH251992   0.462   5.157   8.643 -0.3525 -0.3673 -0.1163
 9266TIP3    H151993   0.458   5.185   8.552 -1.4571  0.5175  0.1760
 9266TIP3    H251994   0.556   5.156   8.664 -0.1627  1.1411 -0.7592
 9267TIP3   OH251995   6.058   6.400   9.288  0.3891 -0.6082 -0.0624
 9267TIP3    H151996   6.146   6.384   9.322 -0.1314 -1.0728  1.1125
 9267TIP3    H251997   6.039   6.323   9.235  1.3130  0.2462 -1.7402
 9268TIP3   OH251998   8.433   7.149  10.164  0.1968 -0.1419 -0.7009
 9268TIP3    H151999   8.405   7.066  10.127 -1.7495  0.7952 -1.4309
 9268TIP3    H252000   8.382   7.215  10.117  1.9302  1.5133 -0.3857
 9269TIP3   OH252001   6.002   7.141   8.701  0.3898 -0.8277 -0.9080
 9269TIP3    H152002   6.096   7.134   8.685  0.5591 -1.2898  0.2605
 9269TIP3    H252003   5.962   7.112   8.619  1.2490 -1.6557 -1.0514
 9270TIP3   OH252004   5.310   3.400  10.089 -0.2785 -0.4597 -0.2391
 9270TIP3    H152005   5.265   3.485  10.087 -1.9654 -1.3297 -0.7118
 9270TIP3    H252006   5.299   3.365  10.001 -0.7094 -1.7322  0.3101
 9271TIP3   OH252007   5.484   3.020  10.425 -0.4813  0.4424 -0.3420
 9271TIP3    H152008   5.453   3.087  10.364 -1.6300 -1.8177 -2.4021
 9271TIP3    H252009   5.551   2.973  10.376 -0.1929 -0.3639  0.7930
 9272TIP3   OH252010   0.317   5.343   8.828 -0.3032 -0.0797 -0.0071
 9272TIP3    H152011   0.400   5.296   8.824  0.6064  1.4994 -0.0873
 9272TIP3    H252012   0.255   5.285   8.781  0.4871 -1.7102  0.8749
 9273TIP3   OH252013   6.966   5.335   9.680  0.2807 -0.0640 -0.8013
 9273TIP3    H152014   6.917   5.337   9.597  0.6037  0.2174 -0.9853
 9273TIP3    H252015   6.903   5.366   9.745  0.0611 -0.1720 -0.9589
 9274TIP3   OH252016   1.192   3.892   9.432  0.1440 -0.3653  0.1823
 9274TIP3    H152017   1.200   3.941   9.350  1.4851  0.0761  0.5457
 9274TIP3    H252018   1.261   3.826   9.427 -0.0753 -0.6392  0.7488
 9275TIP3   OH252019   3.512   1.859  10.473 -0.0928  0.1732 -0.0332
 9275TIP3    H152020   3.462   1.786  10.509  0.6500  0.2889  1.2849
 9275TIP3    H252021   3.587   1.818  10.430 -1.5027 -0.0393 -2.4830
 9276TIP3   OH252022   0.612   5.561   8.665  0.1567 -0.1667  0.0625
 9276TIP3    H152023   0.536   5.584   8.718 -0.7925 -2.9862  0.0981
 9276TIP3    H252024   0.577   5.547   8.578  1.1921  1.3239 -0.6450
 9277TIP3   OH252025   0.425   2.733  10.231  0.5367 -0.2938 -0.3768
 9277TIP3    H152026   0.511   2.769  10.250  0.7487 -1.5574  1.3390
 9277TIP3    H252027   0.421   2.652  10.282 -1.8874  0.0076  0.0653
 9278TIP3   OH252028   3.688   4.993   8.840  0.3584 -0.3944 -0.3323
 9278TIP3    H152029   3.750   5.055   8.878  0.5339 -0.4844 -0.4734
 9278TIP3    H252030   3.739   4.914   8.824 -0.2816 -1.2741  1.6561
 9279TIP3   OH252031   8.418   4.387  11.353 -0.8965  0.4049 -0.2214
 9279TIP3    H152032   8.501   4.342  11.338 -1.0105  0.6743 -1.7924
 9279TIP3    H252033   8.354   4.338  11.302 -1.6520  0.4396  0.6547
 9280TIP3   OH252034   4.300   7.480   9.851 -0.4996  0.5381  0.4116
 9280TIP3    H152035   4.248   7.490   9.770 -0.9963  0.7784  0.7560
 9280TIP3    H252036   4.381   7.438   9.822 -0.2065  1.6083 -0.3892
 9281TIP3   OH252037   5.931   4.815   9.370 -0.0661 -0.2681 -0.3016
 9281TIP3    H152038   5.971   4.735   9.406 -1.7043 -1.3569 -0.8166
 9281TIP3    H252039   5.964   4.885   9.427  2.3143 -1.1047 -0.5046
 9282TIP3   OH252040   5.308   1.187  10.123 -0.2379  0.6818 -0.0415
 9282TIP3    H152041   5.252   1.180  10.045  1.8756  0.2511 -1.5944
 9282TIP3    H252042   5.339   1.098  10.138  0.0858  0.9241  0.7643
 9283TIP3   OH252043   0.263   6.148  10.408 -0.6420 -0.2449 -0.6062
 9283TIP3    H152044   0.355   6.174  10.403 -0.5093 -0.5775  0.0816
 9283TIP3    H252045   0.215   6.231  10.402 -0.2677  0.0176 -0.0616
 9284TIP3   OH252046   5.863   7.509  10.683 -0.0623 -0.0003  0.0500
 9284TIP3    H152047   5.952   7.531  10.657 -0.6942  1.5467 -0.9582
 9284TIP3    H252048   5.834   7.446  10.617  0.5321 -1.1523  0.8554
 9285TIP3   OH252049   1.440   6.331  10.562  0.7615 -0.1969  0.2464
 9285TIP3    H152050   1.416   6.416  10.600 -0.3194 -1.6834  3.1680
 9285TIP3    H252051   1.360   6.279  10.567  1.3115 -1.3654 -1.8107
 9286TIP3   OH252052   2.347   2.503   8.791 -0.5124 -0.2662 -0.0420
 9286TIP3    H152053   2.426   2.466   8.831 -0.8452 -0.6349  0.2809
 9286TIP3    H252054   2.281   2.498   8.860 -1.2696 -1.4667 -0.8155
 9287TIP3   OH252055   6.277   2.657   9.659  0.2046  0.4981  0.2516
 9287TIP3    H152056   6.313   2.637   9.746 -0.5559  1.6869  0.8747
 9287TIP3    H252057   6.354   2.672   9.604  0.6862  1.1978  1.0996
 9288TIP3   OH252058   7.552   4.417   9.104 -0.0395  0.1164 -0.1297
 9288TIP3    H152059   7.487   4.443   9.169  1.1143 -0.6573  1.3898
 9288TIP3    H252060   7.509   4.349   9.053 -0.3340 -0.6334  1.0739
 9289TIP3   OH252061   6.544   2.141   9.643 -0.0153  0.3332 -0.1742
 9289TIP3    H152062   6.520   2.048   9.651 -0.4933  0.5412  0.8274
 9289TIP3    H252063   6.585   2.146   9.556 -1.0240 -0.5903 -0.7406
 9290TIP3   OH252064   8.394   2.746   9.685 -0.1724 -0.0282  0.2530
 9290TIP3    H152065   8.458   2.684   9.649 -0.1369 -0.4080  0.9478
 9290TIP3    H252066   8.429   2.767   9.771  0.7955  2.4146 -0.6537
 9291TIP3   OH252067   2.428   6.871   8.333 -0.0684  0.0309  0.2784
 9291TIP3    H152068   2.494   6.933   8.366 -0.5843 -0.8867  3.2777
 9291TIP3    H252069   2.477   6.791   8.316  0.0963  0.3286 -0.7232
 9292TIP3   OH252070   4.523   7.334   9.781 -0.5735  0.2300 -0.6231
 9292TIP3    H152071   4.577   7.330   9.860  0.0426  1.2916 -0.9680
 9292TIP3    H252072   4.584   7.317   9.709 -0.7780  0.9816 -0.9816
 9293TIP3   OH252073   2.472   3.271   8.960 -0.2017 -0.6964 -0.4877
 9293TIP3    H152074   2.476   3.201   9.025  0.1058  1.1263  1.5652
 9293TIP3    H252075   2.562   3.278   8.927  0.3194  0.2122  1.0266
 9294TIP3   OH252076   6.379   2.293   9.796 -0.1687 -0.0665  0.1653
 9294TIP3    H152077   6.439   2.273   9.725 -0.3616  1.1525 -0.3736
 9294TIP3    H252078   6.359   2.209   9.836 -0.3809 -0.8403 -1.4894
 9295TIP3   OH252079   6.662   6.012   9.240  0.0165  0.9378 -0.1425
 9295TIP3    H152080   6.692   5.934   9.192 -0.0450  0.2951  0.8286
 9295TIP3    H252081   6.619   6.066   9.174 -2.2847 -1.0528 -0.4038
 9296TIP3   OH252082   6.674   4.440  10.985  0.1422 -0.2624  0.2987
 9296TIP3    H152083   6.738   4.455  11.054  0.9461 -0.9507 -0.2804
 9296TIP3    H252084   6.674   4.345  10.972 -0.8846 -0.2619  0.1794
 9297TIP3   OH252085   7.175   3.135   9.275 -0.0428 -0.1996 -0.8980
 9297TIP3    H152086   7.227   3.145   9.355 -1.0933 -0.5497 -0.1383
 9297TIP3    H252087   7.120   3.058   9.292 -0.8360  0.1818 -1.6456
 9298TIP3   OH252088   2.522   4.414   9.120 -0.3291  0.0262 -0.8478
 9298TIP3    H152089   2.599   4.445   9.167 -1.3853  0.6196  0.5781
 9298TIP3    H252090   2.546   4.420   9.028  2.3846 -2.6174 -0.4585
 9299TIP3   OH252091   6.101   0.693   9.422  0.5051  0.1222 -0.2280
 9299TIP3    H152092   6.108   0.785   9.399  0.8397  0.0771 -0.3201
 9299TIP3    H252093   6.008   0.679   9.439  0.1834  0.0946 -1.8505
 9300TIP3   OH252094   1.501   2.366  10.402  0.0015 -0.7411 -0.9154
 9300TIP3    H152095   1.549   2.341  10.323  0.6270 -0.8534 -0.5128
 9300TIP3    H252096   1.412   2.383  10.372  0.6740  1.2682 -2.0251
 9301TIP3   OH252097   7.102   3.404   9.233 -1.0644  0.2924  0.0535
 9301TIP3    H152098   7.124   3.310   9.232  3.5355  1.0873 -2.6196
 9301TIP3    H252099   7.042   3.415   9.159 -1.0047 -0.4185 -0.1131
 9302TIP3   OH252100   7.866   5.986   9.221 -0.3862 -0.1415 -0.0845
 9302TIP3    H152101   7.909   5.972   9.137 -1.7881 -0.5769 -0.7697
 9302TIP3    H252102   7.864   6.081   9.232 -0.2799 -0.0775 -0.6024
 9303TIP3   OH252103   5.284   1.130   8.960 -0.6512 -0.1295 -0.2459
 9303TIP3    H152104   5.190   1.120   8.969 -0.5708 -0.5225  0.2109
 9303TIP3    H252105   5.316   1.042   8.938 -0.5303  0.2620 -1.8002
 9304TIP3   OH252106   4.614   6.213   9.768 -0.1504 -0.3752 -0.0052
 9304TIP3    H152107   4.601   6.204   9.863 -1.8399  1.9047  0.0708
 9304TIP3    H252108   4.627   6.124   9.737 -2.6603 -1.5583  1.9830
 9305TIP3   OH252109   2.476   1.601   8.446  0.1342 -0.0392 -0.4331
 9305TIP3    H152110   2.511   1.529   8.499 -1.0619  1.8314  3.2190
 9305TIP3    H252111   2.381   1.599   8.461  0.0396  2.1139 -0.3685
 9306TIP3   OH252112   7.718   3.508   9.116  0.2148  0.2370 -0.0121
 9306TIP3    H152113   7.710   3.572   9.186 -0.0944  2.4757 -1.9445
 9306TIP3    H252114   7.779   3.548   9.054 -2.1670  0.0776 -2.6883
 9307TIP3   OH252115   7.710   4.654   9.102 -0.0418  0.0028 -0.3881
 9307TIP3    H152116   7.774   4.605   9.050 -1.5406 -1.8240 -0.5982
 9307TIP3    H252117   7.639   4.592   9.118 -1.6988  1.8959 -0.0099
 9308TIP3   OH252118   3.154   6.917   9.728 -0.7435 -0.3488  0.4966
 9308TIP3    H152119   3.119   6.893   9.814 -0.9564  0.7874  0.7387
 9308TIP3    H252120   3.248   6.927   9.741 -0.4223 -2.3357  0.0831
 9309TIP3   OH252121   7.012   4.289  11.144  0.1087 -0.0848 -0.2091
 9309TIP3    H152122   7.102   4.298  11.113  0.3122 -0.1636  0.3466
 9309TIP3    H252123   6.984   4.378  11.163  0.2038 -0.0936 -0.0205
 9310TIP3   OH252124   8.069   1.819  10.614  0.0090  0.2539  0.8042
 9310TIP3    H152125   8.083   1.827  10.708  2.8718  2.6928  0.3300
 9310TIP3    H252126   8.069   1.725  10.597 -0.6154 -0.2256  3.2114
 9311TIP3   OH252127   6.287   4.615   9.866  0.1059  0.3005 -0.7302
 9311TIP3    H152128   6.257   4.697   9.827  2.2742  0.9059 -1.2840
 9311TIP3    H252129   6.364   4.641   9.918  0.6553 -1.3241 -0.6893
 9312TIP3   OH252130   8.213   6.111  10.802 -0.1027  0.3651  0.0867
 9312TIP3    H152131   8.266   6.107  10.882 -0.1867 -3.0827  0.1064
 9312TIP3    H252132   8.270   6.154  10.739  1.0941  0.5619  1.2407
 9313TIP3   OH252133   0.927   0.748  10.842  0.2184 -0.4071  0.4706
 9313TIP3    H152134   0.918   0.714  10.931 -1.8992  1.4614  1.0742
 9313TIP3    H252135   1.015   0.785  10.839 -0.0924  0.6079  2.2451
 9314TIP3   OH252136   0.895   7.775  10.300  0.4121  0.3593 -0.0411
 9314TIP3    H152137   0.805   7.746  10.285  0.6525 -0.6254  0.3152
 9314TIP3    H252138   0.949   7.701  10.272  1.0706  0.6073  0.5412
 9315TIP3   OH252139   8.390   0.698   8.760 -0.1772  0.5951 -0.3727
 9315TIP3    H152140   8.477   0.658   8.757 -0.1766  0.4244  0.9902
 9315TIP3    H252141   8.406   0.792   8.763 -0.0286  0.5649 -0.1756
 9316TIP3   OH252142   2.517   7.454   9.956 -0.2102  0.2896  0.2644
 9316TIP3    H152143   2.516   7.490  10.045  2.7829 -0.6456  0.7988
 9316TIP3    H252144   2.594   7.494   9.915 -0.9680 -0.0587 -1.5814
 9317TIP3   OH252145   2.410   5.116   9.936 -0.1374 -0.2679 -0.1318
 9317TIP3    H152146   2.461   5.093   9.858 -1.8354 -0.3461 -1.2627
 9317TIP3    H252147   2.414   5.212   9.939  1.9826 -0.3361  1.1630
 9318TIP3   OH252148   7.318   2.588   9.090 -0.7330  0.3776 -0.0935
 9318TIP3    H152149   7.362   2.662   9.133  2.4636 -0.3311 -1.8001
 9318TIP3    H252150   7.328   2.515   9.152 -0.5282  0.5101  0.0335
 9319TIP3   OH252151   7.651   5.557   9.490 -0.5287 -0.1000 -0.4015
 9319TIP3    H152152   7.588   5.537   9.420  0.3034 -2.7232 -0.5147
 9319TIP3    H252153   7.724   5.599   9.445  0.2367 -2.2480 -1.2805
 9320TIP3   OH252154   5.866   0.940   9.566 -0.6543 -0.1372 -0.7471
 9320TIP3    H152155   5.889   0.899   9.483  0.5954  0.0797 -0.5344
 9320TIP3    H252156   5.847   1.031   9.544 -0.6371 -0.1565 -0.8404
 9321TIP3   OH252157   5.759   5.865   8.861  0.2300 -0.2735 -0.1874
 9321TIP3    H152158   5.684   5.805   8.856 -1.4987  1.7186 -0.0247
 9321TIP3    H252159   5.800   5.845   8.945 -1.6926  0.2163  0.9439
 9322TIP3   OH252160   4.803   2.643  10.839 -0.3330  0.2051 -0.0350
 9322TIP3    H152161   4.728   2.630  10.896  0.2084 -2.0941  0.2503
 9322TIP3    H252162   4.878   2.610  10.889  0.1482 -1.9413 -1.9922
 9323TIP3   OH252163   2.136   0.244   9.446  0.3855 -0.2812 -0.0895
 9323TIP3    H152164   2.133   0.235   9.351 -1.5599  0.7614 -0.1932
 9323TIP3    H252165   2.214   0.297   9.464 -0.4009  1.3868 -1.3399
 9324TIP3   OH252166   5.726   5.361   9.403 -0.2190 -0.0383 -0.2773
 9324TIP3    H152167   5.789   5.423   9.367  1.0449 -0.1731  1.5640
 9324TIP3    H252168   5.647   5.413   9.418 -0.6520  0.1106 -2.6830
 9325TIP3   OH252169   8.004   2.250  10.836 -0.0530 -0.7293  0.0908
 9325TIP3    H152170   8.062   2.279  10.907 -1.5907 -0.5118  1.3017
 9325TIP3    H252171   7.917   2.248  10.875 -1.3280  1.4489 -2.3594
 9326TIP3   OH252172   3.153   0.888   9.754 -0.0410  0.5227  0.0999
 9326TIP3    H152173   3.132   0.875   9.661 -0.9544 -0.4754  0.4227
 9326TIP3    H252174   3.184   0.802   9.783 -0.3289  0.6717  0.8602
 9327TIP3   OH252175   6.001   4.037   9.675  0.1014 -0.0614 -0.0837
 9327TIP3    H152176   6.030   4.122   9.708  0.3334  0.0379 -0.5320
 9327TIP3    H252177   6.043   4.030   9.589 -0.9967 -0.0378 -0.6321
 9328TIP3   OH252178   4.027   6.884   9.586 -0.5498 -0.1816 -0.1627
 9328TIP3    H152179   4.009   6.851   9.674 -1.6258  0.7755 -0.0003
 9328TIP3    H252180   3.957   6.846   9.532  0.1894 -0.8838 -0.6506
 9329TIP3   OH252181   3.374   1.529   8.890 -0.2728  0.2679 -0.5287
 9329TIP3    H152182   3.433   1.600   8.865 -1.2545  1.1455 -0.4837
 9329TIP3    H252183   3.429   1.465   8.935  0.7271  0.7740 -1.0101
 9330TIP3   OH252184   2.525   3.035   9.107  0.9257 -0.2755  0.0089
 9330TIP3    H152185   2.495   2.988   9.185 -0.7889  0.2627 -0.2819
 9330TIP3    H252186   2.576   2.971   9.057 -0.2311 -1.4190  0.2733
 9331TIP3   OH252187   0.581   4.805   8.851  0.4653  0.0722 -0.4346
 9331TIP3    H152188   0.656   4.776   8.800 -0.4811 -1.4448 -1.0361
 9331TIP3    H252189   0.539   4.725   8.881  0.3982  0.9070  1.9427
 9332TIP3   OH252190   0.019   5.104   9.260 -0.0033 -0.1659  0.7056
 9332TIP3    H152191  -0.039   5.174   9.288 -1.1822 -1.4806  1.7017
 9332TIP3    H252192  -0.039   5.040   9.219  1.3454  0.5196 -2.5937
 9333TIP3   OH252193   4.186   8.376  10.688  0.6145 -0.5559  0.2430
 9333TIP3    H152194   4.216   8.372  10.779  0.0986 -0.6734  0.4150
 9333TIP3    H252195   4.180   8.285  10.660  0.9071 -0.5146  0.0422
 9334TIP3   OH252196   6.667   2.616   9.961 -0.4026  0.4433  0.2741
 9334TIP3    H152197   6.725   2.688   9.985 -1.3506  1.3845 -0.1938
 9334TIP3    H252198   6.720   2.561   9.903  0.3242  0.7578  0.6279
 9335TIP3   OH252199   2.832   6.539  10.336 -0.4416 -0.0003  0.0520
 9335TIP3    H152200   2.854   6.608  10.399 -0.0718  0.0953 -0.1806
 9335TIP3    H252201   2.789   6.584  10.264 -0.3021 -0.0229 -0.0476
 9336TIP3   OH252202   6.469   7.266   9.056  0.5910 -0.4869  0.2494
 9336TIP3    H152203   6.479   7.360   9.041  0.1058 -0.3105  1.0016
 9336TIP3    H252204   6.559   7.232   9.053  0.6514 -0.3202 -1.8655
 9337TIP3   OH252205   0.346   5.872   8.746 -0.5344 -0.1459  0.1212
 9337TIP3    H152206   0.398   5.941   8.786 -0.5964 -0.3294  0.5285
 9337TIP3    H252207   0.397   5.792   8.760 -0.8565 -0.3064  0.4057
 9338TIP3   OH252208   7.061   4.880   9.219  0.5093  0.3818  0.4128
 9338TIP3    H152209   7.099   4.855   9.304 -1.1521 -0.4101  0.9665
 9338TIP3    H252210   7.068   4.801   9.165  0.8436  0.6445  0.0648
 9339TIP3   OH252211   6.145   6.872   9.517  0.2065 -0.6197 -0.3582
 9339TIP3    H152212   6.103   6.880   9.432  1.8448 -0.1100 -1.1583
 9339TIP3    H252213   6.226   6.923   9.509  1.9915 -3.1255  0.4258
 9340TIP3   OH252214   7.203   6.364   8.518 -0.1809  0.0657  0.0534
 9340TIP3    H152215   7.195   6.448   8.562  0.6740  1.3759 -2.1320
 9340TIP3    H252216   7.126   6.315   8.545 -0.5095  1.3767  1.6774
 9341TIP3   OH252217   8.283   7.127   9.278 -0.1912  0.5884  0.2379
 9341TIP3    H152218   8.338   7.076   9.219 -0.5152  1.3909 -0.8149
 9341TIP3    H252219   8.244   7.063   9.337  0.9681 -0.1185  0.2522
 9342TIP3   OH252220   7.030   6.814   9.293  0.0849 -0.1723  0.8492
 9342TIP3    H152221   7.069   6.775   9.214  1.5373  1.1732  0.8474
 9342TIP3    H252222   7.089   6.787   9.364 -1.7128 -2.1680  1.7245
 9343TIP3   OH252223   4.825   1.161   8.936  0.4190 -0.7112  0.0559
 9343TIP3    H152224   4.769   1.205   9.000 -1.5159 -0.8976 -1.3960
 9343TIP3    H252225   4.883   1.230   8.904  0.6123 -0.3525  1.1322
 9344TIP3   OH252226   5.715   3.996   9.686  0.1871 -0.1255  0.0721
 9344TIP3    H152227   5.804   4.030   9.689  0.6836 -1.4367  1.9035
 9344TIP3    H252228   5.672   4.036   9.762  0.1071 -1.6702  0.8949
 9345TIP3   OH252229   0.898   6.972  10.023 -0.0632 -0.2178  0.5359
 9345TIP3    H152230   0.926   6.997  10.111  0.5375  0.3182  0.1956
 9345TIP3    H252231   0.874   6.879  10.032  2.1892 -0.8297  0.7805
 9346TIP3   OH252232   4.659   6.797   9.724  0.0567  0.2572  0.2879
 9346TIP3    H152233   4.585   6.836   9.677 -0.6893 -0.9610  0.4064
 9346TIP3    H252234   4.696   6.734   9.662  0.9497  0.7819  0.2714
 9347TIP3   OH252235   1.491   1.796   9.039  0.1755 -0.2735  0.3254
 9347TIP3    H152236   1.414   1.851   9.028 -0.4067 -0.9825  0.7338
 9347TIP3    H252237   1.541   1.837   9.109  2.3303  2.5267 -2.5960
 9348TIP3   OH252238   0.764   7.427   9.326 -0.3510  0.4400  0.0946
 9348TIP3    H152239   0.799   7.340   9.305 -1.0535 -0.0756  0.9679
 9348TIP3    H252240   0.685   7.409   9.377  0.1056  1.6034  1.2753
 9349TIP3   OH252241   6.706   8.134   9.702  0.1219 -0.0011  0.0795
 9349TIP3    H152242   6.698   8.154   9.608 -0.7706 -2.4431 -0.4569
 9349TIP3    H252243   6.800   8.135   9.719  0.3430 -0.2723 -1.0496
 9350TIP3   OH252244   6.796   5.766   9.101 -0.1854 -0.2525 -0.4208
 9350TIP3    H152245   6.823   5.713   9.025  0.8432 -0.3304 -0.0204
 9350TIP3    H252246   6.877   5.777   9.152 -0.3812  1.6231 -0.4413
 9351TIP3   OH252247   0.627   2.005   9.965 -0.4653  0.2106  0.0983
 9351TIP3    H152248   0.582   1.984  10.046  0.0907  2.4120  1.0580
 9351TIP3    H252249   0.560   2.045   9.909 -0.5865 -0.2157 -0.0610
 9352TIP3   OH252250   7.121   6.011   9.585  0.2294 -0.0129 -0.0888
 9352TIP3    H152251   7.125   5.916   9.591 -0.4414 -0.0045  0.5400
 9352TIP3    H252252   7.036   6.029   9.544  0.2649  0.3209 -0.0173
 9353TIP3   OH252253   4.688   0.607  10.245  0.0204 -0.2633  0.5334
 9353TIP3    H152254   4.764   0.657  10.215 -0.6987 -0.3949 -1.6924
 9353TIP3    H252255   4.703   0.518  10.210 -1.8600  0.1017 -1.3637
 9354TIP3   OH252256   1.995   4.711   9.145  0.5309  0.3419 -0.2294
 9354TIP3    H152257   1.953   4.636   9.187  2.1450 -0.6271 -0.2434
 9354TIP3    H252258   1.963   4.709   9.055 -0.4206  0.4473  0.0991
 9355TIP3   OH252259   4.109   3.564   8.806  0.1774  0.0618 -0.3311
 9355TIP3    H152260   4.126   3.622   8.881 -0.4620 -0.2550  0.0643
 9355TIP3    H252261   4.025   3.524   8.826  1.1293 -1.8867 -0.0547
 9356TIP3   OH252262   3.163   0.056   9.311  0.3381  0.3636 -0.5317
 9356TIP3    H152263   3.234  -0.002   9.338 -0.4354 -0.9903 -1.2362
 9356TIP3    H252264   3.098   0.048   9.381 -0.2447 -0.5397 -1.1481
 9357TIP3   OH252265   0.544   5.629   9.276  0.0943 -0.5818 -0.5112
 9357TIP3    H152266   0.607   5.670   9.217 -0.1551 -0.4932 -0.7208
 9357TIP3    H252267   0.476   5.595   9.218  0.5284 -1.7111 -0.3762
 9358TIP3   OH252268   4.941   6.301   8.973  0.6256  0.2011  0.4828
 9358TIP3    H152269   4.905   6.341   9.052 -0.6425 -0.0392  0.0510
 9358TIP3    H252270   4.960   6.375   8.915 -3.6731  0.3108 -1.1618
 9359TIP3   OH252271   7.557   3.808   9.081  0.1549  0.5930  0.0005
 9359TIP3    H152272   7.612   3.783   9.155  0.0292  0.6829  0.1248
 9359TIP3    H252273   7.553   3.904   9.086  1.6493  0.7749 -1.1910
 9360TIP3   OH252274   1.641   5.692   9.054 -0.1925  0.4427 -0.1536
 9360TIP3    H152275   1.650   5.615   9.109  2.7361  1.8667  1.6678
 9360TIP3    H252276   1.709   5.682   8.987 -0.2696  1.0979 -0.3403
 9361TIP3   OH252277   1.990   5.424   8.989 -0.5943  0.0320 -0.0483
 9361TIP3    H152278   2.047   5.409   8.914 -1.0766 -0.6490 -0.2938
 9361TIP3    H252279   2.048   5.460   9.057 -0.1247  0.4926 -0.6892
 9362TIP3   OH252280   4.847   5.658  10.074 -0.2122  0.0860 -0.2784
 9362TIP3    H152281   4.809   5.593  10.015 -1.5615  0.8217 -0.2508
 9362TIP3    H252282   4.940   5.657  10.053 -0.2995 -1.3654 -0.7458
 9363TIP3   OH252283   1.199   4.117   9.253 -0.0814 -0.2483  0.4882
 9363TIP3    H152284   1.175   4.182   9.187  1.1113  0.5175  0.7844
 9363TIP3    H252285   1.272   4.156   9.300  1.3777 -2.2281 -0.0088
 9364TIP3   OH252286   2.895   8.252   9.705 -0.0640 -0.0314 -0.1404
 9364TIP3    H152287   2.949   8.266   9.783  1.9607  2.6686 -1.8704
 9364TIP3    H252288   2.818   8.207   9.738  1.1296  0.1032  3.2543
 9365TIP3   OH252289   4.084   7.335   8.843  0.5168  0.0212  0.2524
 9365TIP3    H152290   4.155   7.295   8.893  1.3416 -0.8376 -1.5112
 9365TIP3    H252291   4.128   7.385   8.774 -0.5709  0.3303 -0.2448
 9366TIP3   OH252292   6.358   5.920   9.823 -0.0190  0.7924  0.1233
 9366TIP3    H152293   6.292   5.865   9.782  0.7420 -0.1229  0.0799
 9366TIP3    H252294   6.321   6.008   9.823 -1.2115  0.3028  0.0733
 9367TIP3   OH252295   0.373   7.263   8.919  0.3496 -0.1031  0.0054
 9367TIP3    H152296   0.439   7.332   8.922  0.7403 -0.4588 -0.2054
 9367TIP3    H252297   0.424   7.182   8.915 -0.1020 -0.4055  0.2636
 9368TIP3   OH252298   6.984   6.607  10.020  0.5394 -0.0842  0.2809
 9368TIP3    H152299   7.031   6.523  10.017 -0.1974 -0.5129  0.4284
 9368TIP3    H252300   7.053   6.673  10.023  1.1490 -0.6080 -1.3789
 9369TIP3   OH252301   0.795   0.265   9.207 -0.0368 -0.4570 -0.2339
 9369TIP3    H152302   0.704   0.294   9.205  0.1384  0.7387  3.1035
 9369TIP3    H252303   0.844   0.338   9.170 -0.2076  0.4303  1.2167
 9370TIP3   OH252304   4.926   1.758   9.946  0.2884  0.2539 -0.0587
 9370TIP3    H152305   4.986   1.688   9.973 -0.1770 -0.3786 -0.6172
 9370TIP3    H252306   4.881   1.783  10.026  0.3135 -0.2343  0.1106
 9371TIP3   OH252307   0.696   0.399   9.823 -0.3728 -0.3529  0.8402
 9371TIP3    H152308   0.754   0.453   9.769 -0.2318 -1.2054  0.1152
 9371TIP3    H252309   0.637   0.461   9.865  1.0110  0.5357  1.5313
 9372TIP3   OH252310   2.400   8.398  10.709 -0.3444 -0.5340 -0.2434
 9372TIP3    H152311   2.342   8.385  10.634 -1.0113 -0.2293  0.2115
 9372TIP3    H252312   2.354   8.461  10.765  0.8804  0.5006 -0.3504
 9373TIP3   OH252313   6.580   5.472   9.343  0.0613  0.1510  0.6991
 9373TIP3    H152314   6.608   5.401   9.285  1.0995  0.9572  0.1933
 9373TIP3    H252315   6.658   5.525   9.356 -0.8909  1.6855  0.4054
 9374TIP3   OH252316   1.608   0.758   8.964 -0.7451 -0.2981 -0.4046
 9374TIP3    H152317   1.660   0.832   8.993  1.5772 -2.4869  1.4710
 9374TIP3    H252318   1.635   0.743   8.874 -1.3132  1.1452 -0.8335
 9375TIP3   OH252319   3.164   5.244  10.070  0.4999 -0.1104 -0.0229
 9375TIP3    H152320   3.253   5.220  10.096  0.4358  0.5131  0.8309
 9375TIP3    H252321   3.134   5.301  10.141 -0.5434 -0.2381 -0.3545
 9376TIP3   OH252322   3.088   0.516  10.255 -0.0026  0.3075  0.2979
 9376TIP3    H152323   3.152   0.529  10.325  1.4520 -0.5904 -0.8001
 9376TIP3    H252324   3.126   0.561  10.179 -1.4944  1.1690  0.0202
 9377TIP3   OH252325   4.981   3.081   9.510 -0.8753  0.0306  0.2588
 9377TIP3    H152326   4.902   3.124   9.543 -0.2663  0.4548  1.2224
 9377TIP3    H252327   4.976   2.992   9.545 -0.4204  0.3671  1.2106
 9378TIP3   OH252328   7.878   7.479   9.837 -0.0430 -0.0508  0.5725
 9378TIP3    H152329   7.818   7.538   9.790 -0.2138 -1.1317 -0.6002
 9378TIP3    H252330   7.926   7.433   9.769 -0.3483 -1.7290  1.4239
 9379TIP3   OH252331   1.875   7.791   8.904  0.0328  0.1343 -0.4589
 9379TIP3    H152332   1.941   7.739   8.950 -0.9706  0.4729  1.4795
 9379TIP3    H252333   1.923   7.868   8.873  0.6820  0.1101  0.4425
 9380TIP3   OH252334   4.472   4.519  10.769 -0.3285 -0.0215 -0.2187
 9380TIP3    H152335   4.452   4.591  10.829 -0.6517 -2.2970  2.6445
 9380TIP3    H252336   4.552   4.546  10.724 -1.8735  3.1992 -1.2908
 9381TIP3   OH252337   2.495   3.372  10.466 -0.1084 -0.5259  0.0750
 9381TIP3    H152338   2.451   3.298  10.424 -0.4191  0.2221 -0.9449
 9381TIP3    H252339   2.572   3.388  10.413  0.9062 -1.1888  1.2916
 9382TIP3   OH252340   1.928   5.676  11.060  0.5407  0.1565 -0.0828
 9382TIP3    H152341   1.976   5.722  10.991  1.5610 -0.4632  0.1769
 9382TIP3    H252342   1.951   5.584  11.048 -1.0770 -0.2405 -0.2951
 9383TIP3   OH252343   1.641   3.846  10.245  0.6277 -0.3506  0.1541
 9383TIP3    H152344   1.653   3.783  10.316  1.1924 -1.0192 -0.5096
 9383TIP3    H252345   1.719   3.901  10.248 -0.0843  0.6301  1.0248
 9384TIP3   OH252346   6.038   4.185  10.804  0.3549  0.2186 -0.2025
 9384TIP3    H152347   5.966   4.135  10.842 -1.1573  2.2624 -0.1932
 9384TIP3    H252348   6.081   4.124  10.744 -0.7778 -1.3508  0.5229
 9385TIP3   OH252349   1.803   6.998  10.551  0.2626 -0.1330  0.5554
 9385TIP3    H152350   1.879   7.055  10.553  2.4965 -2.6696 -2.4064
 9385TIP3    H252351   1.822   6.928  10.613 -0.2203 -0.1621  0.6799
 9386TIP3   OH252352   3.570   1.849  10.036 -0.1503 -0.2863 -0.3212
 9386TIP3    H152353   3.500   1.887  10.089  1.6518 -0.1695  2.1198
 9386TIP3    H252354   3.601   1.922   9.982 -0.7806  0.0973 -0.1735
 9387TIP3   OH252355   1.175   3.894   9.696  0.0209 -0.1836  0.0070
 9387TIP3    H152356   1.104   3.830   9.707  1.6887 -1.8754  1.6805
 9387TIP3    H252357   1.175   3.913   9.602 -1.3503 -1.6763 -0.3473
 9388TIP3   OH252358   5.393   7.507   8.676 -0.2739  0.8784 -0.0545
 9388TIP3    H152359   5.332   7.433   8.679 -0.1772  0.8136  1.4796
 9388TIP3    H252360   5.375   7.555   8.757 -0.0042  2.2805 -0.7971
 9389TIP3   OH252361   7.244   5.656  10.497 -0.6925  0.4624 -0.2322
 9389TIP3    H152362   7.257   5.593  10.569  0.6443  1.3160  0.3058
 9389TIP3    H252363   7.261   5.605  10.418  1.3746  0.3366  0.2383
 9390TIP3   OH252364   2.551   2.213   8.227 -0.9623 -0.5025 -0.0024
 9390TIP3    H152365   2.555   2.132   8.277  1.1932 -0.2958  0.2656
 9390TIP3    H252366   2.540   2.185   8.136 -3.4444 -0.9256  0.3683
 9391TIP3   OH252367   2.049   6.558  10.363 -0.9034  0.5812 -1.0125
 9391TIP3    H152368   2.070   6.552  10.456 -1.7197 -0.6051 -0.8958
 9391TIP3    H252369   2.040   6.468  10.333 -1.0141  0.9496 -2.1693
 9392TIP3   OH252370   3.054   0.396   9.889  0.1399 -0.1375 -0.3992
 9392TIP3    H152371   3.060   0.393   9.794  0.8171 -0.1747 -0.3593
 9392TIP3    H252372   3.115   0.465   9.915 -0.1960  0.0167 -0.0019
 9393TIP3   OH252373   1.605   5.980   8.803  0.1728 -0.4365  0.1121
 9393TIP3    H152374   1.688   6.017   8.773  0.6218 -1.3459  0.1782
 9393TIP3    H252375   1.626   5.888   8.821 -0.2298 -0.1221  2.5098
 9394TIP3   OH252376   1.866   6.139   8.876  0.8507  0.0811 -0.0261
 9394TIP3    H152377   1.852   6.045   8.885 -2.6345  0.6243  1.7882
 9394TIP3    H252378   1.925   6.161   8.948 -0.9911 -0.3327  1.6960
 9395TIP3   OH252379   7.416   3.517   9.688  0.4508 -0.0929  0.1485
 9395TIP3    H152380   7.398   3.559   9.604 -0.6821 -1.1978 -0.2026
 9395TIP3    H252381   7.368   3.433   9.683  1.1731 -0.6121  1.5024
 9396TIP3   OH252382   2.742   1.798   9.570  0.1353 -0.0681  0.2918
 9396TIP3    H152383   2.807   1.831   9.508  0.1140 -0.1392  0.2316
 9396TIP3    H252384   2.723   1.872   9.626 -0.6994  0.3340 -0.4979
 9397TIP3   OH252385   8.283   5.221   9.799  0.1000  0.0238 -0.1539
 9397TIP3    H152386   8.320   5.187   9.718 -1.5823  0.1548 -1.0172
 9397TIP3    H252387   8.306   5.314   9.799 -0.5716  0.1971 -0.8912
 9398TIP3   OH252388   1.218   0.655   8.970  0.1465 -0.2628 -0.1729
 9398TIP3    H152389   1.182   0.743   8.958 -0.0348 -0.1666  0.9401
 9398TIP3    H252390   1.241   0.652   9.063  0.0490 -1.4406 -0.1795
 9399TIP3   OH252391   6.258   5.080   9.519  0.6703  0.0926  0.0700
 9399TIP3    H152392   6.349   5.108   9.508  0.5362 -0.1365 -1.8040
 9399TIP3    H252393   6.208   5.141   9.466 -0.4313  0.8460  1.8679
 9400TIP3   OH252394   4.824   2.860   9.118  0.0869 -0.5996 -0.4007
 9400TIP3    H152395   4.772   2.925   9.071  0.1970 -0.1038  0.1458
 9400TIP3    H252396   4.761   2.815   9.175  0.3016  0.2553  0.5372
 9401TIP3   OH252397   1.605   6.280   9.756  0.2027  0.0437  0.0386
 9401TIP3    H152398   1.654   6.325   9.825  3.3699 -3.1048  0.1363
 9401TIP3    H252399   1.663   6.285   9.679 -1.5588  0.2274 -1.3496
 9402TIP3   OH252400   7.024   5.181  10.284  0.2309 -0.7309  0.0256
 9402TIP3    H152401   7.084   5.116  10.247 -0.3709  0.1045 -2.6533
 9402TIP3    H252402   6.946   5.177  10.227  0.0197  2.0371 -0.0351
 9403TIP3   OH252403   7.774   4.716   8.733 -0.5324  0.2138 -0.9771
 9403TIP3    H152404   7.697   4.703   8.678 -0.2490 -2.0192 -0.9681
 9403TIP3    H252405   7.805   4.627   8.751  0.9067  0.9852  0.6389
 9404TIP3   OH252406   3.470   3.790   8.655  0.4192 -0.0477 -0.6927
 9404TIP3    H152407   3.433   3.878   8.651  0.9658  0.2061 -0.2319
 9404TIP3    H252408   3.484   3.773   8.748  1.0468 -0.3109 -0.8295
 9405TIP3   OH252409   5.682   0.682   8.712 -0.0760 -0.9320 -0.1895
 9405TIP3    H152410   5.619   0.750   8.685 -0.1265 -1.0178 -0.2896
 9405TIP3    H252411   5.761   0.702   8.662  1.0222  0.9924  2.1234
 9406TIP3   OH252412   2.012   0.080  10.631 -0.3450  0.1748  0.6537
 9406TIP3    H152413   1.976   0.164  10.603 -1.1437  0.0610  1.3072
 9406TIP3    H252414   2.098   0.101  10.667  0.4750  0.3941 -1.3370
 9407TIP3   OH252415   2.876   2.728  10.898  0.4233  0.2461  0.0679
 9407TIP3    H152416   2.892   2.651  10.844  2.0724  1.9171 -1.9921
 9407TIP3    H252417   2.780   2.734  10.904  0.2259 -0.8347 -1.4647
 9408TIP3   OH252418   1.031   1.317  10.232 -0.3201  0.2151  0.0826
 9408TIP3    H152419   1.036   1.393  10.291 -1.3137  0.7953 -0.5418
 9408TIP3    H252420   0.945   1.278  10.252 -1.2001  1.1043 -1.7531
 9409TIP3   OH252421   5.415   8.411  10.638 -0.0573  0.0173 -0.0981
 9409TIP3    H152422   5.400   8.328  10.683  0.2068 -0.5073 -0.9534
 9409TIP3    H252423   5.500   8.442  10.672 -0.7876  0.6470  1.2432
 9410TIP3   OH252424   7.151   2.047  10.782 -0.5599 -0.3279  0.0134
 9410TIP3    H152425   7.155   2.042  10.686  0.4472 -3.7660  0.1049
 9410TIP3    H252426   7.237   2.017  10.811 -0.5340  1.4758  2.0736
 9411TIP3   OH252427   3.285   5.198   9.477 -0.3649  0.3253 -0.2276
 9411TIP3    H152428   3.198   5.167   9.451 -0.3624 -0.6139  0.7972
 9411TIP3    H252429   3.337   5.192   9.397 -0.4024 -2.3171 -0.1652
 9412TIP3   OH252430   3.383   3.637   9.197 -0.3851  0.1038  0.3338
 9412TIP3    H152431   3.398   3.574   9.267 -1.5776  0.0648  0.5651
 9412TIP3    H252432   3.315   3.695   9.231 -2.0973 -0.8278 -1.3586
 9413TIP3   OH252433   2.990   1.226   9.551 -0.2919 -0.2999 -0.6552
 9413TIP3    H152434   2.903   1.210   9.589  0.4402 -0.7642  0.8869
 9413TIP3    H252435   3.014   1.313   9.585  0.4719 -0.8261  0.1934
 9414TIP3   OH252436   4.502   5.143   9.796  0.4056 -0.7540 -0.1815
 9414TIP3    H152437   4.415   5.179   9.776  0.2273 -0.0466  1.6025
 9414TIP3    H252438   4.557   5.221   9.809  1.1526 -1.1925 -0.6512
 9415TIP3   OH252439   7.597   3.083   9.540 -0.3699 -0.4290  0.1144
 9415TIP3    H152440   7.608   3.176   9.557 -1.6015  0.3079 -2.6492
 9415TIP3    H252441   7.679   3.056   9.500 -1.2066  0.3680 -2.2883
 9416TIP3   OH252442   3.760   1.542   8.825  0.1485 -0.0259  0.3811
 9416TIP3    H152443   3.743   1.509   8.913  0.8962 -0.5724  0.3419
 9416TIP3    H252444   3.677   1.578   8.795  0.4189  2.2220  2.1492
 9417TIP3   OH252445   1.797   6.085   8.597 -0.5519 -0.3430 -0.7346
 9417TIP3    H152446   1.729   6.135   8.553 -1.7046 -0.4508  0.8231
 9417TIP3    H252447   1.820   6.138   8.673  0.3997 -0.7720 -0.7155
 9418TIP3   OH252448   5.044   3.111   9.238  0.3154 -0.0642 -0.2405
 9418TIP3    H152449   5.022   3.203   9.254 -2.4674 -0.7356  0.3958
 9418TIP3    H252450   5.031   3.068   9.322  3.1936 -0.8608 -0.1163
 9419TIP3   OH252451   3.197   4.433   9.023  0.3769  0.3348  0.0291
 9419TIP3    H152452   3.165   4.473   8.942  1.0342 -1.6456 -1.2929
 9419TIP3    H252453   3.284   4.400   9.000  0.3380 -0.7700  1.3725
 9420TIP3   OH252454   6.740   1.499  10.312 -0.0439 -0.7457  0.8809
 9420TIP3    H152455   6.722   1.570  10.250  0.0698 -1.0445  0.5021
 9420TIP3    H252456   6.687   1.426  10.280 -1.4965 -0.3478  2.2316
 9421TIP3   OH252457   8.002   4.408   9.856  0.0521 -0.3359  0.1316
 9421TIP3    H152458   7.993   4.439   9.946 -0.9654 -2.2703  0.7627
 9421TIP3    H252459   7.981   4.484   9.802  1.6012  1.1238  1.4851
 9422TIP3   OH252460   3.620   1.933   9.772  0.1175  0.1527  0.2406
 9422TIP3    H152461   3.619   1.843   9.739  2.6490  0.7515 -1.8709
 9422TIP3    H252462   3.542   1.974   9.734  1.4592  0.0412 -2.9463
 9423TIP3   OH252463   7.065   5.316  11.063  0.4220  0.1089  0.1839
 9423TIP3    H152464   7.063   5.373  10.986 -2.1424 -0.7313 -0.4563
 9423TIP3    H252465   7.145   5.265  11.052  1.4699  1.7994 -0.5247
 9424TIP3   OH252466   4.068   5.906   8.754  0.3865  0.6905 -0.2055
 9424TIP3    H152467   4.029   5.849   8.688  1.1708  1.0172 -0.9718
 9424TIP3    H252468   4.161   5.885   8.751  0.4031  0.5103  1.0056
 9425TIP3   OH252469   6.775   3.140  10.191  0.0404  0.5448  0.6852
 9425TIP3    H152470   6.811   3.195  10.261  0.6242 -0.7948  1.4803
 9425TIP3    H252471   6.822   3.058  10.199 -1.6811 -0.5291  0.3488
 9426TIP3   OH252472   8.244   4.169   8.549  0.2260 -0.1617 -0.2675
 9426TIP3    H152473   8.243   4.117   8.469  0.2738 -1.5786  0.6071
 9426TIP3    H252474   8.202   4.112   8.615 -1.0710  1.4869  0.4146
 9427TIP3   OH252475   4.633   1.393   9.051  0.0275  0.2651 -0.1058
 9427TIP3    H152476   4.585   1.447   8.989  0.1379 -0.3661 -0.7540
 9427TIP3    H252477   4.616   1.433   9.136  0.0458  1.2667 -0.5612
 9428TIP3   OH252478   8.204   4.321   9.497  0.4284 -0.2672 -0.1391
 9428TIP3    H152479   8.238   4.365   9.575  0.9120  1.0526 -1.0528
 9428TIP3    H252480   8.272   4.332   9.431 -0.4503 -0.3271 -1.0902
 9429TIP3   OH252481   3.628   5.807   9.771  0.7507 -0.5853  0.0567
 9429TIP3    H152482   3.688   5.880   9.791  1.2870 -1.4144  1.5954
 9429TIP3    H252483   3.588   5.785   9.855 -2.0473  0.1633 -0.9646
 9430TIP3   OH252484   1.455   0.455  10.160  0.1812 -0.2939  0.2117
 9430TIP3    H152485   1.462   0.514  10.236 -0.5562  0.5247 -0.3385
 9430TIP3    H252486   1.380   0.400  10.180  0.9578 -1.1644  0.7911
 9431TIP3   OH252487   1.675   5.077  10.384 -0.2599 -0.0776 -0.4999
 9431TIP3    H152488   1.725   5.157  10.400 -1.3109  0.3452  0.8628
 9431TIP3    H252489   1.684   5.061  10.290  3.3829 -0.6906 -0.2112
 9432TIP3   OH252490   6.077   8.343   9.180 -0.1508 -0.3519  0.1966
 9432TIP3    H152491   6.148   8.406   9.169  0.4048 -0.9842  0.1015
 9432TIP3    H252492   6.080   8.289   9.101 -1.4920  0.3418 -0.3641
 9433TIP3   OH252493   4.268   3.578   9.772 -0.0720  0.1322 -0.0593
 9433TIP3    H152494   4.205   3.636   9.816 -0.3049 -0.1226 -0.0471
 9433TIP3    H252495   4.245   3.583   9.680  1.7994  2.3494 -0.4697
 9434TIP3   OH252496   7.784   0.314   9.462 -0.5165  0.0664 -0.1679
 9434TIP3    H152497   7.808   0.390   9.409  0.4538  0.1612  0.3744
 9434TIP3    H252498   7.762   0.351   9.548  3.9432 -0.4456  1.4444
 9435TIP3   OH252499   8.199   0.326   9.084 -1.1023 -0.5450  0.4938
 9435TIP3    H152500   8.217   0.372   9.002 -1.6886 -0.1553  0.5759
 9435TIP3    H252501   8.255   0.370   9.148 -2.5853  0.9305  0.8317
 9436TIP3   OH252502   4.094   0.200   9.274  0.0781  0.1901 -0.2096
 9436TIP3    H152503   4.143   0.132   9.320 -0.9879  0.0435  0.7437
 9436TIP3    H252504   4.054   0.154   9.199 -1.7735 -0.6256  1.1803
 9437TIP3   OH252505   4.221   3.233  10.675  0.1487  0.1166  0.3347
 9437TIP3    H152506   4.134   3.192  10.683  0.1896  0.0579  0.4659
 9437TIP3    H252507   4.282   3.159  10.675  0.2280  0.1826  0.6501
 9438TIP3   OH252508   6.501   4.699  10.721 -0.3296 -0.7290 -0.1945
 9438TIP3    H152509   6.425   4.738  10.678  0.2123 -1.0069 -1.4644
 9438TIP3    H252510   6.472   4.682  10.810 -0.5807  2.5793  0.4818
 9439TIP3   OH252511   5.797   1.198   9.478  0.4898 -0.4040 -0.2119
 9439TIP3    H152512   5.811   1.244   9.561  0.5756  0.4279 -0.6801
 9439TIP3    H252513   5.849   1.247   9.414 -0.5938 -0.2669 -1.0091
 9440TIP3   OH252514   4.596   1.353  10.142 -0.2940 -0.0343  0.0762
 9440TIP3    H152515   4.533   1.404  10.091  1.3602 -0.4370 -2.5033
 9440TIP3    H252516   4.665   1.415  10.164  0.4650 -0.5473 -0.8246
 9441TIP3   OH252517   3.746   3.409   9.194 -0.0414  0.1342 -0.2653
 9441TIP3    H152518   3.724   3.375   9.280 -0.0635  2.7443  0.8427
 9441TIP3    H252519   3.841   3.397   9.187 -0.1709 -0.9836 -0.3399
 9442TIP3   OH252520   6.756   7.404   9.344  0.2469 -0.0242 -0.0629
 9442TIP3    H152521   6.818   7.476   9.340 -0.7618  1.0300  1.6458
 9442TIP3    H252522   6.677   7.443   9.382  0.4279 -2.4563  3.2256
 9443TIP3   OH252523   2.245   0.183  10.724 -0.2251 -0.1490 -0.6692
 9443TIP3    H152524   2.254   0.258  10.782 -1.4123 -0.6549  0.1910
 9443TIP3    H252525   2.243   0.221  10.636  1.2807  0.6426 -0.4099
 9444TIP3   OH252526   5.461   0.255   9.226  0.3178 -0.1177  0.0154
 9444TIP3    H152527   5.455   0.206   9.145  0.1259  0.1372 -0.1282
 9444TIP3    H252528   5.378   0.236   9.271  0.6866 -0.7465  0.4341
 9445TIP3   OH252529   1.147   6.225  11.094 -0.8987 -0.3742 -0.2437
 9445TIP3    H152530   1.070   6.211  11.149 -1.2805  1.5183 -0.2058
 9445TIP3    H252531   1.152   6.320  11.084  2.3234 -0.2489  1.0539
 9446TIP3   OH252532   3.253   0.458   8.718 -0.1516  0.3565  0.2820
 9446TIP3    H152533   3.235   0.546   8.751 -1.6005 -0.8096  2.9035
 9446TIP3    H252534   3.188   0.445   8.650 -0.6743  0.9300  0.6541
 9447TIP3   OH252535   5.154   1.986   9.067 -0.0909  0.0091 -0.3699
 9447TIP3    H152536   5.175   2.073   9.102  0.4891  0.1013 -0.9209
 9447TIP3    H252537   5.239   1.945   9.053 -0.3214 -0.1260 -1.4148
 9448TIP3   OH252538   0.798   6.707   9.976 -0.4192 -0.6453 -0.3795
 9448TIP3    H152539   0.856   6.677  10.046  0.9984 -0.4682 -1.4519
 9448TIP3    H252540   0.779   6.628   9.925 -0.6095 -0.5852 -0.4052
 9449TIP3   OH252541   0.345   3.706  10.659 -0.7840 -0.4086  0.1239
 9449TIP3    H152542   0.302   3.789  10.639  0.2362 -0.1355 -1.1186
 9449TIP3    H252543   0.312   3.682  10.745 -0.0535  2.0183  1.1905
 9450TIP3   OH252544   7.947   8.291   8.801  0.0416  0.0775 -0.5129
 9450TIP3    H152545   7.959   8.367   8.858 -0.2524  1.1471 -1.8187
 9450TIP3    H252546   7.853   8.274   8.804  0.0029  0.2393 -0.8041
 9451TIP3   OH252547   4.359   1.810  10.530  0.2121 -0.0015 -0.2747
 9451TIP3    H152548   4.382   1.786  10.440  1.3536  1.5302 -0.4257
 9451TIP3    H252549   4.415   1.754  10.584  0.0468 -0.4170 -0.5260
 9452TIP3   OH252550   4.918   8.102   9.684 -0.7956  0.1950 -0.3735
 9452TIP3    H152551   4.856   8.144   9.744 -1.3456 -0.7929 -0.2264
 9452TIP3    H252552   4.891   8.133   9.597  0.1109  1.7631 -0.1417
 9453TIP3   OH252553   8.289   7.903   8.792  0.3189 -0.2351 -0.4897
 9453TIP3    H152554   8.330   7.980   8.831  1.8970 -0.5253 -1.4818
 9453TIP3    H252555   8.200   7.903   8.827  0.9030  0.8834  1.1165
 9454TIP3   OH252556   4.809   6.583   8.918 -0.1008 -0.5840 -0.3316
 9454TIP3    H152557   4.755   6.506   8.896 -1.9034 -0.4754  3.1182
 9454TIP3    H252558   4.746   6.647   8.950  1.8235  0.6233  1.1947
 9455TIP3   OH252559   5.366   0.660  10.279 -0.9180  0.4956 -0.5108
 9455TIP3    H152560   5.452   0.686  10.247  0.1394 -1.6646  0.3205
 9455TIP3    H252561   5.317   0.637  10.200 -0.8899  2.0803 -1.0157
 9456TIP3   OH252562   3.742   1.087   8.933 -0.3216  0.2947  0.5856
 9456TIP3    H152563   3.831   1.080   8.898  0.2465 -1.3844  2.1702
 9456TIP3    H252564   3.749   1.148   9.006 -0.5577  0.4786  0.4548
 9457TIP3   OH252565   7.429   3.818   9.572  0.3271  0.5072  0.1266
 9457TIP3    H152566   7.514   3.829   9.615  0.8317 -0.4892 -0.5688
 9457TIP3    H252567   7.413   3.902   9.529  0.8333  0.7940  0.4912
 9458TIP3   OH252568   5.223   2.607   8.768  0.0738  0.1895 -0.6881
 9458TIP3    H152569   5.250   2.698   8.775 -1.3038  0.6194 -0.5570
 9458TIP3    H252570   5.128   2.609   8.783  0.0011 -1.2488 -0.7879
 9459TIP3   OH252571   4.953   6.044   9.052 -0.6532  0.2578 -0.2442
 9459TIP3    H152572   4.934   6.130   9.016  0.7426  1.2530  1.2936
 9459TIP3    H252573   5.042   6.025   9.024 -1.1799 -1.0314 -1.1511
 9460TIP3   OH252574   1.165   6.978  10.464 -0.6387  0.1156  0.4013
 9460TIP3    H152575   1.187   7.057  10.514  1.5351  0.2008 -0.5668
 9460TIP3    H252576   1.211   6.907  10.509 -0.4697 -0.1621 -0.1990
 9461TIP3   OH252577   4.972   2.460   9.018 -0.2807 -0.3593  0.5488
 9461TIP3    H152578   5.002   2.525   9.082 -1.9804  0.7486  0.2945
 9461TIP3    H252579   4.943   2.512   8.943  0.0540 -1.5430 -0.4265
 9462TIP3   OH252580   1.555   2.647  10.301  0.2607  0.1113  0.0246
 9462TIP3    H152581   1.586   2.573  10.250 -0.3954 -0.8715  1.0158
 9462TIP3    H252582   1.467   2.665  10.268 -0.1130 -0.4405  0.7064
 9463TIP3   OH252583   3.162   7.833   9.448  0.5534 -0.0154  0.3164
 9463TIP3    H152584   3.113   7.896   9.501  0.6828 -0.6433  1.1891
 9463TIP3    H252585   3.136   7.853   9.358 -2.4614 -1.2109  0.7764
 9464TIP3   OH252586   8.359   2.687   9.143 -0.4805 -0.2658  0.0633
 9464TIP3    H152587   8.416   2.753   9.182 -1.3518 -0.5206  1.8547
 9464TIP3    H252588   8.382   2.606   9.187  3.5775 -2.3877 -4.9229
 9465TIP3   OH252589   1.433   7.294  10.192  0.4834  0.1414 -0.0695
 9465TIP3    H152590   1.400   7.352  10.261  0.5555  0.8434 -0.6036
 9465TIP3    H252591   1.528   7.310  10.190  0.3347  1.0691 -1.1377
 9466TIP3   OH252592   1.473   3.082  10.815 -0.4815 -0.0594 -0.2043
 9466TIP3    H152593   1.509   3.020  10.751 -2.7404 -0.7154 -0.9379
 9466TIP3    H252594   1.397   3.037  10.851 -2.0052  2.1365 -0.4854
 9467TIP3   OH252595   2.958   2.353   9.469 -0.1188  0.1336 -0.0770
 9467TIP3    H152596   3.021   2.409   9.424  1.5313 -1.5662  0.0350
 9467TIP3    H252597   2.907   2.313   9.398  1.5433 -1.4541 -0.4373
 9468TIP3   OH252598   6.071   6.384   9.706 -0.0029  0.2005  0.5705
 9468TIP3    H152599   6.073   6.475   9.733  1.2486  0.6726 -0.9229
 9468TIP3    H252600   6.064   6.387   9.611  0.2603 -1.2484  0.4718
 9469TIP3   OH252601   3.589   5.572  10.600  0.2645  0.1524 -0.8810
 9469TIP3    H152602   3.630   5.494  10.563  1.1105  0.1284  0.0528
 9469TIP3    H252603   3.633   5.645  10.557  1.8621  0.1416  0.6130
 9470TIP3   OH252604   0.573   3.657  10.466 -0.3884 -0.0192  0.1137
 9470TIP3    H152605   0.566   3.567  10.435  0.7585 -0.0119 -0.1924
 9470TIP3    H252606   0.487   3.675  10.506 -1.3477 -0.5539 -1.6076
 9471TIP3   OH252607   2.511   4.959   9.516 -0.0349  1.1073  0.4776
 9471TIP3    H152608   2.428   4.993   9.482 -1.1385  0.3807  2.3217
 9471TIP3    H252609   2.507   4.865   9.500  0.7869  1.1459 -0.0566
 9472TIP3   OH252610   0.137   4.691  11.237 -0.1549  0.3887  0.3219
 9472TIP3    H152611   0.097   4.651  11.314  2.2122 -1.0528  0.9181
 9472TIP3    H252612   0.085   4.770  11.220 -1.5815 -0.0024  2.5339
 9473TIP3   OH252613   0.072   0.964   8.798 -0.4020  0.1633 -0.5516
 9473TIP3    H152614   0.101   1.029   8.862 -1.6523  0.1651  0.0408
 9473TIP3    H252615   0.013   1.013   8.740 -0.5566 -0.2104 -0.7115
 9474TIP3   OH252616   6.454   8.029   9.885 -0.0729  0.2463  0.0952
 9474TIP3    H152617   6.516   7.978   9.936 -0.0210  1.1997  1.0193
 9474TIP3    H252618   6.370   8.015   9.928 -0.1529  0.5192  0.0326
 9475TIP3   OH252619   2.444   0.510   9.663 -0.3499  0.3212 -0.3655
 9475TIP3    H152620   2.463   0.417   9.673 -0.6153  0.3708  0.6852
 9475TIP3    H252621   2.419   0.540   9.750  0.8310  1.6439 -0.4290
 9476TIP3   OH252622   1.254   3.090   8.835 -0.3899 -0.0057  0.0927
 9476TIP3    H152623   1.195   3.145   8.784  1.3928  1.9360 -0.0251
 9476TIP3    H252624   1.229   3.106   8.926  0.4798  1.5421  0.0936
 9477TIP3   OH252625   2.655   0.024  10.783  0.0180  0.3354 -0.0862
 9477TIP3    H152626   2.577  -0.010  10.738 -0.6045 -0.4151  1.4784
 9477TIP3    H252627   2.630   0.112  10.811 -0.2913  0.0667  0.4795
 9478TIP3   OH252628   8.149   6.796   9.205  0.3804  0.1175  0.4870
 9478TIP3    H152629   8.076   6.809   9.145  0.7622  1.0294  0.1997
 9478TIP3    H252630   8.109   6.776   9.289 -0.1774 -0.2231  0.1449
 9479TIP3   OH252631   2.164   6.605  10.643  0.0378 -0.0249  0.2482
 9479TIP3    H152632   2.079   6.577  10.677 -0.8645  0.2738 -1.6203
 9479TIP3    H252633   2.158   6.700  10.637  0.0465 -0.0866 -0.9821
 9480TIP3   OH252634   4.238   7.646   9.213  0.2331  0.2198 -0.1113
 9480TIP3    H152635   4.213   7.738   9.220 -1.3459  0.0442 -2.2918
 9480TIP3    H252636   4.244   7.630   9.119  2.1548 -1.5228  0.2416
 9481TIP3   OH252637   4.261   8.254   9.594 -0.1809 -0.1325  0.2307
 9481TIP3    H152638   4.245   8.239   9.687 -0.7354  1.0439  0.3389
 9481TIP3    H252639   4.214   8.183   9.550 -0.6596 -0.1881  0.8163
 9482TIP3   OH252640   1.110   3.585   8.975  0.1785 -0.3136 -0.5973
 9482TIP3    H152641   1.191   3.627   8.947  1.0316 -1.0634  0.6428
 9482TIP3    H252642   1.111   3.500   8.931 -1.1369  0.5576 -2.4446
 9483TIP3   OH252643   6.394   7.117  10.170 -0.4881  0.3774 -0.0724
 9483TIP3    H152644   6.481   7.131  10.207 -1.3185  1.5546  1.5647
 9483TIP3    H252645   6.348   7.065  10.235 -0.0376 -3.4571 -2.4722
 9484TIP3   OH252646   2.751   5.522   9.662  0.0010 -0.1112 -0.2310
 9484TIP3    H152647   2.801   5.533   9.581  1.1889  0.9959  0.6011
 9484TIP3    H252648   2.670   5.478   9.635  0.6995 -0.4563 -1.8823
 9485TIP3   OH252649   2.755   0.068   8.397  0.2298  0.4647 -0.5217
 9485TIP3    H152650   2.662   0.044   8.391 -0.1009  0.9919  1.6104
 9485TIP3    H252651   2.754   0.153   8.441  1.7223  0.6471 -0.7995
 9486TIP3   OH252652   5.557   7.602  11.006 -0.5080  0.1107  0.0046
 9486TIP3    H152653   5.624   7.644  10.952 -1.7834  0.7814 -1.1250
 9486TIP3    H252654   5.600   7.524  11.042  0.7798  0.3763 -0.8902
 9487TIP3   OH252655   5.506   6.020   8.986  0.4629 -0.3520 -0.4340
 9487TIP3    H152656   5.546   6.101   9.017  1.2520 -1.8700  2.9203
 9487TIP3    H252657   5.576   5.974   8.939  1.6016 -1.1873  1.9310
 9488TIP3   OH252658   1.215   4.290  10.922 -0.2896 -0.0623  0.1255
 9488TIP3    H152659   1.264   4.320  10.845 -0.7639 -0.7560 -0.4547
 9488TIP3    H252660   1.254   4.207  10.946 -0.0058  0.2496  0.7753
 9489TIP3   OH252661   3.853   2.998   9.482  0.0756  0.6092 -0.7462
 9489TIP3    H152662   3.890   3.083   9.456 -0.0951  1.0726  0.4883
 9489TIP3    H252663   3.759   3.014   9.488 -0.0673  0.0669 -1.4703
 9490TIP3   OH252664   6.789   1.005   9.651  0.3337  0.2361  0.1733
 9490TIP3    H152665   6.872   0.960   9.667 -1.0162 -1.5499  2.7710
 9490TIP3    H252666   6.729   0.936   9.626 -0.7703  1.2746 -0.1194
 9491TIP3   OH252667   1.394   5.992  10.498 -0.2262  0.1540  0.3008
 9491TIP3    H152668   1.348   6.067  10.535 -0.1932 -0.2932  1.2707
 9491TIP3    H252669   1.390   6.006  10.403 -2.7410 -0.0823  0.2924
 9492TIP3   OH252670   7.806   5.981  10.376  0.7508  0.1695 -0.2344
 9492TIP3    H152671   7.873   5.916  10.396  0.7791  0.6735  1.4906
 9492TIP3    H252672   7.827   6.055  10.432 -0.8078  0.6376 -0.2144
 9493TIP3   OH252673   0.721   0.815  10.210 -0.0883 -0.0020  0.4096
 9493TIP3    H152674   0.742   0.866  10.288  1.2547 -0.5770  0.4547
 9493TIP3    H252675   0.708   0.880  10.141  2.3415  0.4290  0.2842
 9494TIP3   OH252676   3.335   8.364   9.456  0.0424 -0.0547  1.0377
 9494TIP3    H152677   3.408   8.404   9.504 -0.3711  1.1119  0.7056
 9494TIP3    H252678   3.283   8.321   9.525  1.1558 -1.1479  1.2498
 9495TIP3   OH252679   3.062   0.348   9.612  0.0932 -0.2516  0.0468
 9495TIP3    H152680   3.111   0.408   9.557  1.7229 -2.0017 -0.5111
 9495TIP3    H252681   2.971   0.376   9.604  0.5185  0.6780 -2.0704
 9496TIP3   OH252682   8.268   2.358   9.256 -0.2587 -0.1631  0.3387
 9496TIP3    H152683   8.237   2.345   9.167 -0.3658  0.1762  0.3224
 9496TIP3    H252684   8.227   2.288   9.307  2.0154 -2.1112 -0.3581
 9497TIP3   OH252685   7.281   7.457  10.066 -0.2975 -0.1538  0.0785
 9497TIP3    H152686   7.305   7.484   9.978 -0.3665  0.1984  0.1668
 9497TIP3    H252687   7.214   7.390  10.053 -1.3425  0.9026 -0.1192
 9498TIP3   OH252688   4.224   2.770  11.606 -0.5569 -0.3320  0.0073
 9498TIP3    H152689   4.294   2.754  11.543 -1.5041 -0.1770 -1.1152
 9498TIP3    H252690   4.251   2.849  11.653 -1.1122  1.2151 -2.1214
 9499TIP3   OH252691   2.090   6.753   8.450 -0.0758  0.1602 -0.4195
 9499TIP3    H152692   2.162   6.791   8.499  0.3901  0.3773 -1.2475
 9499TIP3    H252693   2.055   6.825   8.398 -0.9582  0.0794  0.0536
 9500TIP3   OH252694   2.582   6.627   9.891 -0.3720 -0.0558  0.3904
 9500TIP3    H152695   2.502   6.675   9.908 -1.3642 -1.4377 -0.1681
 9500TIP3    H252696   2.579   6.608   9.797  0.1597 -0.9094  0.5342
 9501TIP3   OH252697   8.238   5.313   8.951 -0.1980 -0.0765 -0.4522
 9501TIP3    H152698   8.277   5.231   8.920 -1.2237 -1.2769  1.2777
 9501TIP3    H252699   8.311   5.361   8.990  0.3566 -0.2826 -1.2148
 9502TIP3   OH252700   5.707   1.418   8.724  0.6431 -0.1372 -0.1736
 9502TIP3    H152701   5.637   1.362   8.756  0.6103 -0.5028 -0.8590
 9502TIP3    H252702   5.671   1.507   8.728 -0.2350 -0.4131 -1.4408
 9503TIP3   OH252703   3.029   6.461   8.866 -0.1050 -0.5792  0.0350
 9503TIP3    H152704   3.071   6.535   8.911 -0.5646 -0.5307  0.3879
 9503TIP3    H252705   3.089   6.388   8.879  0.7956 -0.0763 -1.0695
 9504TIP3   OH252706   2.399   6.334   9.748  0.0950 -0.2178  0.3383
 9504TIP3    H152707   2.422   6.263   9.687  1.0786  0.5322 -0.1959
 9504TIP3    H252708   2.416   6.297   9.835  0.7895 -0.5750  0.0583
 9505TIP3   OH252709   0.581   5.996   8.882  0.0306  0.3287  0.1077
 9505TIP3    H152710   0.594   5.983   8.976 -0.3820 -0.5410  0.0612
 9505TIP3    H252711   0.623   6.079   8.863  2.1849 -0.5702  0.6318
 9506TIP3   OH252712   6.688   6.222  10.018 -0.2762  0.1261 -0.0385
 9506TIP3    H152713   6.728   6.145   9.977 -1.4163 -0.6338  0.2478
 9506TIP3    H252714   6.695   6.205  10.112 -1.9180 -0.3997  0.0240
 9507TIP3   OH252715   0.091   1.931  10.206 -0.4811  0.2875 -0.3540
 9507TIP3    H152716   0.019   1.872  10.182 -1.7367  0.9511  1.5425
 9507TIP3    H252717   0.138   1.883  10.275  0.6921  0.0369 -1.2935
 9508TIP3   OH252718   3.229   5.056   8.782  0.1897  0.1773  0.3599
 9508TIP3    H152719   3.293   5.020   8.843 -1.0264 -0.7682  1.1213
 9508TIP3    H252720   3.253   5.148   8.772  1.0670  0.0715  1.4034
 9509TIP3   OH252721   0.526   1.543  10.074  0.2416 -0.8264 -0.2296
 9509TIP3    H152722   0.497   1.535  10.165  1.3091  0.7038  0.2777
 9509TIP3    H252723   0.453   1.585  10.030  0.2652 -0.2707  0.2446
 9510TIP3   OH252724   0.751   4.804   9.334 -0.5699  0.0401  0.1608
 9510TIP3    H152725   0.806   4.753   9.394 -1.1722 -0.8175  0.0095
 9510TIP3    H252726   0.713   4.739   9.275  0.5294  0.9214 -1.6202
 9511TIP3   OH252727   3.303   7.766   9.898  0.4940  0.7251  0.5875
 9511TIP3    H152728   3.311   7.680   9.857 -2.9393  1.1062 -1.2817
 9511TIP3    H252729   3.311   7.749   9.992  0.1379 -1.6125  0.2541
 9512TIP3   OH252730   4.235   5.019   9.737  0.1058  0.0228  0.5349
 9512TIP3    H152731   4.167   5.086   9.728  0.4388  0.2024 -0.8605
 9512TIP3    H252732   4.253   4.991   9.647  0.5734 -1.3448  1.0349
 9513TIP3   OH252733   7.421   7.310   8.906 -0.2368  0.4805  0.2943
 9513TIP3    H152734   7.504   7.310   8.859 -0.2011  0.1712  0.3543
 9513TIP3    H252735   7.380   7.227   8.882 -1.1861  1.2509 -0.8944
 9514TIP3   OH252736   5.754   7.698  10.840 -0.1259  0.0958 -0.0601
 9514TIP3    H152737   5.810   7.636  10.794  1.9440  1.0063  1.0951
 9514TIP3    H252738   5.813   7.745  10.899 -2.0349  1.4839  0.8666
 9515TIP3   OH252739   1.024   2.063   9.765 -0.3528 -0.8438  0.2642
 9515TIP3    H152740   0.932   2.040   9.753 -0.7911  2.0534 -3.7653
 9515TIP3    H252741   1.071   1.982   9.745 -1.9388 -1.9809  0.8770
 9516TIP3   OH252742   1.439   7.897   9.126 -1.0272  0.3511  0.7740
 9516TIP3    H152743   1.436   7.981   9.081 -0.8120 -0.7182 -1.3577
 9516TIP3    H252744   1.529   7.866   9.113 -2.2425 -2.2524 -2.6011
 9517TIP3   OH252745   1.565   6.904   9.337  0.5520 -0.3069  0.1378
 9517TIP3    H152746   1.550   6.945   9.252 -1.5837  1.6961  1.3629
 9517TIP3    H252747   1.616   6.826   9.317 -2.2273 -1.5048 -3.3384
 9518TIP3   OH252748   7.873   0.493   9.262  0.0374 -0.5406  0.6064
 9518TIP3    H152749   7.812   0.534   9.201  0.4391 -0.8541 -0.0168
 9518TIP3    H252750   7.884   0.558   9.332  0.6211  0.4066 -0.3351
 9519TIP3   OH252751   0.042   2.641   8.877 -0.0374  0.8851  0.6325
 9519TIP3    H152752  -0.017   2.692   8.933 -2.4043 -0.2788 -0.6296
 9519TIP3    H252753   0.072   2.703   8.811 -2.1655  0.9695 -0.3539
 9520TIP3   OH252754   3.028   8.173   9.395  0.9949  0.0083  0.0628
 9520TIP3    H152755   3.042   8.237   9.465 -0.4487  0.6412 -0.2008
 9520TIP3    H252756   2.934   8.175   9.379  1.2475 -0.4291 -1.6184
 9521TIP3   OH252757   1.705   7.808   9.108  0.2910 -0.5403 -0.2112
 9521TIP3    H152758   1.772   7.823   9.175  1.0863  1.8515 -1.4317
 9521TIP3    H252759   1.754   7.795   9.027 -0.6925 -1.9756 -0.6255
 9522TIP3   OH252760   5.158   3.198  10.355 -0.2151 -0.1931  0.4317
 9522TIP3    H152761   5.244   3.232  10.329 -0.8425  0.1324 -1.4007
 9522TIP3    H252762   5.176   3.109  10.385  0.8391  0.1000  0.7145
 9523TIP3   OH252763   4.138   2.821   9.035  0.1511 -0.3983 -0.1014
 9523TIP3    H152764   4.204   2.796   9.100  0.6614 -2.8221 -1.4362
 9523TIP3    H252765   4.071   2.868   9.086  0.1319 -2.8673  2.3664
 9524TIP3   OH252766   1.330   1.336   8.424 -0.3321 -0.3855 -0.7387
 9524TIP3    H152767   1.277   1.416   8.435 -2.0918 -1.6839  0.9398
 9524TIP3    H252768   1.330   1.320   8.330 -0.3490  1.3190 -1.0584
 9525TIP3   OH252769   1.780   4.199   9.945  0.3806 -0.3981  0.2771
 9525TIP3    H152770   1.775   4.122  10.003 -2.4177 -0.1239  0.5593
 9525TIP3    H252771   1.780   4.162   9.857  2.2020 -0.7490  0.3819
 9526TIP3   OH252772   3.009   4.285   9.730 -0.0712 -0.1062  0.2093
 9526TIP3    H152773   3.081   4.243   9.776 -0.2382 -0.4165  0.1900
 9526TIP3    H252774   3.050   4.330   9.656  0.1565  0.1099  0.4690
 9527TIP3   OH252775   0.009   7.820   9.351  0.1223  0.2207  0.6846
 9527TIP3    H152776   0.031   7.756   9.284 -2.0812  0.6634 -0.5500
 9527TIP3    H252777  -0.029   7.894   9.303 -0.0551  1.2430  2.2954
 9528TIP3   OH252778   2.216   7.594   9.927 -0.2816 -0.2093  1.0828
 9528TIP3    H152779   2.186   7.597   9.836  1.2459  1.7835  0.5869
 9528TIP3    H252780   2.266   7.512   9.933 -0.2454 -0.2685  0.0986
 9529TIP3   OH252781   4.030   3.380   9.170 -0.0391 -0.6670 -0.6684
 9529TIP3    H152782   4.087   3.453   9.147  0.9186 -1.4805 -0.9188
 9529TIP3    H252783   4.077   3.302   9.142  0.1203 -1.5775  1.8761
 9530TIP3   OH252784   7.664   3.582   9.797  0.1794  0.2523 -0.2678
 9530TIP3    H152785   7.664   3.672   9.765 -2.0683  0.3572 -0.1522
 9530TIP3    H252786   7.583   3.544   9.762  0.7308 -1.5187  0.2471
 9531TIP3   OH252787   8.297   6.940   9.013  0.2348  0.2949  0.1471
 9531TIP3    H152788   8.239   6.882   9.063 -0.5323 -0.6014 -1.7008
 9531TIP3    H252789   8.380   6.892   9.009  0.1007  0.0736  0.0002
 9532TIP3   OH252790   4.090   0.464   8.770 -0.1078 -0.2697  0.5026
 9532TIP3    H152791   4.058   0.387   8.724 -0.1969 -0.1971  0.4425
 9532TIP3    H252792   4.066   0.449   8.861  0.8136 -0.8013  0.6638
 9533TIP3   OH252793   7.915   1.982   9.830  0.0829 -0.1303 -0.1913
 9533TIP3    H152794   7.975   1.915   9.797  0.9474 -0.1872  1.4190
 9533TIP3    H252795   7.841   1.931   9.864  0.9966 -0.3643  1.5615
 9534TIP3   OH252796   7.676   0.118  11.036 -0.8216  0.9263  0.5613
 9534TIP3    H152797   7.617   0.183  11.074 -1.1688  1.0386 -0.1548
 9534TIP3    H252798   7.763   0.155  11.048 -0.8818  0.7338  1.6797
 9535TIP3   OH252799   0.688   4.617  10.030 -0.3404 -0.0640 -0.1358
 9535TIP3    H152800   0.730   4.533  10.013 -0.7902 -0.5227  0.9292
 9535TIP3    H252801   0.595   4.601  10.010 -0.6491 -0.2257  1.3157
 9536TIP3   OH252802   7.325   6.187   8.701 -0.5816 -0.3735  0.5834
 9536TIP3    H152803   7.282   6.243   8.765 -2.8648 -0.3994 -0.8366
 9536TIP3    H252804   7.284   6.209   8.618  1.1459 -1.4946 -0.6452
 9537TIP3   OH252805   0.520   0.176  11.068  0.2196  0.2637  0.1773
 9537TIP3    H152806   0.436   0.213  11.039 -0.1386 -0.2707  0.5160
 9537TIP3    H252807   0.514   0.083  11.048  0.5155  0.1287  0.6878
 9538TIP3   OH252808   3.505   0.945  10.200  0.2957  0.1519  0.0994
 9538TIP3    H152809   3.555   0.938  10.282 -0.1050  1.7756  0.5236
 9538TIP3    H252810   3.551   0.888  10.139  0.6250 -1.0782  1.4367
 9539TIP3   OH252811   8.388   6.555  10.633 -0.1369  0.2330 -0.3110
 9539TIP3    H152812   8.375   6.648  10.647 -0.9941  0.2963 -1.3780
 9539TIP3    H252813   8.311   6.527  10.582 -0.2914 -1.2116  0.6486
 9540TIP3   OH252814   1.951   2.639  10.007  0.2868 -0.6410 -0.1689
 9540TIP3    H152815   1.932   2.679  10.092  1.4188  0.8449 -0.5705
 9540TIP3    H252816   1.941   2.545  10.022 -4.2191 -0.3007  0.3885
 9541TIP3   OH252817   3.817   1.303   9.702 -0.1633  0.2241 -0.0082
 9541TIP3    H152818   3.737   1.291   9.753 -0.0730  0.0497  0.0902
 9541TIP3    H252819   3.819   1.397   9.683 -0.1479  0.3066  0.3910
 9542TIP3   OH252820   8.242   6.400  11.071 -0.0254 -0.3480  0.2536
 9542TIP3    H152821   8.204   6.411  11.158 -1.7941  2.9166 -0.7564
 9542TIP3    H252822   8.168   6.374  11.016  0.6488 -0.4042 -0.6493
 9543TIP3   OH252823   0.750   2.562  10.260  0.5037  0.2885 -0.2793
 9543TIP3    H152824   0.666   2.515  10.260  0.0182  1.0521  1.4565
 9543TIP3    H252825   0.815   2.495  10.241 -0.4523 -0.4391 -1.0857
 9544TIP3   OH252826   0.300   1.640   9.593 -0.0283 -0.1370  0.1582
 9544TIP3    H152827   0.287   1.733   9.608  0.0097 -0.2901  1.2213
 9544TIP3    H252828   0.213   1.602   9.603 -0.0207 -0.2336 -0.1383
 9545TIP3   OH252829   5.766   1.355   9.734  0.1871 -0.2942 -0.5116
 9545TIP3    H152830   5.713   1.421   9.688 -0.3943 -0.1656  0.3169
 9545TIP3    H252831   5.835   1.405   9.777 -0.8661 -0.0730  0.9828
 9546TIP3   OH252832   7.859   5.382  10.270  0.3128 -0.3061  0.1190
 9546TIP3    H152833   7.878   5.413  10.358  1.6749  0.4090 -0.4026
 9546TIP3    H252834   7.917   5.432  10.213  0.5695 -1.8291 -1.0374
 9547TIP3   OH252835   6.207   6.917   9.114 -0.3581  0.0487 -0.2381
 9547TIP3    H152836   6.158   6.884   9.039  0.3496 -0.6067 -0.4204
 9547TIP3    H252837   6.146   6.976   9.159 -1.2100 -0.5362 -0.6164
 9548TIP3   OH252838   0.420   8.124   8.851 -0.9724 -0.2852  0.5964
 9548TIP3    H152839   0.369   8.048   8.820 -1.0840  0.0861 -0.1658
 9548TIP3    H252840   0.354   8.191   8.868 -0.7093  0.8353 -2.1675
 9549TIP3   OH252841   0.257   3.276   9.280  0.0025 -0.0071  0.2327
 9549TIP3    H152842   0.174   3.305   9.244 -0.2938  0.4614  1.2693
 9549TIP3    H252843   0.275   3.336   9.352  1.3070 -0.0197 -0.0612
 9550TIP3   OH252844   8.132   7.009   9.490  0.5317  0.4652 -0.9801
 9550TIP3    H152845   8.130   6.984   9.583 -0.3961 -1.0198 -1.3666
 9550TIP3    H252846   8.040   7.024   9.468  0.8652  2.2367 -1.3296
 9551TIP3   OH252847   6.484   7.286   8.729  0.4221  0.1584 -0.0894
 9551TIP3    H152848   6.461   7.371   8.766  0.4711 -0.7316  2.2120
 9551TIP3    H252849   6.404   7.234   8.738  0.7684 -0.4085 -0.2036
 9552TIP3   OH252850   5.553   3.082   8.851 -0.5832  0.4514 -0.3266
 9552TIP3    H152851   5.513   3.029   8.782 -1.7613  0.9950 -0.0903
 9552TIP3    H252852   5.566   3.021   8.924 -0.8108  0.2160 -0.4794
 9553TIP3   OH252853   8.089   7.119  10.237  0.8827 -0.2775 -0.2736
 9553TIP3    H152854   8.024   7.111  10.306  0.2241  0.9183 -0.7154
 9553TIP3    H252855   8.157   7.175  10.274  0.0313  1.2286 -0.8962
 9554TIP3   OH252856   3.755   5.103   9.471 -0.2077 -0.1890 -0.2097
 9554TIP3    H152857   3.700   5.064   9.538  0.4656 -1.1416 -0.1894
 9554TIP3    H252858   3.763   5.035   9.404  1.4802 -0.3463  0.1062
 9555TIP3   OH252859   1.433   1.584   8.871  0.1826 -0.1006  0.0117
 9555TIP3    H152860   1.337   1.582   8.865  0.1655 -2.8174 -0.2338
 9555TIP3    H252861   1.451   1.624   8.956 -1.1184  1.1369 -0.2586
 9556TIP3   OH252862   1.231   1.423   9.004 -0.1868 -0.3494  0.1065
 9556TIP3    H152863   1.226   1.337   9.047 -3.4852 -0.1093  0.4383
 9556TIP3    H252864   1.188   1.482   9.065 -0.3116  1.0458 -1.2875
 9557TIP3   OH252865   1.281   1.536  10.581  0.1609  0.3049 -0.0743
 9557TIP3    H152866   1.323   1.605  10.530 -0.8366  1.3808  0.5308
 9557TIP3    H252867   1.355   1.486  10.617  0.8876 -0.1160 -2.0180
 9558TIP3   OH252868   4.585   6.685   9.093 -0.1061  0.0367 -0.0996
 9558TIP3    H152869   4.515   6.635   9.051 -1.1385  1.0892  0.3151
 9558TIP3    H252870   4.586   6.655   9.184 -0.2660  0.2619 -0.0203
 9559TIP3   OH252871   4.261   3.119  10.115  0.3488 -0.0992 -0.0049
 9559TIP3    H152872   4.214   3.040  10.088  0.6190 -0.6910  1.1489
 9559TIP3    H252873   4.217   3.190  10.070 -0.8999 -0.7594  0.1209
 9560TIP3   OH252874   0.584   6.699   9.041 -0.3318  0.3538 -0.0334
 9560TIP3    H152875   0.637   6.714   9.119 -0.4934 -0.2628  0.1945
 9560TIP3    H252876   0.622   6.621   9.001 -1.4345 -0.4535  0.4495
 9561TIP3   OH252877   8.410   7.099   8.685 -0.7668 -0.2206  0.0515
 9561TIP3    H152878   8.465   7.021   8.694 -1.4112 -0.8762 -1.3149
 9561TIP3    H252879   8.472   7.172   8.692 -0.2306 -0.8041  1.8902
 9562TIP3   OH252880   6.726   7.535  10.365 -0.4531 -0.2551 -0.1882
 9562TIP3    H152881   6.819   7.538  10.341 -0.2141 -0.0874  0.7423
 9562TIP3    H252882   6.718   7.593  10.440 -1.1078 -1.0673  0.3977
 9563TIP3   OH252883   6.053   3.186   9.683  0.3413 -0.5132 -0.1166
 9563TIP3    H152884   6.031   3.110   9.736 -2.5559  0.5231  0.3100
 9563TIP3    H252885   6.025   3.163   9.595 -1.8654  0.4760  0.2624
 9564TIP3   OH252886   1.137   2.520   9.938 -0.4114 -0.2931  0.2487
 9564TIP3    H152887   1.145   2.428   9.912  1.1622  0.4961 -2.4040
 9564TIP3    H252888   1.189   2.526  10.019 -0.9121 -1.7785  0.7145
 9565TIP3   OH252889   5.141   7.566  10.905 -0.2394 -0.0210 -0.3947
 9565TIP3    H152890   5.213   7.503  10.915 -0.6753 -0.3153  1.3085
 9565TIP3    H252891   5.132   7.605  10.992 -3.1585 -1.1511 -0.0829
 9566TIP3   OH252892   0.685   0.488   9.504 -0.2912  0.0626 -0.0988
 9566TIP3    H152893   0.714   0.517   9.417  0.3656  0.0878  0.1243
 9566TIP3    H252894   0.598   0.450   9.489 -0.5391  0.8259 -0.6298
 9567TIP3   OH252895   1.725   0.916   9.788 -0.2083 -0.2354 -0.1769
 9567TIP3    H152896   1.766   0.854   9.727  0.4600  1.0037 -1.0293
 9567TIP3    H252897   1.640   0.877   9.808  0.4461 -1.7302 -0.1980
 9568TIP3   OH252898   7.545   2.375   9.909  0.4969  0.0830 -0.0444
 9568TIP3    H152899   7.505   2.326   9.837  2.6918 -1.6557 -0.1833
 9568TIP3    H252900   7.485   2.362   9.982 -1.7053  1.7546 -1.4050
 9569TIP3   OH252901   0.549   6.291   8.955 -0.8816 -0.6445  0.6643
 9569TIP3    H152902   0.552   6.302   9.050  0.8332 -3.1351  1.0010
 9569TIP3    H252903   0.608   6.358   8.920 -1.1157 -0.0583  1.3856
 9570TIP3   OH252904   7.353   8.296   9.378  0.0524  0.3305  0.2023
 9570TIP3    H152905   7.305   8.367   9.336  3.0398  1.8386 -0.9940
 9570TIP3    H252906   7.353   8.225   9.314 -1.3958 -0.1082  0.6559
 9571TIP3   OH252907   2.644   6.133  10.279 -0.0335 -0.2528 -0.6262
 9571TIP3    H152908   2.555   6.099  10.270 -0.3787  0.4324  0.0340
 9571TIP3    H252909   2.640   6.192  10.354  0.9111  0.0263 -0.7716
 9572TIP3   OH252910   2.796   4.183   9.978  0.6318 -0.4613 -0.1342
 9572TIP3    H152911   2.853   4.125   9.927 -0.1565 -2.0930  0.7905
 9572TIP3    H252912   2.710   4.174   9.938  0.4566 -0.0482  0.1432
 9573TIP3   OH252913   3.601   7.467  10.132 -0.0274  0.3353  0.0713
 9573TIP3    H152914   3.665   7.476  10.062 -1.1572  1.2478 -0.8904
 9573TIP3    H252915   3.637   7.518  10.205  1.3577 -0.9635  0.3608
 9574TIP3   OH252916   1.875   4.322   8.876  0.1982  0.5592 -0.2311
 9574TIP3    H152917   1.842   4.257   8.939  0.4624 -0.1458 -0.8175
 9574TIP3    H252918   1.814   4.317   8.803 -0.2166  1.5171  0.0315
 9575TIP3   OH252919   0.682   6.157  10.633 -0.3208 -0.0736 -1.0527
 9575TIP3    H152920   0.727   6.142  10.716  0.3483  3.3000 -0.6689
 9575TIP3    H252921   0.709   6.083  10.578  0.0961 -1.8109  1.3442
 9576TIP3   OH252922   7.770   3.371  10.417  0.2167  0.5213  0.6463
 9576TIP3    H152923   7.719   3.324  10.350  1.1872 -0.4917  0.5817
 9576TIP3    H252924   7.704   3.414  10.471 -0.6178  0.9715 -0.6636
 9577TIP3   OH252925   1.703   4.390   9.617 -0.0614  0.0202 -0.1089
 9577TIP3    H152926   1.728   4.300   9.639  2.8185  1.4505  3.7065
 9577TIP3    H252927   1.671   4.384   9.527 -1.4281 -4.9539  0.3603
 9578TIP3   OH252928   5.169   0.277  11.056  0.1376 -0.5422  0.0005
 9578TIP3    H152929   5.133   0.318  10.978  1.2943 -2.3300 -1.5550
 9578TIP3    H252930   5.212   0.197  11.024  2.3163 -0.3747  2.2074
 9579TIP3   OH252931   8.385   2.905  10.921  0.1809 -0.1872  0.1312
 9579TIP3    H152932   8.333   2.940  10.849  3.5588 -0.1951 -2.5331
 9579TIP3    H252933   8.388   2.811  10.906  0.9258 -0.1917  0.2405
 9580TIP3   OH252934   7.089   5.401  10.044  0.8847  0.5204 -0.1930
 9580TIP3    H152935   7.090   5.306  10.055  1.7073  0.4509 -0.8142
 9580TIP3    H252936   7.033   5.432  10.116 -1.3493 -0.5928 -1.3216
 9581TIP3   OH252937   1.119   4.742   9.284 -0.3710 -0.2043 -0.3887
 9581TIP3    H152938   1.171   4.792   9.346  0.3339 -2.7114  1.1817
 9581TIP3    H252939   1.031   4.779   9.291  0.2732  1.2917  0.1062
 9582TIP3   OH252940   3.794   2.780   8.965 -0.3844  0.3269 -0.3556
 9582TIP3    H152941   3.829   2.869   8.953 -1.0408  0.4140 -1.7246
 9582TIP3    H252942   3.704   2.794   8.994 -0.2762  0.0898  0.1126
 9583TIP3   OH252943   8.331   1.071  10.055  0.1711  0.0331 -0.2512
 9583TIP3    H152944   8.387   1.134  10.011  0.1408 -0.7967 -1.5202
 9583TIP3    H252945   8.242   1.099  10.034  0.1490 -0.1280 -0.3715
 9584TIP3   OH252946   1.898   6.720  10.952 -0.0417 -0.1752  0.2714
 9584TIP3    H152947   1.936   6.635  10.977  1.1548 -0.0485 -0.9525
 9584TIP3    H252948   1.804   6.710  10.965  0.1394 -1.5187  0.6512
 9585TIP3   OH252949   6.738   6.826  10.390 -0.4277  0.5790  0.2295
 9585TIP3    H152950   6.792   6.903  10.407 -1.3641  1.1046  0.8824
 9585TIP3    H252951   6.792   6.772  10.332  0.6003  1.3066  0.4711
 9586TIP3   OH252952   2.750   3.013   9.633 -0.1682 -0.3242  0.3612
 9586TIP3    H152953   2.825   2.973   9.590  1.0837 -0.1462  2.2442
 9586TIP3    H252954   2.679   3.006   9.569  1.3943 -0.6164 -1.4323
 9587TIP3   OH252955   1.443   6.165  10.831  0.0602 -0.0588  0.3997
 9587TIP3    H152956   1.514   6.208  10.785 -1.3753  1.1363 -0.7820
 9587TIP3    H252957   1.474   6.157  10.921  0.8623  2.4058  0.4103
 9588TIP3   OH252958   7.939   0.541   9.870 -0.4886 -0.1403  0.1099
 9588TIP3    H152959   7.953   0.554   9.963 -1.1418  0.4498  0.1347
 9588TIP3    H252960   7.952   0.447   9.857  1.8572  0.1020  0.3652
 9589TIP3   OH252961   0.238   3.403  10.222  0.1446  0.0178  0.3665
 9589TIP3    H152962   0.246   3.472  10.156  2.5377 -0.7515 -0.2543
 9589TIP3    H252963   0.251   3.448  10.305  0.2190  0.5447  0.0764
 9590TIP3   OH252964   2.911   4.452   8.889  0.8655 -0.2392 -0.0117
 9590TIP3    H152965   2.913   4.384   8.822 -1.8357  0.0268 -0.4536
 9590TIP3    H252966   2.920   4.404   8.972  2.2794 -0.7607 -0.4472
 9591TIP3   OH252967   5.356   7.951   9.061  0.7048  0.4147 -0.5529
 9591TIP3    H152968   5.409   8.024   9.093 -0.9904  1.4974 -0.0768
 9591TIP3    H252969   5.266   7.984   9.063  0.0530 -1.1272 -1.9372
 9592TIP3   OH252970   5.484   2.463   8.733  0.2935  0.1055 -0.7018
 9592TIP3    H152971   5.394   2.492   8.718  0.0013 -0.7095 -0.5784
 9592TIP3    H252972   5.537   2.542   8.724 -0.4398  0.5958 -0.7491
 9593TIP3   OH252973   6.993   1.400  10.519 -0.5417  0.0896  0.4877
 9593TIP3    H152974   6.982   1.318  10.567 -0.8090  0.2222  0.6545
 9593TIP3    H252975   7.020   1.463  10.586  2.2103 -0.4032 -0.0107
 9594TIP3   OH252976   8.137   1.745   9.389  0.2966  0.0359 -0.3927
 9594TIP3    H152977   8.048   1.780   9.394  0.6547  0.8620  0.6302
 9594TIP3    H252978   8.136   1.670   9.449  0.5784  0.7645  0.5568
 9595TIP3   OH252979   5.720   6.911   8.944  0.1523 -0.1903 -0.6228
 9595TIP3    H152980   5.638   6.908   8.895 -0.6231  1.0107  0.5215
 9595TIP3    H252981   5.757   6.997   8.923  1.5442 -1.0224 -1.7337
 9596TIP3   OH252982   0.826   7.845   8.780 -0.1081 -0.1654  0.5038
 9596TIP3    H152983   0.747   7.880   8.740 -0.5576  1.5975  2.6961
 9596TIP3    H252984   0.895   7.908   8.756  0.2033 -0.6146  0.2146
 9597TIP3   OH252985   0.647   2.251  10.347 -0.2640 -0.5027 -0.4912
 9597TIP3    H152986   0.729   2.253  10.298 -0.2391  0.7882 -0.4432
 9597TIP3    H252987   0.664   2.192  10.421  0.9914  0.5504  0.0995
 9598TIP3   OH252988   5.685   2.646   8.878 -0.3537 -0.2400  0.1535
 9598TIP3    H152989   5.777   2.626   8.896 -0.2152 -0.3256 -0.5867
 9598TIP3    H252990   5.640   2.628   8.960  0.3005 -0.1495  0.5408
 9599TIP3   OH252991   4.490   0.491   9.244  0.2618  0.2434  0.5060
 9599TIP3    H152992   4.422   0.425   9.232 -1.1878  1.5537  1.2327
 9599TIP3    H252993   4.464   0.564   9.189  1.8909  0.2230 -0.3516
 9600TIP3   OH252994   2.637   3.016  10.421 -0.0154  0.2672 -0.1718
 9600TIP3    H152995   2.548   2.986  10.403  0.6388 -0.9166 -1.6372
 9600TIP3    H252996   2.690   2.937  10.418  1.3603  1.1742 -1.3285
 9601TIP3   OH252997   7.300   1.264  10.101 -0.5373 -0.1957  0.6280
 9601TIP3    H152998   7.316   1.219  10.018 -0.6527  1.0192 -0.0865
 9601TIP3    H252999   7.266   1.350  10.075 -2.6137 -0.5366  1.9777
 9602TIP3   OH253000   2.489   2.305   9.565  0.4513  0.0768  0.3870
 9602TIP3    H153001   2.441   2.290   9.484  0.7665 -0.5482  0.3127
 9602TIP3    H253002   2.532   2.390   9.552 -0.2695  0.4421  0.2891
 9603TIP3   OH253003   5.135   2.870   9.760 -0.2193  0.0836 -0.4540
 9603TIP3    H153004   5.175   2.792   9.799 -1.1541  0.2920  1.0154
 9603TIP3    H253005   5.067   2.836   9.702 -0.1181 -0.2030 -0.4066
 9604TIP3   OH253006   7.174   6.721   9.498  0.1916  0.2052  0.2542
 9604TIP3    H153007   7.255   6.706   9.548  0.4744  0.3484 -0.1585
 9604TIP3    H253008   7.104   6.709   9.562  0.4902 -0.9301  0.3916
 9605TIP3   OH253009   5.397   7.974   9.884  0.2305 -0.4236 -0.4253
 9605TIP3    H153010   5.420   7.920   9.959 -2.2251 -0.5921  0.2919
 9605TIP3    H253011   5.396   8.064   9.919 -0.1238 -0.4157 -0.4513
 9606TIP3   OH253012   7.535   6.035  10.429  0.0525 -0.1305  0.1565
 9606TIP3    H153013   7.628   6.017  10.414 -0.1943 -1.1717 -0.2150
 9606TIP3    H253014   7.522   6.015  10.522 -0.7956 -4.9882 -0.7355
 9607TIP3   OH253015   6.354   5.749  11.036  0.3755  0.1474 -0.0208
 9607TIP3    H153016   6.380   5.822  11.093 -0.8934  0.1197  0.6395
 9607TIP3    H253017   6.274   5.779  10.993  0.4896 -0.4138 -0.6497
 9608TIP3   OH253018   3.522   2.446   8.881  0.0305  0.5266 -0.6692
 9608TIP3    H153019   3.432   2.428   8.855 -0.5659  0.2432  1.4364
 9608TIP3    H253020   3.524   2.540   8.899  0.5062  0.7699 -1.8920
 9609TIP3   OH253021   7.378   4.861   9.674 -0.0378  0.1288  0.6302
 9609TIP3    H153022   7.333   4.859   9.759 -1.7497  1.3166 -0.1923
 9609TIP3    H253023   7.462   4.904   9.693 -0.2489  0.0784  1.7810
 9610TIP3   OH253024   6.649   6.041   9.515  0.2060 -0.5617 -0.2270
 9610TIP3    H153025   6.571   6.089   9.541  0.2013 -0.2637 -0.7789
 9610TIP3    H253026   6.635   6.020   9.423  0.6536 -0.7459 -0.2580
 9611TIP3   OH253027   6.208   7.970   8.890  0.2221  0.2648  0.8743
 9611TIP3    H153028   6.272   7.940   8.826 -0.1608  0.9262  0.1662
 9611TIP3    H253029   6.133   7.911   8.880 -0.3252  1.1043 -0.1588
 9612TIP3   OH253030   2.129   6.873  10.880  0.2169  0.0106  0.3650
 9612TIP3    H153031   2.055   6.824  10.916  0.7032 -1.1446 -0.1762
 9612TIP3    H253032   2.102   6.896  10.791  0.6335 -0.7030  0.0505
 9613TIP3   OH253033   1.141   2.485  11.116  0.6378  0.5773  0.2128
 9613TIP3    H153034   1.141   2.462  11.209 -0.2549 -1.1912 -0.1868
 9613TIP3    H253035   1.054   2.520  11.099  1.4779  2.9784  0.4568
 9614TIP3   OH253036   2.344   1.937   8.864  0.2583 -0.1335  0.7934
 9614TIP3    H153037   2.437   1.927   8.883  0.8739  2.3094 -0.5574
 9614TIP3    H253038   2.314   2.005   8.924 -0.1172  0.5977 -0.1957
 9615TIP3   OH253039   8.186   7.937   9.395  0.6866  0.1780 -0.2105
 9615TIP3    H153040   8.216   7.924   9.305 -0.6155 -0.6921 -0.5431
 9615TIP3    H253041   8.249   7.999   9.432  1.6388  0.0363 -1.5034
 9616TIP3   OH253042   1.198   0.347  10.187  0.1306 -0.3369  0.3898
 9616TIP3    H153043   1.148   0.269  10.211 -0.9459 -0.2396 -1.3412
 9616TIP3    H253044   1.132   0.412  10.164  1.0292  0.2534 -0.6371
 9617TIP3   OH253045   4.176   7.679   9.638  0.0574  0.3019 -0.1043
 9617TIP3    H153046   4.170   7.766   9.677 -0.7791  0.1678  0.0773
 9617TIP3    H253047   4.091   7.664   9.597  0.1787 -0.4361 -0.1103
 9618TIP3   OH253048   4.769   1.147   9.898  0.4459 -0.0071 -0.4925
 9618TIP3    H153049   4.803   1.233   9.875  0.5747  0.6276  1.8832
 9618TIP3    H253050   4.776   1.142   9.993 -1.9081 -1.6560 -0.3174
 9619TIP3   OH253051   1.688   2.977   9.439  1.1690 -0.0394 -0.1018
 9619TIP3    H153052   1.694   2.883   9.455  4.0788  0.2704  1.2295
 9619TIP3    H253053   1.632   2.984   9.361 -2.9412 -2.4668  2.2509
 9620TIP3   OH253054   7.104   0.801  10.118 -0.2754 -0.2482  0.6333
 9620TIP3    H153055   7.086   0.863  10.188 -0.1083  1.3757 -0.6834
 9620TIP3    H253056   7.068   0.718  10.149 -2.0429  0.8721  1.7655
 9621TIP3   OH253057   3.682   1.177  10.234 -0.4107  0.0879  0.3902
 9621TIP3    H153058   3.695   1.184  10.329 -1.1934 -0.2587  0.5394
 9621TIP3    H253059   3.587   1.170  10.224 -0.3086 -0.3374 -0.3892
 9622TIP3   OH253060   4.584   3.988   9.195 -0.0528 -0.1482 -0.5731
 9622TIP3    H153061   4.664   4.021   9.237  0.1067  0.2341 -1.1715
 9622TIP3    H253062   4.555   4.060   9.140 -0.6639 -0.3916 -0.5684
 9623TIP3   OH253063   7.803   7.406  10.235 -0.2672  0.3785  0.1619
 9623TIP3    H153064   7.764   7.492  10.222 -3.3284 -0.9231 -0.1213
 9623TIP3    H253065   7.824   7.402  10.328 -2.6744  0.5176  0.7570
 9624TIP3   OH253066   3.667   4.517  10.639 -0.6796  0.4718  0.0414
 9624TIP3    H153067   3.589   4.559  10.675 -1.7591 -0.6919 -0.8214
 9624TIP3    H253068   3.635   4.468  10.563  0.7337 -0.7715  0.1939
 9625TIP3   OH253069   1.254   0.157   9.874 -0.0230 -0.1089  0.3416
 9625TIP3    H153070   1.240   0.252   9.867  0.6177 -0.1198 -2.9642
 9625TIP3    H253071   1.189   0.127   9.937 -2.7237  2.1034 -1.1775
 9626TIP3   OH253072   2.928   4.967   9.971 -0.0985  0.1968  0.3406
 9626TIP3    H153073   2.917   4.942  10.063  1.1394  0.5650  0.6035
 9626TIP3    H253074   2.929   5.062   9.971  0.1643  0.1971 -0.0321
 9627TIP3   OH253075   2.159   4.700  10.557  0.0295  0.5270  0.0045
 9627TIP3    H153076   2.163   4.669  10.647 -1.3877 -0.7497 -0.3316
 9627TIP3    H253077   2.081   4.755  10.554  0.3527  0.9754 -0.3309
 9628TIP3   OH253078   6.953   1.394   9.950 -0.1144 -0.2090  0.1644
 9628TIP3    H153079   6.910   1.475   9.921  1.6468  0.9563  0.5911
 9628TIP3    H253080   6.947   1.396  10.045  0.1876 -0.4019  0.1900
 9629TIP3   OH253081   8.132   1.448   8.948 -0.2580  0.3776  0.1612
 9629TIP3    H153082   8.205   1.456   8.886  0.3818  3.1495  1.0839
 9629TIP3    H253083   8.054   1.450   8.893  0.3282  1.3180 -0.6914
 9630TIP3   OH253084   7.674   7.251   9.940  0.0982 -0.2875 -0.0518
 9630TIP3    H153085   7.733   7.326   9.946  0.6986 -0.6792 -0.8709
 9630TIP3    H253086   7.685   7.205  10.023  1.8702 -1.0168 -0.6399
 9631TIP3   OH253087   5.642   6.123  10.575  0.5456 -0.3632  0.1905
 9631TIP3    H153088   5.565   6.134  10.519 -0.8724 -3.2502  1.3727
 9631TIP3    H253089   5.638   6.196  10.636 -0.7742  0.0300 -0.3278
 9632TIP3   OH253090   2.240   8.067   9.976  0.2148  0.7430  0.2223
 9632TIP3    H153091   2.239   8.006  10.050 -0.2384  0.5735  0.0810
 9632TIP3    H253092   2.269   8.014   9.902 -0.1447  0.7038  0.1067
 9633TIP3   OH253093   3.470   6.505   9.479 -0.2057  0.2103 -0.2694
 9633TIP3    H153094   3.394   6.557   9.453 -2.3213 -1.8604  1.2705
 9633TIP3    H253095   3.477   6.519   9.574  0.0850 -1.1004 -0.0687
 9634TIP3   OH253096   3.355   4.848  10.638  0.2912 -0.4241  0.1478
 9634TIP3    H153097   3.294   4.917  10.666 -0.3671 -0.2089 -1.6717
 9634TIP3    H253098   3.370   4.796  10.717  0.6023  1.6280  1.5243
 9635TIP3   OH253099   3.409   5.182  10.227  0.2478  0.1200 -0.0261
 9635TIP3    H153100   3.390   5.089  10.238 -0.1089  0.1498 -0.3489
 9635TIP3    H253101   3.426   5.214  10.315  0.7877 -0.3393  0.0402
 9636TIP3   OH253102   1.775   5.265   8.644  0.0897 -0.6521  0.0570
 9636TIP3    H153103   1.848   5.206   8.662  1.3706  0.6615 -0.6886
 9636TIP3    H253104   1.814   5.339   8.599 -1.3278  1.2303  1.7544
 9637TIP3   OH253105   3.590   6.598   9.129  0.0209 -0.1147  0.5253
 9637TIP3    H153106   3.610   6.537   9.199  2.8389 -2.1827 -1.8055
 9637TIP3    H253107   3.581   6.543   9.051 -2.1331  2.1112 -0.9522
 9638TIP3   OH253108   4.153   4.803  10.934 -0.2297 -0.3424  0.5793
 9638TIP3    H153109   4.122   4.718  10.903  0.0059  0.3091 -1.5857
 9638TIP3    H253110   4.077   4.861  10.925 -0.4919 -0.3320  2.3583
 9639TIP3   OH253111   4.126   0.403   9.800  0.6342  0.0458  0.4938
 9639TIP3    H153112   4.036   0.429   9.819  0.1208  1.2386 -2.8566
 9639TIP3    H253113   4.159   0.367   9.882 -2.9551 -0.6686  1.7902
 9640TIP3   OH253114   4.041   3.311  10.312 -0.0185  0.2997 -0.0078
 9640TIP3    H153115   4.112   3.247  10.312  0.5190  0.8682 -1.1817
 9640TIP3    H253116   4.070   3.379  10.252 -1.2433  0.9095  0.0592
 9641TIP3   OH253117   2.368   7.980   9.722  0.0544  0.4839  0.3587
 9641TIP3    H153118   2.334   8.053   9.670 -0.6117 -0.0936 -0.0347
 9641TIP3    H253119   2.454   8.010   9.751  0.3847  0.8871 -0.9448
 9642TIP3   OH253120   7.890   4.888   8.901  0.8664 -0.2289  0.3932
 9642TIP3    H153121   7.840   4.840   8.835 -0.9299  1.4830  0.4035
 9642TIP3    H253122   7.952   4.824   8.936  0.0455 -1.9012 -1.0646
 9643TIP3   OH253123   1.163   1.198   9.119  0.5200  0.7003 -0.0384
 9643TIP3    H153124   1.238   1.163   9.168  1.3251  3.1004  0.6208
 9643TIP3    H253125   1.153   1.140   9.044  1.9609 -0.6591  0.7658
 9644TIP3   OH253126   6.614   2.922   9.758  0.1425 -0.0240  0.1742
 9644TIP3    H153127   6.705   2.947   9.777 -0.2805  1.4441  0.4032
 9644TIP3    H253128   6.572   2.920   9.843  0.3876 -2.8168  0.3368
 9645TIP3   OH253129   7.956   1.187   9.142 -0.2568 -0.2935  0.1430
 9645TIP3    H153130   8.020   1.136   9.192  0.7006  0.6193 -0.1161
 9645TIP3    H253131   7.953   1.272   9.187 -0.7802 -0.0970 -0.2517
 9646TIP3   OH253132   8.037   2.666   9.439  0.4187 -0.6731 -0.1567
 9646TIP3    H153133   8.118   2.625   9.469  0.1301 -0.5143  0.8841
 9646TIP3    H253134   8.066   2.734   9.379  1.1531  0.0871  1.0088
 9647TIP3   OH253135   6.377   1.520   9.244  0.3217 -0.6709 -0.1570
 9647TIP3    H153136   6.338   1.571   9.315 -0.4132 -2.4145  0.7764
 9647TIP3    H253137   6.456   1.482   9.283  0.0605 -1.4129 -0.3217
 9648TIP3   OH253138   2.340   0.368  10.160  0.5374 -0.1385 -0.2811
 9648TIP3    H153139   2.359   0.429  10.232  1.1913  1.0741 -1.4292
 9648TIP3    H253140   2.359   0.419  10.081 -1.9858 -0.7931 -1.3936
 9649TIP3   OH253141   6.071   6.670   9.296  0.5511 -0.3380 -0.3357
 9649TIP3    H153142   6.060   6.579   9.322 -1.4175  0.6220  2.7987
 9649TIP3    H253143   5.988   6.694   9.256  0.5714  0.3730  0.0226
 9650TIP3   OH253144   1.699   1.251   9.418  0.1458  0.2999  0.1861
 9650TIP3    H153145   1.772   1.212   9.369  0.9984  2.1975 -0.1242
 9650TIP3    H253146   1.724   1.240   9.509  1.2168  1.5423  0.0815
 9651TIP3   OH253147   5.333   4.622   9.694 -0.6365  0.2654  0.4678
 9651TIP3    H153148   5.350   4.567   9.770  0.3777  1.2118  0.9617
 9651TIP3    H253149   5.293   4.701   9.730 -1.8384 -0.0193 -0.1996
 9652TIP3   OH253150   4.707   5.457  10.840 -0.1479 -0.1371 -0.6359
 9652TIP3    H153151   4.627   5.427  10.883 -0.4285  0.6702 -0.5791
 9652TIP3    H253152   4.773   5.458  10.909 -0.9261  2.4983  0.1648
 9653TIP3   OH253153   2.930   7.631   9.552  0.0519 -0.0513 -0.8018
 9653TIP3    H153154   2.992   7.704   9.545 -1.3157  1.4103  1.2169
 9653TIP3    H253155   2.963   7.578   9.625 -0.1538 -0.2340 -0.8390
 9654TIP3   OH253156   2.059   6.613   9.553  0.3508 -0.0716  0.4774
 9654TIP3    H153157   2.122   6.597   9.623  2.4169 -1.8719 -1.6474
 9654TIP3    H253158   2.086   6.696   9.515 -0.8306  0.9571  1.7593
 9655TIP3   OH253159   1.041   0.845   9.453 -0.2820  0.1880  0.1972
 9655TIP3    H153160   1.085   0.927   9.476  1.7652 -0.0780 -2.2369
 9655TIP3    H253161   1.054   0.788   9.528 -0.7947  1.7194  1.4961
 9656TIP3   OH253162   7.030   6.015   8.836 -0.1626 -0.2748 -0.2197
 9656TIP3    H153163   6.941   6.047   8.855 -0.1682 -0.8960  0.9370
 9656TIP3    H253164   7.087   6.084   8.870 -0.1933  0.0847 -0.8842
 9657TIP3   OH253165   4.129   0.094   9.878  0.0825  0.0312  0.4581
 9657TIP3    H153166   4.157   0.139   9.799 -1.3643  1.2139  0.5811
 9657TIP3    H253167   4.079   0.159   9.926 -0.2642 -1.0983  1.6698
 9658TIP3   OH253168   1.533   4.338  10.870  0.0692 -0.1293  0.4045
 9658TIP3    H153169   1.620   4.327  10.832  0.3946  3.4232 -0.1833
 9658TIP3    H253170   1.513   4.431  10.858 -2.9066 -0.3694  2.4963
 9659TIP3   OH253171   7.476   3.259   9.300  0.0984  0.1232  0.1812
 9659TIP3    H153172   7.455   3.223   9.386 -0.1157  2.0920  0.9989
 9659TIP3    H253173   7.555   3.211   9.272  0.2933 -0.3881  1.5525
 9660TIP3   OH253174   8.047   6.533   9.677  0.7118  0.1858  0.1373
 9660TIP3    H153175   8.060   6.600   9.744  3.5432 -0.8158  0.7357
 9660TIP3    H253176   7.995   6.465   9.720 -0.0329  0.8593  0.3241
 9661TIP3   OH253177   6.736   1.019   9.243 -0.5827 -0.2096  0.3181
 9661TIP3    H153178   6.795   0.976   9.306  0.3444  0.7783  0.1492
 9661TIP3    H253179   6.650   1.015   9.285 -0.3371 -1.3052  0.7631
 9662TIP3   OH253180   5.426   0.347   9.684  0.3498  0.3612 -0.1343
 9662TIP3    H153181   5.369   0.421   9.665  1.9346  1.6991  0.0700
 9662TIP3    H253182   5.511   0.372   9.648  0.3389 -2.6021 -2.6321
 9663TIP3   OH253183   3.436   8.211   8.883 -0.1109  0.4902 -0.0993
 9663TIP3    H153184   3.358   8.228   8.831 -1.0502 -0.7535  0.8478
 9663TIP3    H253185   3.419   8.253   8.967 -0.4258 -0.9895  0.6158
 9664TIP3   OH253186   2.233   3.497  10.252 -0.2646 -0.1342  0.3548
 9664TIP3    H153187   2.227   3.562  10.322 -0.2393 -1.8408  2.0378
 9664TIP3    H253188   2.306   3.440  10.279 -2.3605 -2.8342  0.7713
 9665TIP3   OH253189   0.882   1.863  10.024  0.1408 -0.9089 -0.3537
 9665TIP3    H153190   0.912   1.808   9.952  0.4829  0.2437 -1.1107
 9665TIP3    H253191   0.803   1.906   9.991  0.9751  0.5571 -0.5199
 9666TIP3   OH253192   5.990   1.572   9.138  0.2602 -0.0243 -0.6270
 9666TIP3    H153193   6.075   1.547   9.103  0.2161 -0.7076 -0.2523
 9666TIP3    H253194   6.000   1.664   9.163  0.6892  0.0829 -1.1745
 9667TIP3   OH253195   4.679   7.294  10.003  0.5274  0.1334  0.4489
 9667TIP3    H153196   4.627   7.332  10.074  0.3119  0.6378  0.0314
 9667TIP3    H253197   4.757   7.258  10.046 -0.9469 -2.2163  1.3315
 9668TIP3   OH253198   6.841   6.787   9.829 -0.2776  0.1599  0.0074
 9668TIP3    H153199   6.896   6.762   9.755 -0.7715  0.0629 -0.3377
 9668TIP3    H253200   6.872   6.733   9.902  1.9628  2.0928  0.6128
 9669TIP3   OH253201   8.410   8.135  10.664  0.0388  0.5965 -0.5044
 9669TIP3    H153202   8.327   8.105  10.627  0.0423 -3.9530  2.3651
 9669TIP3    H253203   8.386   8.208  10.721 -1.5012  1.0971 -1.7235
 9670TIP3   OH253204   1.619   3.254  10.986  0.0440 -0.0464 -0.0781
 9670TIP3    H153205   1.710   3.233  10.963 -0.4509 -1.9445 -0.5266
 9670TIP3    H253206   1.567   3.203  10.924 -1.3382  0.8470  0.3138
 9671TIP3   OH253207   7.073   0.968   9.628  0.2168 -0.6347 -0.3152
 9671TIP3    H153208   7.073   0.897   9.564  0.6588  0.1077 -1.1611
 9671TIP3    H253209   7.128   0.936   9.700  0.6069 -1.0489 -0.7929
 9672TIP3   OH253210   4.428   3.060  11.255  0.8008  0.2490  0.0965
 9672TIP3    H153211   4.423   2.986  11.195  1.1947  1.1125 -1.0338
 9672TIP3    H253212   4.392   3.133  11.206  2.2160  1.2344  0.4902
 9673TIP3   OH253213   5.505   8.352   9.090 -0.0701  0.1631 -0.3115
 9673TIP3    H153214   5.460   8.434   9.068 -1.3807 -0.4037  0.1941
 9673TIP3    H253215   5.468   8.327   9.175  1.6108 -0.0449  0.4049
 9674TIP3   OH253216   3.575   6.367   9.272  0.9018  0.3361 -0.5297
 9674TIP3    H153217   3.535   6.412   9.347  1.2017 -0.0869 -0.1112
 9674TIP3    H253218   3.540   6.277   9.277 -0.1545  0.6532 -1.6926
 9675TIP3   OH253219   1.442   0.818   9.622  0.3177 -0.5174  0.0091
 9675TIP3    H153220   1.348   0.826   9.604  0.4065 -1.0814 -0.7922
 9675TIP3    H253221   1.470   0.744   9.568  0.8724 -1.5463  1.6500
 9676TIP3   OH253222   2.600   0.703   9.311  0.3458 -0.1509 -0.7258
 9676TIP3    H153223   2.542   0.639   9.268 -1.8024  1.2543 -0.0964
 9676TIP3    H253224   2.556   0.724   9.393  3.5095 -1.5102  1.5250
 9677TIP3   OH253225   2.891   1.604   8.664 -0.2423  1.0106  0.1096
 9677TIP3    H153226   2.890   1.510   8.646 -0.4116  0.7252  1.4985
 9677TIP3    H253227   2.910   1.610   8.758 -4.0478  2.2110  0.9590
 9678TIP3   OH253228   1.102   7.206   9.054 -0.0704 -0.0973 -0.1289
 9678TIP3    H153229   1.165   7.223   9.124 -0.3295 -0.6941  0.2559
 9678TIP3    H253230   1.081   7.113   9.062 -1.0482  0.1086 -0.2164
 9679TIP3   OH253231   1.076   7.489   9.064 -0.0579 -0.3346 -0.4868
 9679TIP3    H153232   1.124   7.530   8.993  1.9735  0.9125  1.4770
 9679TIP3    H253233   1.067   7.397   9.038 -1.0882  0.4367 -3.1352
 9680TIP3   OH253234   6.969   2.309   9.182 -0.2443  0.1116 -0.5398
 9680TIP3    H153235   7.025   2.256   9.125 -1.7704 -0.1731 -1.8645
 9680TIP3    H253236   6.889   2.321   9.131 -0.6444  2.1705  0.4807
 9681TIP3   OH253237   3.272   3.543  10.173 -0.1557  0.4163  0.1126
 9681TIP3    H153238   3.347   3.598  10.154 -0.1803  0.3834 -0.0872
 9681TIP3    H253239   3.215   3.597  10.228  0.4864  0.0785  1.1283
 9682TIP3   OH253240   2.884   2.847  10.597 -0.1954 -0.5544 -0.2374
 9682TIP3    H153241   2.905   2.828  10.689  1.3823 -1.5201 -0.7578
 9682TIP3    H253242   2.806   2.794  10.579 -2.2937  1.7697  1.2617
 9683TIP3   OH253243   6.292   0.654  10.779 -0.1129 -0.2337  0.0445
 9683TIP3    H153244   6.293   0.598  10.702 -0.0193 -1.7260  1.0800
 9683TIP3    H253245   6.301   0.743  10.745  0.5309 -0.8982 -1.6060
 9684TIP3   OH253246   5.031   1.665   9.213  0.0915 -0.5983  0.5268
 9684TIP3    H153247   5.079   1.597   9.260  0.3827 -2.5549 -2.3358
 9684TIP3    H253248   4.964   1.694   9.275  2.0218 -1.0541  3.0084
 9685TIP3   OH253249   2.496   4.903  10.647 -0.5094  0.6983 -0.1499
 9685TIP3    H153250   2.501   4.991  10.684  2.1292  1.0528 -1.1513
 9685TIP3    H253251   2.555   4.851  10.702 -0.0282  0.1868 -1.1321
 9686TIP3   OH253252   4.755   0.885   8.980  1.0239  0.1135 -0.3337
 9686TIP3    H153253   4.777   0.977   8.964 -0.6468  0.7071  0.5407
 9686TIP3    H253254   4.660   0.882   8.972  1.0903 -1.6170 -0.6539
 9687TIP3   OH253255   3.785   4.490   9.589 -0.7496 -0.4242 -0.4987
 9687TIP3    H153256   3.794   4.394   9.584 -1.2520 -0.5254  0.2828
 9687TIP3    H253257   3.833   4.514   9.668 -0.5306 -0.0143 -0.7566
 9688TIP3   OH253258   4.722   5.859  10.377 -0.0049 -0.1185 -0.0226
 9688TIP3    H153259   4.648   5.891  10.428 -1.2634  1.7469 -2.7836
 9688TIP3    H253260   4.682   5.815  10.302  1.7554 -1.8945  0.0037
 9689TIP3   OH253261   4.082   4.505   9.653  0.8962 -0.0505 -0.0361
 9689TIP3    H153262   4.028   4.547   9.586 -2.9329 -1.1435  2.0093
 9689TIP3    H253263   4.115   4.577   9.706 -0.3136  0.6353 -0.1846
 9690TIP3   OH253264   3.257   0.622  10.054  0.1683  0.7551 -0.1361
 9690TIP3    H153265   3.246   0.622   9.959  0.7883  0.6015 -0.2144
 9690TIP3    H253266   3.325   0.556  10.070 -1.0102 -0.3206  0.5527
 9691TIP3   OH253267   5.829   4.056  10.050  0.1883 -0.5060 -0.3560
 9691TIP3    H153268   5.793   4.044  10.138  0.2875 -0.9376 -0.3706
 9691TIP3    H253269   5.799   4.143  10.023  0.0169 -0.4421  0.0365
 9692TIP3   OH253270   2.667   0.325  10.750 -0.1299 -0.0187  0.0306
 9692TIP3    H153271   2.663   0.351  10.658  1.1363 -1.4463 -0.4676
 9692TIP3    H253272   2.707   0.401  10.794 -0.5348  0.5837 -0.6158
 9693TIP3   OH253273   4.980   0.736  10.690 -0.1124 -0.2816 -0.0274
 9693TIP3    H153274   5.027   0.725  10.608  0.9394 -1.7229  0.7217
 9693TIP3    H253275   4.931   0.654  10.700 -2.5702  1.0177 -0.6052
 9694TIP3   OH253276   8.109   7.007   9.956  0.0483 -0.1744 -0.1351
 9694TIP3    H153277   8.027   6.975   9.993  0.5522  0.0090  1.1661
 9694TIP3    H253278   8.139   7.074  10.016  1.3839 -0.5459 -0.3472
 9695TIP3   OH253279   4.970   3.350   9.361  0.2178  0.1977  0.5585
 9695TIP3    H153280   4.880   3.380   9.347 -0.3395 -2.1979 -1.8178
 9695TIP3    H253281   4.963   3.283   9.428  0.4100  0.6950  1.0827
 9696TIP3   OH253282   3.227   5.521  10.251  0.1072  0.3146 -0.1990
 9696TIP3    H153283   3.238   5.602  10.300  3.3738  0.1464 -0.4602
 9696TIP3    H253284   3.241   5.452  10.316 -0.7280 -0.0404 -0.3777
 9697TIP3   OH253285   6.082   2.160  10.439 -0.1793 -0.3557  0.4448
 9697TIP3    H153286   6.157   2.218  10.429  0.8460 -1.4958  1.2272
 9697TIP3    H253287   6.101   2.109  10.518 -0.2968 -2.7684 -0.9697
 9698TIP3   OH253288   8.122   6.351   9.335  0.5430 -0.0848 -0.6892
 9698TIP3    H153289   8.167   6.337   9.418 -0.1057  0.5475 -0.2118
 9698TIP3    H253290   8.168   6.426   9.296 -0.0484  0.5471 -0.2121
 9699TIP3   OH253291   1.980   0.066   9.820  0.1358 -0.4973  0.0025
 9699TIP3    H153292   2.018   0.147   9.855 -1.3871  0.1154  0.3111
 9699TIP3    H253293   2.031  -0.004   9.861  1.4507  0.2815 -0.2334
 9700TIP3   OH253294   8.254   0.433   8.807  0.3621 -0.1966 -0.5312
 9700TIP3    H153295   8.307   0.513   8.797  0.4641  0.1582  2.0908
 9700TIP3    H253296   8.167   0.458   8.778  0.8915  0.1604 -1.8947
 9701TIP3   OH253297   2.647   7.155   9.135  0.4038 -0.0605 -0.1333
 9701TIP3    H153298   2.737   7.138   9.108  0.5034  2.9442 -2.1234
 9701TIP3    H253299   2.654   7.226   9.198 -0.6134  1.4755 -1.6803
 9702TIP3   OH253300   6.258   6.292   9.048 -0.6365  0.3633  0.2060
 9702TIP3    H153301   6.166   6.264   9.051 -0.4846 -0.4302 -1.3367
 9702TIP3    H253302   6.281   6.288   8.955  1.0122  0.3894  0.5871
 9703TIP3   OH253303   6.198   0.817   8.617  0.7334  0.6587 -0.3134
 9703TIP3    H153304   6.162   0.899   8.651 -2.1935  0.1484 -1.8242
 9703TIP3    H253305   6.174   0.751   8.682 -1.1209  0.3357 -1.2699
 9704TIP3   OH253306   5.480   3.229   9.277 -0.6206  0.3852 -0.9672
 9704TIP3    H153307   5.397   3.252   9.318  0.1959  1.0148  0.4281
 9704TIP3    H253308   5.495   3.298   9.213 -0.7918  0.7440 -0.6262
 9705TIP3   OH253309   3.447   6.128   9.314 -0.1274  0.3441 -0.3197
 9705TIP3    H153310   3.354   6.103   9.309  0.2359 -1.5824  1.2715
 9705TIP3    H253311   3.494   6.049   9.290  1.0961  0.4032  1.6337
 9706TIP3   OH253312   5.900   4.516   9.052  0.0651  0.0875  0.7875
 9706TIP3    H153313   5.981   4.530   9.101  0.2936  1.3746  0.0924
 9706TIP3    H253314   5.924   4.454   8.983  0.0447 -0.7831  1.5462
 9707TIP3   OH253315   3.441   3.065  10.081  0.1721  0.1295 -0.0848
 9707TIP3    H153316   3.453   3.145  10.132 -1.5796  0.8928 -0.8043
 9707TIP3    H253317   3.479   3.085   9.995  1.3365 -0.4690  0.2637
 9708TIP3   OH253318   3.333   5.573  10.836 -0.1866 -0.1798  0.2220
 9708TIP3    H153319   3.314   5.506  10.901  1.0754 -1.2458 -0.4508
 9708TIP3    H253320   3.357   5.524  10.757  2.5720  0.9743  0.2288
 9709TIP3   OH253321   2.458   3.292   9.431 -0.0473 -0.0972 -0.1336
 9709TIP3    H153322   2.529   3.235   9.461  0.1679  0.4597  0.4294
 9709TIP3    H253323   2.408   3.237   9.371  1.3094 -0.2486 -1.1734
 9710TIP3   OH253324   2.665   2.123  10.714 -0.2105  0.5690  0.2149
 9710TIP3    H153325   2.754   2.152  10.735 -0.6362  0.6153  2.2219
 9710TIP3    H253326   2.613   2.204  10.715 -0.3377  0.4995 -0.5992
 9711TIP3   OH253327   1.778   6.698   9.491  0.0623  0.1126 -0.0029
 9711TIP3    H153328   1.830   6.749   9.553 -0.1985 -0.9559  1.1315
 9711TIP3    H253329   1.838   6.680   9.419  0.6399  0.6483  0.3384
 9712TIP3   OH253330   2.916   3.830   9.369 -0.3124  0.0365  0.7921
 9712TIP3    H153331   2.901   3.857   9.460  0.6314 -1.1691  1.3237
 9712TIP3    H253332   2.983   3.890   9.337 -0.9731  0.7629  0.7132
 9713TIP3   OH253333   8.100   2.655  10.174 -0.5168 -0.5344  0.5763
 9713TIP3    H153334   8.147   2.732  10.141 -0.9086 -0.8235 -0.7063
 9713TIP3    H253335   8.168   2.598  10.209 -0.1686  0.1601  1.0421
 9714TIP3   OH253336   4.182   6.771   9.092  0.4474  0.0076  0.2549
 9714TIP3    H153337   4.100   6.820   9.077  0.5283  0.3492  0.8755
 9714TIP3    H253338   4.160   6.707   9.160  0.1725 -1.2861 -1.0127
 9715TIP3   OH253339   6.640   5.466  11.035  0.3003 -0.7838  0.0665
 9715TIP3    H153340   6.675   5.499  10.952  0.5248 -0.8803  0.1222
 9715TIP3    H253341   6.716   5.432  11.081  0.4491  0.7546  1.0153
 9716TIP3   OH253342   6.724   7.999   9.016 -0.5047 -0.3959  0.4415
 9716TIP3    H153343   6.800   7.998   8.958 -0.9450  0.0882 -0.1613
 9716TIP3    H253344   6.659   8.053   8.970 -1.2943 -0.9847  0.8286
 9717TIP3   OH253345   6.220   3.508   9.063 -0.7168 -0.5064 -0.0192
 9717TIP3    H153346   6.151   3.559   9.105 -1.1439 -1.5535  0.5740
 9717TIP3    H253347   6.214   3.531   8.970 -0.9345  0.4649  0.2215
 9718TIP3   OH253348   7.715   7.780   9.851  0.4107 -0.0459  0.2303
 9718TIP3    H153349   7.717   7.720   9.776 -0.4139  1.0662 -0.7359
 9718TIP3    H253350   7.804   7.779   9.885  0.7194 -0.8518 -0.5546
 9719TIP3   OH253351   2.822   2.882  10.102 -0.1106 -0.3358  0.0385
 9719TIP3    H153352   2.809   2.877  10.007 -0.0571  2.4512 -0.2126
 9719TIP3    H253353   2.760   2.950  10.130 -0.7378 -1.7087  2.1759
 9720TIP3   OH253354   2.032   5.983  10.155  0.2203  0.1866 -0.1085
 9720TIP3    H153355   2.070   6.005  10.070  0.0332  0.4302 -0.1302
 9720TIP3    H253356   2.105   5.945  10.205 -0.0744 -1.6894 -0.9948
 9721TIP3   OH253357   4.981   1.937   9.303 -0.2733  0.3918  0.1844
 9721TIP3    H153358   4.893   1.936   9.264  0.0112  2.3295 -0.6142
 9721TIP3    H253359   5.040   1.946   9.228  0.4820  1.1118  0.8559
 9722TIP3   OH253360   3.093   4.023   9.067 -0.5193 -0.1336 -0.0540
 9722TIP3    H153361   3.001   3.997   9.079 -0.8941  0.4230 -1.5427
 9722TIP3    H253362   3.108   4.015   8.973  1.1172 -0.6694  0.2213
 9723TIP3   OH253363   4.611   2.852  10.275 -0.1239 -0.0390  0.2074
 9723TIP3    H153364   4.655   2.937  10.278 -2.0717  1.3380 -3.7108
 9723TIP3    H253365   4.524   2.869  10.312 -0.7473 -0.0990 -1.1885
 9724TIP3   OH253366   5.010   4.449   9.744 -0.1813 -1.0296  0.0369
 9724TIP3    H153367   5.099   4.476   9.719 -0.4270  0.5594  0.7231
 9724TIP3    H253368   5.023   4.387   9.816  0.3770 -1.4536 -0.4182
 9725TIP3   OH253369   1.133   6.768   8.847  0.1732 -0.5147  0.0146
 9725TIP3    H153370   1.222   6.740   8.867  0.0394 -0.8241  0.1990
 9725TIP3    H253371   1.135   6.863   8.852  0.7769 -0.4477 -1.1892
 9726TIP3   OH253372   1.461   3.472  11.000  0.4862  0.4760  0.5235
 9726TIP3    H153373   1.502   3.534  11.060  1.6998 -0.3972  0.6377
 9726TIP3    H253374   1.517   3.395  11.003 -0.6453 -0.4033 -0.0853
 9727TIP3   OH253375   5.665   5.905   9.759 -0.0235  0.1090 -0.2494
 9727TIP3    H153376   5.641   5.821   9.797 -1.2488  0.7666  0.5089
 9727TIP3    H253377   5.625   5.904   9.672 -0.8819  0.2728  0.1306
 9728TIP3   OH253378   3.715   7.512   9.832  0.0687 -0.2461  0.0517
 9728TIP3    H153379   3.652   7.445   9.804  0.0056 -0.0474 -0.2805
 9728TIP3    H253380   3.796   7.463   9.848 -0.0063 -0.4189 -0.0915
 9729TIP3   OH253381   6.566   7.988   9.365 -0.0667 -0.2027  0.7204
 9729TIP3    H153382   6.621   7.987   9.287 -1.0112 -0.7447  0.0481
 9729TIP3    H253383   6.568   8.079   9.395 -0.6479  0.2736 -0.6261
 9730TIP3   OH253384   2.861   7.096   8.835 -0.9055  0.1029  0.4377
 9730TIP3    H153385   2.923   7.027   8.813 -0.0928  1.5498 -2.1885
 9730TIP3    H253386   2.850   7.089   8.930  1.9757 -1.2576  0.7552
 9731TIP3   OH253387   6.070   5.273   9.109 -0.2671 -0.5896 -0.2320
 9731TIP3    H153388   6.030   5.198   9.066 -2.1573 -0.9837  1.9843
 9731TIP3    H253389   5.996   5.327   9.136  0.7639 -0.2745  2.2472
 9732TIP3   OH253390   1.746   7.208   8.577  0.6190  0.5117 -0.3284
 9732TIP3    H153391   1.745   7.283   8.518  0.7940  1.3007  0.6546
 9732TIP3    H253392   1.667   7.217   8.630  0.2485 -0.4164 -0.7015
 9733TIP3   OH253393   3.983   1.386   8.772 -0.3753 -0.5154  0.0385
 9733TIP3    H153394   4.065   1.434   8.772  0.4030 -1.7842  1.1463
 9733TIP3    H253395   3.917   1.451   8.795  0.2564  0.5722 -1.1127
 9734TIP3   OH253396   4.455   3.673  10.467 -0.1375  0.1571  0.2236
 9734TIP3    H153397   4.384   3.609  10.464 -0.3093  0.2780  1.2894
 9734TIP3    H253398   4.526   3.628  10.513  0.9530 -0.3855 -1.8753
 9735TIP3   OH253399   2.751   8.200   9.318 -0.0202 -0.6252  0.1715
 9735TIP3    H153400   2.749   8.285   9.275  1.1353 -0.1830  0.9394
 9735TIP3    H253401   2.786   8.141   9.251  1.5793  0.0210  0.3788
 9736TIP3   OH253402   0.594   6.036   9.404  0.1063  0.7235 -0.2412
 9736TIP3    H153403   0.563   6.109   9.458 -1.5686  0.1848 -0.4084
 9736TIP3    H253404   0.542   5.962   9.433  0.9798 -0.1594 -0.8698
 9737TIP3   OH253405   2.015   4.470   9.473 -0.0164  0.0953 -0.0544
 9737TIP3    H153406   1.988   4.379   9.483 -1.4721  0.5168  0.1350
 9737TIP3    H253407   2.102   4.473   9.512 -0.3571 -1.0102  0.8813
 9738TIP3   OH253408   5.450   1.216   9.219 -0.5425 -0.2425 -0.0248
 9738TIP3    H153409   5.504   1.164   9.159 -1.6512 -1.9572  0.4043
 9738TIP3    H253410   5.510   1.282   9.253  1.3919 -2.1646  0.5410
 9739TIP3   OH253411   7.158   0.939  10.354 -0.3645 -0.1936  0.1984
 9739TIP3    H153412   7.121   1.028  10.352 -1.3212 -0.5753  0.3909
 9739TIP3    H253413   7.105   0.892  10.418  0.0331 -0.9516 -0.0149
 9740TIP3   OH253414   3.111   0.950   8.715 -0.2785  0.0151 -0.3184
 9740TIP3    H153415   3.102   0.919   8.625  1.2512  0.0686 -0.5284
 9740TIP3    H253416   3.024   0.940   8.753 -1.3279  1.3098 -2.2043
 9741TIP3   OH253417   5.598   6.616  10.199  0.5139 -0.4637  0.2355
 9741TIP3    H153418   5.692   6.617  10.221  0.5861 -1.9588  0.1256
 9741TIP3    H253419   5.571   6.526  10.219 -0.5284 -0.5060 -1.2612
 9742TIP3   OH253420   7.877   4.072  10.001  0.0138  0.1776 -0.0066
 9742TIP3    H153421   7.923   4.077   9.917 -1.3978  0.3766 -0.7926
 9742TIP3    H253422   7.947   4.078  10.066  1.2080 -0.6385 -1.1514
 9743TIP3   OH253423   7.973   1.197  10.308  0.4987  0.0254  0.1499
 9743TIP3    H153424   8.054   1.176  10.356  0.1575  1.9380  1.6981
 9743TIP3    H253425   7.984   1.288  10.281 -1.1101  0.3215  0.3896
 9744TIP3   OH253426   6.848   7.319  11.180 -0.3961  0.3673 -0.1174
 9744TIP3    H153427   6.779   7.254  11.167 -1.5779  1.1958  1.6833
 9744TIP3    H253428   6.806   7.403  11.162 -0.0342  0.9181  1.4264
 9745TIP3   OH253429   1.383   4.113   8.782  0.4806 -0.2351 -0.1376
 9745TIP3    H153430   1.407   4.024   8.759  1.5618 -0.2458  0.9718
 9745TIP3    H253431   1.447   4.140   8.848 -0.4021  1.0197  0.2540
 9746TIP3   OH253432   5.023   0.923  10.972 -0.1194 -0.2015 -0.6806
 9746TIP3    H153433   5.069   0.990  11.021 -0.0140 -0.8082  0.0810
 9746TIP3    H253434   4.948   0.968  10.934 -0.2021  0.2933  0.0478
 9747TIP3   OH253435   6.226   2.268  10.851 -0.2804  0.2058  0.5721
 9747TIP3    H153436   6.215   2.187  10.801 -4.1759 -0.0729  1.5132
 9747TIP3    H253437   6.197   2.337  10.792  1.8739  0.8586  0.1886
 9748TIP3   OH253438   6.490   3.899   8.942  0.5153  0.4827 -0.2956
 9748TIP3    H153439   6.438   3.826   8.907  0.9714 -0.1218  0.2618
 9748TIP3    H253440   6.481   3.891   9.037  1.6656  0.3347 -0.1841
 9749TIP3   OH253441   4.256   0.488  10.251  0.4016 -0.0754 -0.1350
 9749TIP3    H153442   4.197   0.563  10.251 -1.6268 -1.5466  1.5839
 9749TIP3    H253443   4.268   0.466  10.343 -1.4073 -3.4790 -0.5282
 9750TIP3   OH253444   0.481   7.598   9.253  0.6835  0.3212 -0.2685
 9750TIP3    H153445   0.475   7.514   9.298  2.8551 -1.0876 -2.3517
 9750TIP3    H253446   0.450   7.662   9.316 -1.8838 -2.0874  1.1244
 9751TIP3   OH253447   2.434   6.324   9.440  0.2710 -0.1702  0.5925
 9751TIP3    H153448   2.342   6.344   9.458  0.4555  0.2428  1.0972
 9751TIP3    H253449   2.446   6.235   9.473 -0.3819 -0.9222 -1.0554
 9752TIP3   OH253450   2.284   4.737   8.845 -0.4407  0.3655  0.5043
 9752TIP3    H153451   2.237   4.727   8.927  2.8746 -1.5185  2.3713
 9752TIP3    H253452   2.286   4.649   8.807 -0.2669  0.8392 -0.6204
 9753TIP3   OH253453   1.978   3.191   8.995 -0.0772  0.7118  0.3299
 9753TIP3    H153454   2.062   3.214   8.956 -0.8187  3.8280  0.2570
 9753TIP3    H253455   1.919   3.179   8.920 -0.3860  1.8044  0.3743
 9754TIP3   OH253456   0.407   4.013   9.445  0.4225  0.0060 -0.2116
 9754TIP3    H153457   0.370   3.951   9.508 -0.6852 -1.8820 -2.5409
 9754TIP3    H253458   0.345   4.087   9.445  0.2099 -0.1634  0.5850
 9755TIP3   OH253459   3.592   2.145   9.324 -0.2140  0.3689  0.3002
 9755TIP3    H153460   3.547   2.076   9.276  0.4880  0.8707 -1.1409
 9755TIP3    H253461   3.677   2.107   9.348 -0.3419  0.3059  0.6571
 9756TIP3   OH253462   5.330   7.339   9.956 -0.3965 -0.9513 -0.5160
 9756TIP3    H153463   5.304   7.322  10.046 -0.7815  3.8942  0.5992
 9756TIP3    H253464   5.420   7.371   9.963 -0.9315  0.9586 -1.4973
 9757TIP3   OH253465   4.187   3.188   9.007 -0.4127  0.2253  0.3702
 9757TIP3    H153466   4.253   3.132   8.966 -0.5180 -0.2703  0.8550
 9757TIP3    H253467   4.118   3.197   8.941  1.2515  2.9111 -1.1813
 9758TIP3   OH253468   4.390   0.678   9.016 -0.2690  0.1564  0.6776
 9758TIP3    H153469   4.400   0.765   9.054 -1.0498  0.4737  0.1904
 9758TIP3    H253470   4.384   0.694   8.922  1.9984 -0.6373  0.3244
 9759TIP3   OH253471   2.790   2.485   8.657 -0.4603 -0.2160  0.5297
 9759TIP3    H153472   2.861   2.430   8.625  0.7207 -0.1779  2.8650
 9759TIP3    H253473   2.711   2.433   8.644  0.0693 -0.6084 -1.3159
 9760TIP3   OH253474   0.801   4.400   8.863  0.1226  0.0201  0.3739
 9760TIP3    H153475   0.830   4.322   8.911 -0.2358 -1.0010 -0.9892
 9760TIP3    H253476   0.744   4.365   8.794  1.8060  1.2356 -1.7451
 9761TIP3   OH253477   4.161   1.326   9.022 -0.2490 -0.2456  0.2529
 9761TIP3    H153478   4.253   1.346   9.038 -0.5742  0.4612  1.3028
 9761TIP3    H253479   4.141   1.372   8.941  0.0901  0.3365  0.4930
 9762TIP3   OH253480   1.396   4.880   8.780  0.4236 -0.1964 -0.2536
 9762TIP3    H153481   1.321   4.839   8.737 -0.3551 -0.4426  1.2732
 9762TIP3    H253482   1.443   4.807   8.820  0.3250  0.1577  0.5147
 9763TIP3   OH253483   0.286   5.200  11.158 -0.3505 -0.1160 -0.2341
 9763TIP3    H153484   0.258   5.117  11.118 -0.5199 -0.3386  0.3367
 9763TIP3    H253485   0.331   5.246  11.087 -0.4326 -0.6080 -0.6167
 9764TIP3   OH253486   6.462   1.091  10.421 -0.2832 -0.0380 -0.3265
 9764TIP3    H153487   6.438   0.998  10.428  1.0660 -0.3543  0.4775
 9764TIP3    H253488   6.515   1.108  10.498  0.1146  1.2223 -0.8502
 9765TIP3   OH253489   0.422   4.915   9.291  0.0017 -0.1016  0.0884
 9765TIP3    H153490   0.369   4.962   9.227 -0.8040 -1.8344 -0.6060
 9765TIP3    H253491   0.512   4.940   9.271 -0.3664  0.7260 -0.5770
 9766TIP3   OH253492   5.129   4.857  10.012  0.1475  0.1097 -0.8026
 9766TIP3    H153493   5.133   4.928   9.947 -0.2012  0.9304  0.0425
 9766TIP3    H253494   5.217   4.855  10.050  0.2992 -0.2469 -1.1735
 9767TIP3   OH253495   6.280   2.273  10.301  0.7338  0.1698  0.7343
 9767TIP3    H153496   6.308   2.349  10.250  0.6252 -1.4773 -1.9834
 9767TIP3    H253497   6.357   2.248  10.352  2.1872 -0.3222 -1.5595
 9768TIP3   OH253498   1.287   1.212  10.221 -0.0922 -0.8830 -0.3211
 9768TIP3    H153499   1.200   1.249  10.235 -0.1015 -1.6361  1.9858
 9768TIP3    H253500   1.344   1.263  10.279  0.6243 -1.7753 -0.2239
 9769TIP3   OH253501   1.619   4.705   9.859  0.6358 -0.1740 -0.0167
 9769TIP3    H153502   1.650   4.618   9.833  2.8484  0.8878 -1.2747
 9769TIP3    H253503   1.629   4.706   9.954 -1.7502 -2.0646  0.3362
 9770TIP3   OH253504   7.861   3.941   8.786  0.0326  0.1191  0.0181
 9770TIP3    H153505   7.834   3.852   8.765  0.1743  0.3107 -1.0389
 9770TIP3    H253506   7.778   3.988   8.800 -0.0866  0.0664 -0.4872
 9771TIP3   OH253507   3.346   7.728   8.557 -0.3275 -0.2110  0.6267
 9771TIP3    H153508   3.338   7.635   8.536 -1.6400  0.0000  0.1451
 9771TIP3    H253509   3.293   7.740   8.636 -0.6253  0.2349  0.3630
 9772TIP3   OH253510   5.896   8.157   9.303  0.0141 -0.2989 -0.1790
 9772TIP3    H153511   5.815   8.122   9.265  0.7942 -1.8556 -0.4736
 9772TIP3    H253512   5.919   8.230   9.246 -0.7131 -0.3983 -0.6183
 9773TIP3   OH253513   5.855   6.180   9.965  0.2375  0.3176  0.2838
 9773TIP3    H153514   5.928   6.169  10.026  0.8370 -1.6313 -0.6977
 9773TIP3    H253515   5.866   6.109   9.902 -2.0111  0.5416 -0.4305
 9774TIP3   OH253516   4.207   7.346  10.098 -0.3845  0.0207  0.5392
 9774TIP3    H153517   4.267   7.308  10.162  1.0660  0.1990 -0.6677
 9774TIP3    H253518   4.264   7.387  10.033 -1.8449  1.6905  0.2400
 9775TIP3   OH253519   3.898   7.673  10.532  0.2914 -0.1835 -0.1532
 9775TIP3    H153520   3.966   7.739  10.519  2.2427 -1.5532  2.3479
 9775TIP3    H253521   3.866   7.688  10.621 -0.9113 -1.1846 -0.3821
 9776TIP3   OH253522   0.419   0.389  10.052  0.0353  0.2363  0.3218
 9776TIP3    H153523   0.351   0.411   9.989  1.0413  0.2936 -0.7866
 9776TIP3    H253524   0.423   0.465  10.111 -2.3516 -0.6823  1.8382
 9777TIP3   OH253525   2.967   0.145   8.782 -0.3312  0.5037 -0.1407
 9777TIP3    H153526   2.971   0.070   8.841 -0.6086 -0.6993 -1.5889
 9777TIP3    H253527   3.049   0.142   8.733 -1.1641 -0.0691 -1.5750
 9778TIP3   OH253528   2.316   8.211   9.589  0.1084  0.0119  0.0394
 9778TIP3    H153529   2.281   8.300   9.598  1.5559  0.6539 -0.3598
 9778TIP3    H253530   2.403   8.223   9.551  0.3402 -1.5861 -0.0137
 9779TIP3   OH253531   7.222   8.176  10.505 -0.0795 -0.7583 -0.1274
 9779TIP3    H153532   7.303   8.208  10.465 -1.2976 -0.9183 -2.8982
 9779TIP3    H253533   7.213   8.228  10.585  0.6040  2.3136 -1.8861
 9780TIP3   OH253534   4.474   8.322  10.058  0.3312  0.0242 -0.7011
 9780TIP3    H153535   4.523   8.396  10.022  0.0766  0.1925 -0.6982
 9780TIP3    H253536   4.382   8.348  10.053  0.1690 -0.6396 -1.5172
 9781TIP3   OH253537   2.775   0.336   9.649 -0.1482 -0.4997 -0.2425
 9781TIP3    H153538   2.700   0.302   9.600  0.5334 -0.5152 -1.3151
 9781TIP3    H253539   2.798   0.265   9.710 -0.7911 -0.6221 -0.1359
 9782TIP3   OH253540   4.618   5.123   9.189  0.4424 -0.6454 -0.5520
 9782TIP3    H153541   4.523   5.121   9.181  0.3029  0.8806  0.3626
 9782TIP3    H253542   4.637   5.084   9.274  0.3543  1.6852  0.6326
 9783TIP3   OH253543   3.207   6.249   8.866 -0.2577  0.1767  0.2385
 9783TIP3    H153544   3.294   6.231   8.900  0.3368  0.4824 -1.0938
 9783TIP3    H253545   3.156   6.171   8.888  0.6856 -0.5539 -0.1001
 9784TIP3   OH253546   7.388   6.167  10.093 -0.0338 -0.3159  0.0713
 9784TIP3    H153547   7.302   6.186  10.131 -1.2588 -1.8834 -1.7373
 9784TIP3    H253548   7.379   6.080  10.054  1.8664  0.1614 -1.6114
 9785TIP3   OH253549   7.095   1.212  10.304 -0.4039  0.8650 -0.1392
 9785TIP3    H153550   7.080   1.303  10.327 -0.1219  0.7105  0.7064
 9785TIP3    H253551   7.173   1.214  10.248  0.2612  1.0552  0.7684
 9786TIP3   OH253552   0.406   3.501   9.826 -0.3259  0.3948 -0.1549
 9786TIP3    H153553   0.401   3.581   9.773 -1.8894 -0.1835 -0.9229
 9786TIP3    H253554   0.353   3.520   9.904 -2.3427 -0.5213 -1.2437
 9787TIP3   OH253555   8.137   1.013   9.824 -0.6069  0.1031  0.6706
 9787TIP3    H153556   8.172   0.933   9.786 -0.7484  0.3689 -0.0201
 9787TIP3    H253557   8.086   0.983   9.900 -0.4078 -0.4309  0.5937
 9788TIP3   OH253558   3.978   7.360   9.878 -0.2801 -0.0504 -0.0867
 9788TIP3    H153559   3.989   7.321   9.791 -1.3378  0.5605 -0.5191
 9788TIP3    H253560   4.068   7.371   9.911  0.1604  0.0466 -1.2602
 9789TIP3   OH253561   6.382   7.015   9.499  0.2678  0.3247 -0.5659
 9789TIP3    H153562   6.440   7.076   9.543  0.0751  0.2937 -0.2653
 9789TIP3    H253563   6.395   7.031   9.405 -0.8711  1.8710 -0.4935
 9790TIP3   OH253564   0.067   7.833  10.954 -0.2491 -0.4778 -0.2897
 9790TIP3    H153565   0.104   7.750  10.921  1.6813  0.0347  0.4347
 9790TIP3    H253566   0.078   7.894  10.882  3.6237  0.5433  0.9086
 9791TIP3   OH253567   0.461   4.456   9.568 -0.2489 -0.1755  0.0544
 9791TIP3    H153568   0.394   4.512   9.530  0.2623  0.6949  0.4002
 9791TIP3    H253569   0.543   4.484   9.527 -0.0264 -0.9004 -0.0141
 9792TIP3   OH253570   0.309   7.092   9.303  0.3463 -0.4488  0.0100
 9792TIP3    H153571   0.258   7.098   9.384  0.4706  2.6181  0.0050
 9792TIP3    H253572   0.256   7.139   9.238  0.7008 -2.0018 -1.4624
 9793TIP3   OH253573   3.068   1.944   8.169  0.1275  0.3187 -0.0084
 9793TIP3    H153574   3.129   1.920   8.100 -1.9897 -1.1996 -1.4739
 9793TIP3    H253575   3.027   1.862   8.195 -1.0589  1.2256  1.1276
 9794TIP3   OH253576   4.793   6.507  10.119 -0.3033  0.6207  0.2429
 9794TIP3    H153577   4.776   6.416  10.098  0.3191  0.8961 -1.6738
 9794TIP3    H253578   4.882   6.508  10.155  0.2107  0.6024 -0.9852
 9795TIP3   OH253579   5.134   2.362   9.977  0.1069  0.3449 -0.2433
 9795TIP3    H153580   5.046   2.394   9.960 -0.3021 -1.2540 -1.4357
 9795TIP3    H253581   5.122   2.286  10.034  0.9558  1.6021  1.6889
 9796TIP3   OH253582   6.976   2.275  10.319 -0.0401  0.4710 -0.3981
 9796TIP3    H153583   6.893   2.266  10.365  0.0568 -0.5331 -0.3895
 9796TIP3    H253584   6.951   2.295  10.229 -0.2534  1.2975 -0.1648
 9797TIP3   OH253585   2.568   7.476   8.296 -0.0287  0.1295  0.5682
 9797TIP3    H153586   2.634   7.472   8.365  1.8335  1.3221 -1.0266
 9797TIP3    H253587   2.576   7.393   8.250  1.3581  0.7658 -0.4150
 9798TIP3   OH253588   3.975   2.415   9.842 -0.6340 -0.3435 -0.4920
 9798TIP3    H153589   4.011   2.326   9.843  0.2263 -0.0054 -0.5751
 9798TIP3    H253590   3.888   2.405   9.802 -0.8941 -1.2641  0.2441
 9799TIP3   OH253591   0.541   7.029  10.206  0.1795  0.2307  0.1892
 9799TIP3    H153592   0.593   7.038  10.286  1.3384  0.7649 -0.6045
 9799TIP3    H253593   0.581   6.957  10.158  0.3553  0.8074 -0.5459
 9800TIP3   OH253594   2.210   1.084  10.825 -0.5641  0.2888 -0.0783
 9800TIP3    H153595   2.151   1.078  10.900  1.0877  0.4133  1.2938
 9800TIP3    H253596   2.250   1.171  10.833 -0.6763  0.4769 -1.3704
 9801TIP3   OH253597   8.264   1.715   9.104 -0.1454  0.5616  0.6027
 9801TIP3    H153598   8.236   1.754   9.187 -2.1809 -0.2991  0.3693
 9801TIP3    H253599   8.349   1.676   9.124  0.7972  2.8348  1.4871
 9802TIP3   OH253600   0.707   5.825  10.777 -0.0953  0.0501 -0.2846
 9802TIP3    H153601   0.616   5.852  10.792 -0.5156 -1.2443 -0.4403
 9802TIP3    H253602   0.730   5.865  10.693 -0.6322  0.1061 -0.4090
 9803TIP3   OH253603   0.299   1.707   9.277 -0.5965 -0.2685 -0.2548
 9803TIP3    H153604   0.352   1.629   9.259  2.4526  1.3369  1.1538
 9803TIP3    H253605   0.309   1.722   9.371 -2.0150  1.2499 -0.2945
 9804TIP3   OH253606   1.593   7.312   8.969 -0.5016 -0.3617  0.2397
 9804TIP3    H153607   1.562   7.392   8.926 -1.2337 -0.1547  1.1262
 9804TIP3    H253608   1.611   7.252   8.897 -0.7442  0.3115 -0.4009
 9805TIP3   OH253609   2.524   2.467   9.302 -0.0764 -0.2740 -0.3788
 9805TIP3    H153610   2.525   2.528   9.229  3.0202 -2.6578 -2.5611
 9805TIP3    H253611   2.457   2.402   9.279 -2.4060  1.3507  1.3026
 9806TIP3   OH253612   2.097   6.954   9.883 -0.1443 -0.0169  0.0166
 9806TIP3    H153613   2.103   6.997   9.969  2.0965 -1.9283  0.9288
 9806TIP3    H253614   2.156   7.005   9.827  0.6095 -0.4344  0.4190
 9807TIP3   OH253615   5.412   1.587   9.161  0.5094  0.1361  0.4548
 9807TIP3    H153616   5.502   1.555   9.158  0.6366  0.4447  0.8781
 9807TIP3    H253617   5.363   1.516   9.203  0.3142 -0.5600 -0.8997
 9808TIP3   OH253618   6.206   0.423   9.472 -0.5622 -0.6422 -0.8501
 9808TIP3    H153619   6.140   0.491   9.464  0.7945  0.9570  0.6616
 9808TIP3    H253620   6.198   0.392   9.562  1.2313  0.2030 -0.3408
 9809TIP3   OH253621   2.861   6.871  10.108 -0.0098  0.5270  0.2475
 9809TIP3    H153622   2.915   6.835  10.037  2.3742  2.9422  0.6940
 9809TIP3    H253623   2.812   6.795  10.140 -1.1482 -0.7402 -3.7976
 9810TIP3   OH253624   8.225   2.026  10.853  0.0227 -0.1152 -0.0648
 9810TIP3    H153625   8.193   2.073  10.776  1.4953  1.4422  0.2084
 9810TIP3    H253626   8.193   2.078  10.927  0.0432 -0.6488  0.3231
 9811TIP3   OH253627   2.369   5.263  10.569 -0.4417  0.0987  0.6323
 9811TIP3    H153628   2.279   5.284  10.594 -0.5292 -0.8667  1.1756
 9811TIP3    H253629   2.381   5.307  10.484 -0.8538  1.6325  1.3335
 9812TIP3   OH253630   0.965   8.341   8.638  0.1372 -0.6908  0.1041
 9812TIP3    H153631   0.945   8.335   8.545 -2.8410 -1.3615  0.6701
 9812TIP3    H253632   0.905   8.407   8.672  0.0877 -1.5325  1.7903
 9813TIP3   OH253633   5.374   0.723   9.504  0.0441 -0.4022  0.2520
 9813TIP3    H153634   5.467   0.734   9.522 -0.0208 -0.4507  0.6218
 9813TIP3    H253635   5.330   0.775   9.571 -0.2103 -0.8232  0.4163
 9814TIP3   OH253636   0.503   6.047   9.867 -0.2592  0.2875 -0.1474
 9814TIP3    H153637   0.555   6.126   9.876  1.5723 -0.8475 -0.1733
 9814TIP3    H253638   0.438   6.052   9.937  2.4827 -0.1036  2.6067
 9815TIP3   OH253639   0.288   3.368  10.519  0.2364  0.2461  0.1093
 9815TIP3    H153640   0.348   3.390  10.590 -1.4196 -0.6144  1.8697
 9815TIP3    H253641   0.272   3.275  10.529  1.5170 -0.4013 -2.7286
 9816TIP3   OH253642   0.898   4.199  11.043 -0.0280  0.1514  0.2512
 9816TIP3    H153643   0.934   4.161  11.123  1.4477  0.4665 -0.2317
 9816TIP3    H253644   0.915   4.133  10.976 -1.3346 -0.1487  0.1942
 9817TIP3   OH253645   0.962   3.396   9.832 -0.3860 -0.0401 -0.1094
 9817TIP3    H153646   0.957   3.304   9.806  1.0242  0.0745 -0.8371
 9817TIP3    H253647   1.020   3.436   9.768  0.2701  1.0279  1.1173
 9818TIP3   OH253648   0.581   3.391   9.389  0.5172 -0.0037  0.3377
 9818TIP3    H153649   0.624   3.458   9.442 -0.4202 -0.0262  1.1701
 9818TIP3    H253650   0.501   3.371   9.437  0.5321 -1.3578 -0.1663
 9819TIP3   OH253651   3.664   7.615  10.377  0.1148  0.6204 -0.0638
 9819TIP3    H153652   3.740   7.618  10.434 -0.1254  3.4484  0.2593
 9819TIP3    H253653   3.589   7.606  10.436  0.0698 -1.8175 -0.3619
 9820TIP3   OH253654   6.137   4.432  10.869 -0.1969  0.6064  0.0151
 9820TIP3    H153655   6.233   4.435  10.864 -0.2139  1.6516  0.0827
 9820TIP3    H253656   6.116   4.339  10.862  0.6917  0.5072 -2.1174
 9821TIP3   OH253657   4.484   0.372   9.772  0.0932 -0.1209  0.0856
 9821TIP3    H153658   4.563   0.360   9.718 -0.1737 -0.4516 -0.2407
 9821TIP3    H253659   4.412   0.374   9.709 -0.2796 -1.0813  0.4576
 9822TIP3   OH253660   7.261   7.632  10.706  0.0108 -0.5315  0.2331
 9822TIP3    H153661   7.287   7.625  10.797 -0.2746  1.8919  0.5585
 9822TIP3    H253662   7.342   7.616  10.657  0.3591 -0.9668  0.9320
 9823TIP3   OH253663   0.847   4.282   9.318  0.1176  0.3820  0.5642
 9823TIP3    H153664   0.881   4.253   9.403 -0.3863 -0.2223  0.5595
 9823TIP3    H253665   0.904   4.356   9.294  0.3844  0.4343  1.3316
 9824TIP3   OH253666   1.230   3.133   9.098  0.4962 -0.1582 -0.9601
 9824TIP3    H153667   1.314   3.169   9.126  0.7863  0.1862 -2.2187
 9824TIP3    H253668   1.245   3.039   9.091  0.8659 -0.0647 -1.4639
 9825TIP3   OH253669   3.534   4.886   9.204 -0.1236 -0.0816  0.2214
 9825TIP3    H153670   3.470   4.842   9.259 -1.8365  1.0757 -0.7353
 9825TIP3    H253671   3.616   4.881   9.253 -0.2450 -3.9174  0.3341
 9826TIP3   OH253672   1.162   6.113  10.843 -0.3565  0.0210  0.2204
 9826TIP3    H153673   1.252   6.123  10.812 -0.7962  0.8138 -0.8705
 9826TIP3    H253674   1.167   6.124  10.938  0.7240 -0.1837  0.1946
 9827TIP3   OH253675   1.283   0.616   9.977  1.0541 -0.9574 -0.5543
 9827TIP3    H153676   1.217   0.558   9.938  1.1597 -2.2686  1.1139
 9827TIP3    H253677   1.345   0.556  10.019  0.0798  0.3450  3.0120
 9828TIP3   OH253678   3.164   0.703   8.865 -0.5897  0.4331  0.4337
 9828TIP3    H153679   3.126   0.692   8.952  0.2822  1.2080  0.9328
 9828TIP3    H253680   3.186   0.797   8.860 -1.3764  0.5729 -0.9335
 9829TIP3   OH253681   3.979   7.738   8.789 -0.5531 -0.2821  0.1791
 9829TIP3    H153682   3.908   7.714   8.730 -1.2731  2.5504 -0.2689
 9829TIP3    H253683   3.940   7.805   8.846  0.9477 -0.8451  1.9501
 9830TIP3   OH253684   2.225   6.431   8.445 -0.2028 -0.1936 -0.7270
 9830TIP3    H153685   2.198   6.522   8.435  0.8475  0.3629  1.0879
 9830TIP3    H253686   2.184   6.403   8.527 -1.3685 -1.7350 -1.7557
 9831TIP3   OH253687   0.465   1.056   8.824 -0.3467 -0.0193  0.5776
 9831TIP3    H153688   0.398   1.103   8.874 -0.1246  0.0617  0.7986
 9831TIP3    H253689   0.461   0.967   8.858 -0.2258  0.0254  0.7077
 9832TIP3   OH253690   6.450   4.071   9.482 -0.3827  0.5717  0.3719
 9832TIP3    H153691   6.537   4.101   9.511  0.7095 -0.3431 -1.7218
 9832TIP3    H253692   6.445   3.981   9.514 -0.4704  0.5458  0.2807
 9833TIP3   OH253693   2.132   2.003   9.714  0.2661 -0.0786  0.1420
 9833TIP3    H153694   2.137   1.907   9.711  0.3961 -0.0871  0.5037
 9833TIP3    H253695   2.211   2.032   9.669 -0.4199 -0.1200 -1.1317
 9834TIP3   OH253696   2.622   2.084   9.608  0.1263  0.3018  0.1162
 9834TIP3    H153697   2.583   2.170   9.589 -0.3633  0.0565 -0.0214
 9834TIP3    H253698   2.551   2.022   9.591  0.6609 -0.1831 -0.3773
 9835TIP3   OH253699   5.754   4.306   9.986  0.3624 -0.1750 -0.7220
 9835TIP3    H153700   5.666   4.333  10.015  0.0786 -0.4559 -1.3197
 9835TIP3    H253701   5.768   4.353   9.904 -0.1424 -1.7998 -1.7958
 9836TIP3   OH253702   3.737   0.272   8.916  1.0222  0.1601  0.0360
 9836TIP3    H153703   3.827   0.303   8.915  1.4602 -1.0262  1.0455
 9836TIP3    H253704   3.720   0.248   9.007  0.2132 -1.1161 -0.4243
 9837TIP3   OH253705   0.218   5.302   9.423  0.0354  0.1023 -0.0762
 9837TIP3    H153706   0.154   5.233   9.407  0.0862  0.4187 -1.8070
 9837TIP3    H253707   0.268   5.271   9.499 -1.0531 -0.9327  0.2578
 9838TIP3   OH253708   7.250   5.184   9.387  0.4366  0.2652  0.0405
 9838TIP3    H153709   7.265   5.205   9.479 -0.2638 -1.5930  0.6274
 9838TIP3    H253710   7.317   5.119   9.366 -0.5415 -0.6962 -0.1981
 9839TIP3   OH253711   8.048   2.545   9.921  0.0325 -0.0066  0.1786
 9839TIP3    H153712   8.047   2.580  10.010  0.0169  0.4338  0.0042
 9839TIP3    H253713   7.986   2.472   9.924  1.8046 -1.5669  1.1686
 9840TIP3   OH253714   1.696   5.909  11.081 -0.2094 -0.3515 -0.4451
 9840TIP3    H153715   1.609   5.871  11.071 -0.2218 -0.5831  0.4162
 9840TIP3    H253716   1.756   5.835  11.074 -0.2689 -0.7047  1.8626
 9841TIP3   OH253717   2.046   0.307   9.952 -0.2259 -0.1638 -0.1983
 9841TIP3    H153718   2.043   0.400   9.934 -1.2155 -0.5177 -2.1374
 9841TIP3    H253719   1.976   0.293  10.017 -1.1521  0.2477 -1.0722
 9842TIP3   OH253720   3.029   5.090   9.351 -0.1729  0.8030  0.2009
 9842TIP3    H153721   2.938   5.112   9.333 -0.3903 -0.7820 -0.8897
 9842TIP3    H253722   3.052   5.027   9.282  1.8504  1.4190  0.2623
 9843TIP3   OH253723   6.119   7.548   9.635 -0.1367 -0.6774  0.0638
 9843TIP3    H153724   6.057   7.476   9.634  0.5937 -1.4873 -3.8743
 9843TIP3    H253725   6.093   7.603   9.561  1.8774  0.7299  0.3254
 9844TIP3   OH253726   4.964   7.231   9.295  0.2409  0.2308 -0.1567
 9844TIP3    H153727   5.049   7.216   9.253 -0.9296  1.2969 -3.1915
 9844TIP3    H253728   4.963   7.324   9.316 -0.3011  0.3002 -0.4725
 9845TIP3   OH253729   7.995   3.067   9.776 -0.3142 -0.0398  0.4711
 9845TIP3    H153730   7.908   3.031   9.760  0.0309 -0.1859 -1.3730
 9845TIP3    H253731   8.050   2.990   9.792 -0.3835 -0.0023  0.8943
 9846TIP3   OH253732   7.519   2.849   9.612 -0.1645  0.1070  0.6225
 9846TIP3    H153733   7.546   2.939   9.627 -0.3152  0.5210 -1.3531
 9846TIP3    H253734   7.582   2.796   9.662  0.1599  1.2835  1.4865
 9847TIP3   OH253735   3.731   3.871  10.429 -0.3914  0.3860 -0.1975
 9847TIP3    H153736   3.760   3.917  10.350 -0.8290  1.6223  0.3397
 9847TIP3    H253737   3.712   3.782  10.399  0.6388  0.4999 -1.2283
 9848TIP3   OH253738   4.427   5.964  10.415  0.8244 -0.4473  0.2735
 9848TIP3    H153739   4.446   6.036  10.476  1.0017  0.2263 -0.5580
 9848TIP3    H253740   4.339   5.983  10.382  0.9396 -0.5188 -0.0756
 9849TIP3   OH253741   6.944   3.871   9.037 -0.3588 -0.1597  0.2951
 9849TIP3    H153742   7.030   3.831   9.032  0.4579  0.9578  3.3556
 9849TIP3    H253743   6.883   3.798   9.046  0.0559 -1.0057 -2.7599
 9850TIP3   OH253744   4.885   0.029   9.906 -0.0732 -0.4911  0.1713
 9850TIP3    H153745   4.952  -0.021   9.953  1.7300  2.2782  0.7955
 9850TIP3    H253746   4.934   0.079   9.842 -1.7849  0.4061 -0.4861
 9851TIP3   OH253747   0.705   7.224  11.000  0.2137 -0.2119  0.3188
 9851TIP3    H153748   0.642   7.161  10.964  1.0425 -2.2282  2.1782
 9851TIP3    H253749   0.764   7.243  10.927  0.1006 -1.8374 -0.2356
 9852TIP3   OH253750   0.597   2.935   8.824  0.2738  0.1935  0.8327
 9852TIP3    H153751   0.657   2.973   8.887  2.0723 -1.9449  0.5337
 9852TIP3    H253752   0.630   2.964   8.739  1.1657 -1.3209  0.6459
 9853TIP3   OH253753   6.396   0.048   9.444  0.4913  0.0989 -0.4558
 9853TIP3    H153754   6.317   0.069   9.394  0.7525 -1.2983 -1.5176
 9853TIP3    H253755   6.465   0.097   9.401  0.6107 -0.6280 -1.1182
 9854TIP3   OH253756   1.227   6.958   8.372  1.1726  0.3158 -0.2097
 9854TIP3    H153757   1.269   6.882   8.411  2.9387  0.4366 -1.7245
 9854TIP3    H253758   1.149   6.923   8.328  1.5157 -0.4959 -0.1869
 9855TIP3   OH253759   5.891   1.337   9.237 -0.4640 -0.2393 -0.1768
 9855TIP3    H153760   5.918   1.423   9.203  0.4547 -0.5751 -0.3055
 9855TIP3    H253761   5.902   1.277   9.164  0.9383 -0.8554  0.4966
 9856TIP3   OH253762   5.436   2.604  11.384  0.0509 -0.1521  0.2976
 9856TIP3    H153763   5.380   2.545  11.332 -0.1262 -0.4510  0.8199
 9856TIP3    H253764   5.516   2.554  11.398  0.2983  0.1249 -0.1148
 9857TIP3   OH253765   2.067   2.337   9.648  0.4660 -0.2691  0.0168
 9857TIP3    H153766   2.153   2.348   9.689  1.8743  0.0113 -2.7805
 9857TIP3    H253767   2.072   2.254   9.602 -0.6649 -0.1133 -0.4200
 9858TIP3   OH253768   2.560   3.496   9.265 -0.3071  0.3685  0.2029
 9858TIP3    H153769   2.500   3.446   9.321 -1.9043  0.9103 -0.9416
 9858TIP3    H253770   2.504   3.558   9.220  0.9398  0.0833 -1.8583
 9859TIP3   OH253771   5.564   6.683   9.256  0.0446 -0.0486  0.3856
 9859TIP3    H153772   5.478   6.691   9.297  0.9122  0.7309  2.1815
 9859TIP3    H253773   5.545   6.664   9.164 -2.0202 -0.6123  0.8706
 9860TIP3   OH253774   5.697   2.793  11.095 -0.1366 -0.2378  0.1548
 9860TIP3    H153775   5.751   2.727  11.052 -0.7307 -1.0198  0.5872
 9860TIP3    H253776   5.760   2.848  11.142  0.3156 -0.9281  0.3748
 9861TIP3   OH253777   3.060   0.859   9.501  0.3069  1.1308 -0.6324
 9861TIP3    H153778   3.029   0.927   9.442  0.1512  0.8595 -0.8663
 9861TIP3    H253779   3.006   0.783   9.480  0.3258  0.9999 -0.2195
 9862TIP3   OH253780   3.574   0.894   9.019  0.2346  0.2031  0.2242
 9862TIP3    H153781   3.628   0.969   8.994  1.0302 -0.4791 -0.1530
 9862TIP3    H253782   3.613   0.820   8.972 -1.6776 -0.1455 -0.8947
 9863TIP3   OH253783   0.558   7.100  10.693 -0.1922  0.3427 -0.3658
 9863TIP3    H153784   0.519   7.084  10.779  0.0957 -0.3755 -0.3598
 9863TIP3    H253785   0.492   7.149  10.645 -0.2735  0.9345  0.3294
 9864TIP3   OH253786   0.449   1.808   9.047 -0.2495 -0.3478  0.5061
 9864TIP3    H153787   0.496   1.860   9.112 -1.4527 -0.0942  1.2087
 9864TIP3    H253788   0.391   1.752   9.099 -0.3198 -1.0516 -0.3115
 9865TIP3   OH253789   3.018   6.890   9.283 -0.1035  0.0446  0.3104
 9865TIP3    H153790   3.102   6.932   9.301 -0.5063  0.1879  2.0384
 9865TIP3    H253791   3.000   6.838   9.361 -0.6696 -1.6172 -0.8818
 9866TIP3   OH253792   2.386   0.059   9.433  0.2809 -0.1124 -0.0395
 9866TIP3    H153793   2.440   0.118   9.486 -0.4765  0.9399 -0.3881
 9866TIP3    H253794   2.312   0.037   9.490 -0.3689  0.7606 -0.5292
 9867TIP3   OH253795   2.383   6.727  10.883  0.6516  0.0278 -0.0437
 9867TIP3    H153796   2.457   6.785  10.870  0.4076  0.4461  0.3799
 9867TIP3    H253797   2.310   6.785  10.907 -0.2880 -0.1889 -2.1698
 9868TIP3   OH253798   7.667   1.830   9.144 -0.0819 -0.5745  0.1450
 9868TIP3    H153799   7.599   1.853   9.207 -0.0656 -0.0512 -0.0196
 9868TIP3    H253800   7.641   1.874   9.063  1.2673  0.9971  0.5026
 9869TIP3   OH253801   3.212   2.405   8.207 -0.5496  0.6179  0.0645
 9869TIP3    H153802   3.173   2.317   8.205  0.2751  0.2429 -1.2334
 9869TIP3    H253803   3.289   2.396   8.263 -0.6462  0.5894  0.1920
 9870TIP3   OH253804   3.797   4.050  10.227 -0.2494 -0.1809 -0.2177
 9870TIP3    H153805   3.727   4.105  10.192  0.2388  1.0127  0.5988
 9870TIP3    H253806   3.850   4.110  10.280  1.8702 -0.8808 -1.4591
 9871TIP3   OH253807   4.615   6.446   9.283 -0.0719 -0.4363  0.2265
 9871TIP3    H153808   4.554   6.431   9.210 -0.0513  1.0307 -0.1341
 9871TIP3    H253809   4.578   6.395   9.356 -3.0248  2.0234  0.6662
 9872TIP3   OH253810   0.382   8.015   9.522  0.2621 -0.2940  0.1079
 9872TIP3    H153811   0.377   7.928   9.480  0.5931 -0.6579  0.8086
 9872TIP3    H253812   0.402   7.996   9.613  3.4824  0.5856 -0.2839
 9873TIP3   OH253813   5.706   7.882   9.690 -0.0853  0.0903  0.0768
 9873TIP3    H153814   5.709   7.970   9.652 -0.9160 -0.2344 -0.7827
 9873TIP3    H253815   5.666   7.895   9.776 -0.4936  0.5247 -0.1691
 9874TIP3   OH253816   1.767   2.917   9.832 -0.0648  0.5521 -0.7184
 9874TIP3    H153817   1.757   2.827   9.800 -2.9017  0.7483 -0.6368
 9874TIP3    H253818   1.764   2.971   9.753 -2.4388  0.7514 -0.5636
 9875TIP3   OH253819   4.180   7.735   9.921  0.0775 -0.8775 -0.0439
 9875TIP3    H153820   4.243   7.806   9.912 -1.2546  0.5232  1.0063
 9875TIP3    H253821   4.230   7.655   9.906  1.5038  0.2998 -1.8519
 9876TIP3   OH253822   1.174   6.202  10.555  0.0471  0.1556  0.5221
 9876TIP3    H153823   1.120   6.132  10.519  0.7136  0.0768 -0.3669
 9876TIP3    H253824   1.131   6.226  10.637 -0.4147 -1.0193  0.6467
 9877TIP3   OH253825   1.500   4.261  10.566  0.1580  0.0824 -0.3238
 9877TIP3    H153826   1.509   4.195  10.498  0.9010  0.9746 -1.1073
 9877TIP3    H253827   1.582   4.257  10.615  0.0225  0.1171 -0.0901
 9878TIP3   OH253828   2.557   6.945  10.833  0.5300 -0.6325 -0.1032
 9878TIP3    H153829   2.568   6.914  10.744  0.5646 -0.5988 -0.1102
 9878TIP3    H253830   2.644   6.976  10.859  0.7016 -1.3331  0.2022
 9879TIP3   OH253831   0.344   5.310  10.458  0.1867  0.3686 -0.1707
 9879TIP3    H153832   0.306   5.397  10.461  0.2428  0.4832 -1.7248
 9879TIP3    H253833   0.429   5.319  10.501  0.9518  1.5304 -1.8138
 9880TIP3   OH253834   7.846   7.754  10.911  0.2949  0.0867  0.2207
 9880TIP3    H153835   7.939   7.730  10.907  0.4564  0.4252  1.3677
 9880TIP3    H253836   7.839   7.807  10.991 -1.1150 -0.9178  0.7982
 9881TIP3   OH253837   2.964   1.684   8.193  0.2238  0.1509 -0.6828
 9881TIP3    H153838   2.869   1.687   8.203 -0.0329  2.7911 -2.8396
 9881TIP3    H253839   2.986   1.591   8.196 -2.4712 -0.5425 -0.5802
 9882TIP3   OH253840   2.166   2.024  10.238  0.0274  0.5234  0.8483
 9882TIP3    H153841   2.098   2.076  10.280  1.7474  2.9571  0.8001
 9882TIP3    H253842   2.141   2.020  10.146 -0.3366  0.8955  0.9325
 9883TIP3   OH253843   7.582   5.656   9.802  0.0800  0.5081  0.0914
 9883TIP3    H153844   7.513   5.658   9.869 -0.2241  0.6346 -0.2215
 9883TIP3    H253845   7.614   5.746   9.798 -0.4338  0.6744 -0.4724
 9884TIP3   OH253846   6.129   2.417   9.622 -0.1029  0.0975 -0.5809
 9884TIP3    H153847   6.180   2.494   9.598  1.7907 -1.7597 -3.0225
 9884TIP3    H253848   6.194   2.354   9.653 -1.5615 -0.6783  1.0845
 9885TIP3   OH253849   2.801   4.420   9.582  0.4034  0.5910 -0.5776
 9885TIP3    H153850   2.713   4.392   9.606  0.3211  0.8853 -0.5266
 9885TIP3    H253851   2.859   4.372   9.641  0.0869  3.1173  1.9809
 9886TIP3   OH253852   6.546   3.017  10.026 -0.2103  0.1385  0.2046
 9886TIP3    H153853   6.622   3.011  10.084 -0.6587 -0.5795  0.7335
 9886TIP3    H253854   6.484   3.073  10.073 -0.6852 -0.6707  0.5501
 9887TIP3   OH253855   0.623   1.107   9.179 -0.0589 -0.8795 -0.0592
 9887TIP3    H153856   0.646   1.180   9.121  0.6037 -1.9651 -1.1976
 9887TIP3    H253857   0.681   1.118   9.255 -0.9108  0.5298  0.4392
 9888TIP3   OH253858   2.112   1.807   8.805  0.6050 -0.3436 -0.4448
 9888TIP3    H153859   2.055   1.878   8.833  0.2705 -0.5006 -0.7252
 9888TIP3    H253860   2.200   1.845   8.805  0.6236 -0.3643  0.8893
 9889TIP3   OH253861   2.440   5.970   9.991 -0.1983 -0.2600 -0.6230
 9889TIP3    H153862   2.438   6.060   9.962 -0.4146 -0.0548  0.0037
 9889TIP3    H253863   2.401   5.972  10.079  0.6928 -0.8009 -0.1936
 9890TIP3   OH253864   4.457   2.129   9.551  0.7262  0.3762  0.9822
 9890TIP3    H153865   4.411   2.176   9.621 -1.0503 -1.0454  0.8506
 9890TIP3    H253866   4.415   2.161   9.470  1.7913  0.9615  0.6411
 9891TIP3   OH253867   4.456   1.147   8.991 -0.2132 -0.7670  0.0436
 9891TIP3    H153868   4.527   1.208   9.012  0.1171 -0.3183 -2.1702
 9891TIP3    H253869   4.479   1.067   9.038  1.2108 -0.3119  0.1894
 9892TIP3   OH253870   4.654   0.801   9.888  0.5734  0.3472  0.0275
 9892TIP3    H153871   4.624   0.720   9.927 -0.1297 -0.2891 -1.7412
 9892TIP3    H253872   4.746   0.807   9.914  0.4788 -0.6987  0.6602
 9893TIP3   OH253873   3.013   1.349   9.824 -0.3530 -0.2304  0.7930
 9893TIP3    H153874   3.017   1.444   9.818 -0.8540 -0.2921 -1.3167
 9893TIP3    H253875   2.930   1.330   9.867 -1.1318  0.2904 -0.4284
 9894TIP3   OH253876   1.125   5.022   8.526  0.1742 -0.1532 -0.1426
 9894TIP3    H153877   1.179   5.091   8.488 -0.3274  0.6935  0.6573
 9894TIP3    H253878   1.176   4.991   8.601 -0.0186  0.0057  0.0570
 9895TIP3   OH253879   2.644   6.914   8.664 -0.2643 -0.2853 -0.1463
 9895TIP3    H153880   2.556   6.918   8.700 -1.5373 -1.9305 -2.8261
 9895TIP3    H253881   2.653   6.993   8.612  0.4328  0.5832  1.2392
 9896TIP3   OH253882   0.996   3.874   9.217 -0.0032 -0.0337 -0.2590
 9896TIP3    H153883   1.049   3.936   9.166 -0.3469  0.4919  0.0080
 9896TIP3    H253884   1.018   3.894   9.308 -1.6525  1.1546 -0.0617
 9897TIP3   OH253885   3.116   3.734  10.312 -0.7103  0.7135  0.2352
 9897TIP3    H153886   3.182   3.793  10.349 -2.0767  2.2073  0.3863
 9897TIP3    H253887   3.097   3.772  10.226 -0.9000 -0.0876 -0.0796
 9898TIP3   OH253888   5.771   2.036   9.865  0.2173  0.4185 -0.0914
 9898TIP3    H153889   5.719   2.100   9.913  0.3814  0.5075 -0.0319
 9898TIP3    H253890   5.834   2.089   9.816  0.4964  0.2897  0.1290
 9899TIP3   OH253891   8.306   5.318   9.332 -0.1450  0.7332 -0.7586
 9899TIP3    H153892   8.240   5.271   9.281 -0.2210  1.7371 -1.6237
 9899TIP3    H253893   8.329   5.393   9.278  0.2953  1.4552  0.3957
 9900TIP3   OH253894   4.670   5.360   9.562  0.6898  0.2066 -1.1516
 9900TIP3    H153895   4.689   5.270   9.537  0.6579  0.3680 -1.7760
 9900TIP3    H253896   4.575   5.363   9.574  0.8270 -0.1620  0.2011
 9901TIP3   OH253897   4.315   1.218  10.045  0.1146 -0.2861 -0.1263
 9901TIP3    H153898   4.397   1.200  10.000 -0.1528 -2.4993  0.1480
 9901TIP3    H253899   4.248   1.181   9.988 -0.6358  0.7948  0.0268
 9902TIP3   OH253900   7.040   3.692   9.370  0.3335  0.5007  0.4723
 9902TIP3    H153901   7.078   3.605   9.358 -2.4262 -0.6605 -0.8192
 9902TIP3    H253902   7.081   3.726   9.449  1.6049 -1.9201  0.9370
 9903TIP3   OH253903   5.357   6.621  10.056 -0.7337 -0.0054  0.3114
 9903TIP3    H153904   5.403   6.572   9.987 -0.2756  1.4935 -0.4981
 9903TIP3    H253905   5.423   6.637  10.122 -0.7332  0.0194  0.3048
 9904TIP3   OH253906   7.237   2.991   9.021 -0.4433  0.1117  0.4352
 9904TIP3    H153907   7.225   3.043   9.100  1.1664 -0.1045  0.8584
 9904TIP3    H253908   7.271   3.053   8.956  0.1940 -0.1092  0.5444
 9905TIP3   OH253909   8.297   3.237   9.201  0.5997 -0.2368  0.6152
 9905TIP3    H153910   8.285   3.235   9.296 -0.1184  0.0026  0.5411
 9905TIP3    H253911   8.364   3.304   9.186 -0.9229  1.4050  0.8281
 9906TIP3   OH253912   0.349   5.020  10.534  0.4738  0.1127 -0.4320
 9906TIP3    H153913   0.389   5.084  10.476  1.3947 -0.5825 -0.5982
 9906TIP3    H253914   0.345   5.064  10.619  2.1551  0.0283 -0.2707
 9907TIP3   OH253915   0.092   3.974   9.282  0.1406 -0.9043 -0.3063
 9907TIP3    H153916   0.165   3.969   9.344  0.1488  2.7948  0.1796
 9907TIP3    H253917   0.016   3.999   9.336  0.1231  2.2699 -1.6457
 9908TIP3   OH253918   5.071   8.301   9.999 -0.1747  0.3845  0.0060
 9908TIP3    H153919   5.075   8.307   9.903  1.0445 -0.1374  0.0135
 9908TIP3    H253920   5.050   8.209  10.016  1.6648 -0.0154  0.2593
 9909TIP3   OH253921   6.967   4.959   9.879  0.0397 -0.3128  0.2608
 9909TIP3    H153922   6.885   5.006   9.862  0.0849  0.3539  1.7094
 9909TIP3    H253923   6.950   4.909   9.958  0.7867 -0.8056  0.1208
 9910TIP3   OH253924   5.969   0.115  10.266  0.5190 -0.1727  0.3154
 9910TIP3    H153925   5.897   0.156  10.218 -0.4359 -1.1655  0.8469
 9910TIP3    H253926   5.934   0.103  10.355  0.9151 -1.6732  0.3006
 9911TIP3   OH253927   2.050   0.584   9.996  0.7628 -0.2867  0.4042
 9911TIP3    H153928   2.056   0.625  10.083  0.4925  1.0924 -0.2103
 9911TIP3    H253929   1.961   0.600   9.967  1.2255  0.4320 -0.6820
 9912TIP3   OH253930   1.136   2.430   8.866 -0.0481 -0.3025 -0.1504
 9912TIP3    H153931   1.047   2.423   8.830  0.2621  0.2990 -1.0711
 9912TIP3    H253932   1.131   2.383   8.949 -0.8844 -1.4487 -0.8088
 9913TIP3   OH253933   6.468   3.968  10.633 -0.4995 -0.0823  0.0247
 9913TIP3    H153934   6.385   3.984  10.588 -0.0425 -0.1759 -0.8691
 9913TIP3    H253935   6.482   4.046  10.686 -0.6975  0.3448 -0.5402
 9914TIP3   OH253936   7.984   4.228   9.015  0.1418 -0.0903  0.1122
 9914TIP3    H153937   7.991   4.133   9.007  1.5940 -0.0826  1.0620
 9914TIP3    H253938   7.901   4.242   9.062  0.6976 -0.9847  1.4237
 9915TIP3   OH253939   0.985   3.273   9.050  0.3611  0.1443  0.2494
 9915TIP3    H153940   1.080   3.264   9.056  0.1844 -0.9966  2.3517
 9915TIP3    H253941   0.968   3.290   8.957  2.5970  0.3848 -0.1700
 9916TIP3   OH253942   5.214   7.582   9.546  0.4789  0.1932 -0.1561
 9916TIP3    H153943   5.253   7.658   9.589  1.9322 -0.0949 -0.9224
 9916TIP3    H253944   5.154   7.546   9.612  0.9703  1.0605  0.7958
 9917TIP3   OH253945   6.310   0.062   9.171  0.5095  0.4991  0.4588
 9917TIP3    H153946   6.372   0.004   9.126  0.3096  0.1572  0.6142
 9917TIP3    H253947   6.312   0.143   9.121 -1.4439 -0.6148 -1.6199
 9918TIP3   OH253948   5.669   7.997  10.052 -0.3618 -0.4376  0.1037
 9918TIP3    H153949   5.623   8.078  10.074 -0.3379 -0.5298  0.5025
 9918TIP3    H253950   5.613   7.928  10.086  0.9446 -0.4975  2.2679
 9919TIP3   OH253951   3.140   2.784  10.988 -0.0354 -0.0098  0.3079
 9919TIP3    H153952   3.051   2.747  10.983 -0.3013  0.7231 -0.6204
 9919TIP3    H253953   3.161   2.810  10.898  0.8315  0.4970  0.6411
 9920TIP3   OH253954   4.785   2.246  10.333  0.0893 -0.2494  0.0648
 9920TIP3    H153955   4.846   2.318  10.345  2.2087 -1.7088 -1.2208
 9920TIP3    H253956   4.841   2.167  10.336 -1.9939 -1.7873  0.6228
 9921TIP3   OH253957   1.970   3.522   9.747 -0.0762  0.2751 -0.0767
 9921TIP3    H153958   2.029   3.598   9.746  1.1921 -0.6801 -0.4028
 9921TIP3    H253959   1.957   3.499   9.655  0.4572 -0.5698  0.0482
 9922TIP3   OH253960   1.101   5.322   8.864  0.5617 -0.6337  0.0536
 9922TIP3    H153961   1.147   5.302   8.782 -0.2629  0.9878 -0.8644
 9922TIP3    H253962   1.038   5.390   8.839 -1.3889 -1.8097  1.5319
 9923TIP3   OH253963   0.096   5.252  10.598 -0.5185 -0.2877  0.5195
 9923TIP3    H153964   0.147   5.331  10.578 -0.7502 -0.5348 -1.1554
 9923TIP3    H253965   0.019   5.258  10.542 -1.4921 -0.8031  1.7422
 9924TIP3   OH253966   2.898   8.099   9.982 -0.0065 -0.3738 -0.1778
 9924TIP3    H153967   2.877   8.044  10.057 -0.0799 -0.0193  0.0639
 9924TIP3    H253968   2.840   8.068   9.912 -1.1206  0.3650  0.3809
 9925TIP3   OH253969   3.374   7.733  10.654  0.5597  0.0062  0.7403
 9925TIP3    H153970   3.286   7.703  10.675  0.1511  0.1956 -0.6164
 9925TIP3    H253971   3.362   7.823  10.624  1.3473  0.3712  1.4652
 9926TIP3   OH253972   4.927   1.357  10.418 -0.3059  0.2984 -0.3362
 9926TIP3    H153973   4.903   1.283  10.472 -1.1866  0.7369 -0.1159
 9926TIP3    H253974   4.868   1.428  10.445 -0.9325  0.4710 -2.0068
 9927TIP3   OH253975   5.148   4.594  10.127 -0.2230  0.6019  0.3406
 9927TIP3    H153976   5.060   4.587  10.089  0.6645  2.5469 -2.3882
 9927TIP3    H253977   5.171   4.687  10.117  2.1139  0.1665  1.0869
 9928TIP3   OH253978   0.307   1.091  10.301 -0.4501  0.1640 -0.1798
 9928TIP3    H153979   0.289   1.009  10.255 -0.3385  0.0117  0.0469
 9928TIP3    H253980   0.339   1.064  10.387  1.0657  0.4164 -0.6275
 9929TIP3   OH253981   3.143   2.674  10.185  0.5801 -0.0557 -0.1431
 9929TIP3    H153982   3.156   2.581  10.169 -2.7767 -0.5303 -0.8457
 9929TIP3    H253983   3.056   2.680  10.225  1.3019  2.6965  1.2943
 9930TIP3   OH253984   0.876   4.589  10.707 -0.2960  0.4252  0.0354
 9930TIP3    H153985   0.782   4.605  10.711 -0.2364  1.1491 -1.1114
 9930TIP3    H253986   0.895   4.584  10.614  0.6404 -0.7706  0.2657
 9931TIP3   OH253987   6.891   3.418   9.390  0.2709 -0.3734 -0.2575
 9931TIP3    H153988   6.960   3.420   9.324 -0.2370  0.3367 -0.7799
 9931TIP3    H253989   6.938   3.428   9.473  0.8910 -1.0207 -0.5153
 9932TIP3   OH253990   0.812   5.736   9.068 -0.0852  0.1444  0.2179
 9932TIP3    H153991   0.823   5.777   8.983 -0.4140 -0.5868 -0.1907
 9932TIP3    H253992   0.851   5.649   9.057 -1.8705 -0.6980  0.1996
 9933TIP3   OH253993   0.976   8.077   8.728  0.0353  0.4193  0.3024
 9933TIP3    H153994   1.010   8.070   8.817 -1.9305 -2.1034  0.9462
 9933TIP3    H253995   0.960   8.171   8.716  0.2305  0.8019  2.6296
 9934TIP3   OH253996   0.801   3.849  10.027  0.0416 -0.1234 -0.3740
 9934TIP3    H153997   0.801   3.900   9.946  0.4462  0.0729 -0.2535
 9934TIP3    H253998   0.829   3.761  10.000  1.2009  0.1965 -0.3051
 9935TIP3   OH253999   6.877   2.681  10.299 -0.7844 -0.8207  0.3658
 9935TIP3    H154000   6.862   2.763  10.346  1.1162 -0.3030  0.1638
 9935TIP3    H254001   6.862   2.703  10.207  1.8676 -0.0221  0.0386
 9936TIP3   OH254002   6.494   6.152   9.081  0.1199 -0.0598  0.4518
 9936TIP3    H154003   6.432   6.225   9.083  0.9437  0.6878 -0.6658
 9936TIP3    H254004   6.457   6.090   9.017 -0.2794 -0.3806  0.9763
 9937TIP3   OH254005   7.898   3.588   9.435 -0.1208 -0.2064  0.0966
 9937TIP3    H154006   7.944   3.548   9.361  0.6830  0.7563  0.0444
 9937TIP3    H254007   7.877   3.515   9.493 -0.4287 -0.9301 -0.8948
 9938TIP3   OH254008   8.349   5.149   9.542  0.0490  0.2603 -0.3066
 9938TIP3    H154009   8.273   5.094   9.522 -0.3157  0.2733  0.9462
 9938TIP3    H254010   8.331   5.232   9.497 -0.8518  0.3776  0.2465
 9939TIP3   OH254011   7.990   1.440  10.204 -0.0553 -0.4556 -0.3128
 9939TIP3    H154012   7.951   1.493  10.274 -1.4583 -0.4282 -1.0729
 9939TIP3    H254013   7.965   1.485  10.123 -2.2404 -2.7742 -1.0533
 9940TIP3   OH254014   0.128   0.467   9.433  0.0579 -0.4979 -0.0350
 9940TIP3    H154015   0.042   0.487   9.471 -0.1325 -1.4647  0.0823
 9940TIP3    H254016   0.117   0.380   9.395  0.6962 -0.1968 -0.9443
 9941TIP3   OH254017   4.452   7.157   9.345  0.4534  0.2700 -0.0303
 9941TIP3    H154018   4.417   7.112   9.268 -1.2702  0.9710  0.3099
 9941TIP3    H254019   4.501   7.090   9.392 -0.1695 -0.6703 -0.6975
 9942TIP3   OH254020   4.590   7.704   9.567 -0.1575  0.4205 -0.3909
 9942TIP3    H154021   4.618   7.785   9.611 -1.3999 -0.1127  1.4811
 9942TIP3    H254022   4.503   7.724   9.533 -0.4900 -0.1540  0.1263
 9943TIP3   OH254023   1.668   2.280  10.603 -0.7001  0.5247 -0.3534
 9943TIP3    H154024   1.748   2.283  10.550 -0.3008 -3.0635 -0.1697
 9943TIP3    H254025   1.597   2.280  10.539 -0.2857 -1.6885 -0.8931
 9944TIP3   OH254026   2.813   3.108   9.349 -0.3097 -0.3575  0.0910
 9944TIP3    H154027   2.756   3.112   9.272  0.5621  1.4094 -0.5149
 9944TIP3    H254028   2.827   3.199   9.373 -0.4871 -0.8648  2.3292
 9945TIP3   OH254029   2.627   1.916   8.854 -0.0486  0.6165  0.3429
 9945TIP3    H154030   2.631   1.826   8.823  0.5842  0.6543  0.3028
 9945TIP3    H254031   2.709   1.955   8.825 -1.6583  2.1908 -2.6294
 9946TIP3   OH254032   2.978   0.439   8.891  0.1712  0.2748 -0.1702
 9946TIP3    H154033   2.970   0.382   8.814 -0.7178  1.9272 -1.3669
 9946TIP3    H254034   2.984   0.528   8.854  3.6862  0.9008  1.5062
 9947TIP3   OH254035   3.449   1.907   8.908 -0.4419 -0.1255 -0.2703
 9947TIP3    H154036   3.450   2.001   8.890 -0.1772 -0.1928 -0.6182
 9947TIP3    H254037   3.483   1.900   8.998 -0.5470  0.1152 -0.2108
 9948TIP3   OH254038   4.385   0.740   9.817  0.1430  0.0848  0.3376
 9948TIP3    H154039   4.408   0.665   9.870  1.9589  0.1534 -0.2851
 9948TIP3    H254040   4.450   0.807   9.840 -2.0883  1.9309  1.7285
 9949TIP3   OH254041   7.974   1.201   9.626 -0.1448  0.1491 -0.0782
 9949TIP3    H154042   7.963   1.124   9.570 -0.3969  0.3271 -0.2729
 9949TIP3    H254043   8.030   1.170   9.698  0.4397  0.0059 -0.5878
 9950TIP3   OH254044   1.544   5.450  10.238 -0.0046 -0.3267 -0.1888
 9950TIP3    H154045   1.602   5.404  10.298  0.4298 -0.4524 -0.6941
 9950TIP3    H254046   1.540   5.540  10.271 -0.1454 -0.5126  0.2924
 9951TIP3   OH254047   1.824   1.266   8.792 -0.2408  0.3816 -0.2183
 9951TIP3    H154048   1.857   1.227   8.873  1.3354  0.8686 -0.5794
 9951TIP3    H254049   1.736   1.296   8.813 -0.4421 -0.8896  0.8506
 9952TIP3   OH254050   8.374   6.008   9.323 -0.2833 -0.0327 -0.2100
 9952TIP3    H154051   8.291   6.044   9.294 -0.4403  0.9346  1.2949
 9952TIP3    H254052   8.420   6.083   9.362  0.3478 -0.9888  0.9576
 9953TIP3   OH254053   1.298   6.952   9.362  0.3355 -0.1797  0.4912
 9953TIP3    H154054   1.390   6.928   9.373  0.8933  0.9049 -1.3692
 9953TIP3    H254055   1.263   6.886   9.304 -0.1736 -0.7574  1.4263
 9954TIP3   OH254056   2.605   5.489  10.431 -0.4184  0.0165  0.2819
 9954TIP3    H154057   2.584   5.409  10.479  0.3273 -0.2731  0.1245
 9954TIP3    H254058   2.671   5.533  10.485  0.2558 -0.1990 -0.3691
 9955TIP3   OH254059   4.695   3.146  10.061  0.4290  0.1991  0.3417
 9955TIP3    H154060   4.629   3.102  10.006  0.7519 -0.3676  0.3931
 9955TIP3    H254061   4.646   3.181  10.135  0.0174  0.7974 -0.2032
 9956TIP3   OH254062   2.924   2.126  10.045  0.0150 -0.1658 -0.3150
 9956TIP3    H154063   2.829   2.137  10.052  0.1398  1.5584 -0.7933
 9956TIP3    H254064   2.960   2.191  10.105  0.9032 -0.5674 -0.4014
 9957TIP3   OH254065   1.679   0.835  10.110 -0.3546 -0.1769  0.4711
 9957TIP3    H154066   1.628   0.789  10.043 -0.0877  1.3551 -0.8554
 9957TIP3    H254067   1.658   0.927  10.097 -0.4049  0.1706  2.6424
 9958TIP3   OH254068   4.717   3.676   9.968  0.4886 -0.0587  0.6167
 9958TIP3    H154069   4.650   3.632   9.916  2.3583 -1.2079 -0.8805
 9958TIP3    H254070   4.674   3.758   9.996 -0.8883  0.2012 -1.9713
 9959TIP3   OH254071   7.832   2.976   9.411 -0.1919 -0.2413  0.7766
 9959TIP3    H154072   7.853   2.913   9.480  0.1078  0.1770  1.0775
 9959TIP3    H254073   7.846   2.928   9.329 -0.7110 -0.7925  1.0064
 9960TIP3   OH254074   2.546   8.137   8.475 -1.2394  0.6577 -0.2153
 9960TIP3    H154075   2.498   8.082   8.536  0.4488 -0.2400  0.3733
 9960TIP3    H254076   2.540   8.091   8.391 -1.3928  0.5511 -0.1459
 9961TIP3   OH254077   4.218   3.528  10.203 -0.2886 -0.4478  0.3545
 9961TIP3    H154078   4.163   3.588  10.153  0.8438  1.2782  1.0800
 9961TIP3    H254079   4.302   3.529  10.157  0.0117 -0.7860  0.8851
 9962TIP3   OH254080   2.278   0.634   8.581  0.2355  0.2569 -0.6445
 9962TIP3    H154081   2.277   0.699   8.511  1.0032  1.8059  0.6875
 9962TIP3    H254082   2.211   0.570   8.557 -1.8995  2.5480 -1.1411
 9963TIP3   OH254083   8.123   5.635  10.222 -0.0941  0.1247  0.1264
 9963TIP3    H154084   8.216   5.613  10.214 -0.2984 -0.6107 -0.2554
 9963TIP3    H254085   8.105   5.629  10.316  1.1264  3.9986  0.8176
 9964TIP3   OH254086   6.819   7.090   8.728 -0.1463  0.1751  0.7264
 9964TIP3    H154087   6.860   7.124   8.808  1.3694  0.0791  0.0332
 9964TIP3    H254088   6.776   7.167   8.689 -0.4286  0.3410  1.3575
 9965TIP3   OH254089   0.249   2.924   9.647 -0.1095  0.3369  0.3362
 9965TIP3    H154090   0.302   2.848   9.669  0.5927  1.1151  1.4323
 9965TIP3    H254091   0.300   2.969   9.579 -0.3951 -0.0303 -0.1210
 9966TIP3   OH254092   3.932   3.091   8.916 -0.0025 -0.4913 -0.2871
 9966TIP3    H154093   3.890   3.113   8.999  0.0099  0.4994 -0.5347
 9966TIP3    H254094   3.861   3.096   8.851 -0.1428 -1.8559 -0.2599
 9967TIP3   OH254095   2.919   1.792  10.409  0.0629  0.5284 -0.1750
 9967TIP3    H154096   2.995   1.757  10.455 -0.1669  0.9160  0.5101
 9967TIP3    H254097   2.945   1.793  10.317  0.9541  0.8480  0.0726
 9968TIP3   OH254098   8.117   6.433  10.035 -0.0458 -0.2909 -0.0187
 9968TIP3    H154099   8.087   6.495  10.101  1.6159  0.6533 -0.0915
 9968TIP3    H254100   8.038   6.408   9.988 -0.8570  1.3308  0.3966
 9969TIP3   OH254101   7.456   5.951   8.781 -0.2401  0.0006  0.0322
 9969TIP3    H154102   7.411   6.006   8.717 -0.8838 -0.5067  0.0370
 9969TIP3    H254103   7.491   6.012   8.845 -1.3060  0.3940  0.2622
 9970TIP3   OH254104   5.969   5.024  10.360 -0.4044  0.2400  0.2486
 9970TIP3    H154105   5.972   4.935  10.397 -1.7839 -0.0966 -0.4102
 9970TIP3    H254106   5.909   5.072  10.417 -0.7388  0.3660 -0.2126
 9971TIP3   OH254107   5.228   0.081   8.849 -0.2448 -0.1621  0.9278
 9971TIP3    H154108   5.230   0.071   8.754  1.5682 -0.8603  0.9982
 9971TIP3    H254109   5.173   0.158   8.864  0.7295  0.9205 -0.7771
 9972TIP3   OH254110   8.430   3.517  10.999 -0.1265  0.1493 -0.1791
 9972TIP3    H154111   8.391   3.535  11.084  0.5638 -0.8352  0.3659
 9972TIP3    H254112   8.370   3.453  10.959  0.4984 -0.7929  0.3497
 9973TIP3   OH254113   1.893   5.502   8.520 -0.3743  0.0672  0.1882
 9973TIP3    H154114   1.895   5.521   8.426 -0.1582  0.3446  0.2455
 9973TIP3    H254115   1.879   5.588   8.560 -2.3857 -0.2872  0.3413
 9974TIP3   OH254116   1.406   4.924  10.212  0.3505  0.0131 -0.6613
 9974TIP3    H154117   1.316   4.927  10.178  0.3592 -2.0187 -0.9520
 9974TIP3    H254118   1.444   5.008  10.186 -0.8720  0.1231 -2.2067
 9975TIP3   OH254119   0.962   7.552  10.154 -0.0359 -0.2852  0.5017
 9975TIP3    H154120   0.918   7.471  10.126 -0.8116 -0.7492  2.8622
 9975TIP3    H254121   1.039   7.522  10.201  0.0165  0.3689  0.8373
 9976TIP3   OH254122   2.084   6.076   9.422  0.1246  0.1295  0.1870
 9976TIP3    H154123   2.112   6.048   9.336  2.1985  1.8594  0.2383
 9976TIP3    H254124   2.085   5.996   9.475 -1.1396 -0.9384 -1.3252
 9977TIP3   OH254125   5.075   1.036   9.548 -0.5214 -0.2061  0.1430
 9977TIP3    H154126   5.093   1.083   9.629  1.2112 -2.3495  1.0926
 9977TIP3    H254127   5.155   1.046   9.496 -0.6392 -0.9780 -0.2001
 9978TIP3   OH254128   2.701   0.935   9.149  0.3345  1.1177 -0.3796
 9978TIP3    H154129   2.787   0.900   9.126 -0.4783  0.1480 -2.1338
 9978TIP3    H254130   2.679   0.891   9.231  1.0521  0.5875 -0.4558
 9979TIP3   OH254131   2.567   7.098   8.484  0.4404  0.2693 -0.4634
 9979TIP3    H154132   2.585   7.153   8.408 -0.5525  0.2119 -0.7510
 9979TIP3    H254133   2.513   7.152   8.541 -0.7784 -0.4865 -0.8792
 9980TIP3   OH254134   0.238   6.396   9.177  0.5610  0.2183  0.5771
 9980TIP3    H154135   0.178   6.360   9.242 -0.3989 -0.4264 -0.6487
 9980TIP3    H254136   0.221   6.346   9.097  0.0757  2.5032 -0.8405
 9981TIP3   OH254137   0.605   6.902   9.685  0.3124 -0.8428  0.0864
 9981TIP3    H154138   0.565   6.816   9.692 -2.0314 -0.0317 -1.7409
 9981TIP3    H254139   0.536   6.963   9.712  1.6078  0.5101  0.4945
 9982TIP3   OH254140   0.796   1.863   9.452 -0.1618  0.7066 -0.2784
 9982TIP3    H154141   0.762   1.905   9.373 -1.7091  1.0184  0.5066
 9982TIP3    H254142   0.813   1.773   9.426  1.6210  1.3798 -1.5545
 9983TIP3   OH254143   0.491   4.203   9.692 -0.1133 -0.7550 -0.1024
 9983TIP3    H154144   0.506   4.288   9.650 -0.8452 -0.8901 -0.6545
 9983TIP3    H254145   0.568   4.189   9.747  0.2175  0.0613 -0.3525
 9984TIP3   OH254146   1.617   2.442   8.801 -0.2281 -0.4482 -0.1482
 9984TIP3    H154147   1.570   2.520   8.831 -1.4976 -0.5598 -1.6864
 9984TIP3    H254148   1.708   2.470   8.796 -0.5065  0.6135  0.3448
 9985TIP3   OH254149   2.569   1.634   9.743  0.6542 -0.7795  0.1255
 9985TIP3    H154150   2.615   1.583   9.810  3.0049  2.1835  0.9764
 9985TIP3    H254151   2.636   1.689   9.703 -1.3780  0.3499 -1.9941
 9986TIP3   OH254152   0.793   8.204  10.816 -0.3916 -0.4390 -0.1420
 9986TIP3    H154153   0.831   8.282  10.856 -2.9216 -0.2123  2.1239
 9986TIP3    H254154   0.835   8.131  10.862 -0.7461 -0.2727  0.4602
 9987TIP3   OH254155   2.912   7.105   9.112 -0.2020  0.2050 -0.0848
 9987TIP3    H154156   2.912   7.043   9.185 -2.1162  2.2662  1.8121
 9987TIP3    H254157   2.999   7.144   9.114 -0.0402 -0.1662  0.7360
 9988TIP3   OH254158   6.609   4.155   9.974 -0.5793 -0.3016 -0.8108
 9988TIP3    H154159   6.696   4.188   9.955  0.3295 -1.6628  0.8022
 9988TIP3    H254160   6.620   4.095  10.047 -2.8619 -0.5824 -0.5997
 9989TIP3   OH254161   0.105   0.948   9.934 -0.2182  0.2768 -0.2364
 9989TIP3    H154162   0.176   1.011   9.946 -0.9509  0.8351  1.5259
 9989TIP3    H254163   0.031   0.986   9.982 -1.7359 -0.2760 -2.0202
 9990TIP3   OH254164   0.683   5.347   9.761  1.1243  0.1831 -0.0382
 9990TIP3    H154165   0.726   5.387   9.685  0.4894  1.0537  0.0426
 9990TIP3    H254166   0.677   5.418   9.825 -1.7109  0.5435 -0.5783
 9991TIP3   OH254167   0.485   0.668  11.052  0.2700 -0.5914  0.2968
 9991TIP3    H154168   0.409   0.643  11.000 -0.3460 -0.5815  1.1702
 9991TIP3    H254169   0.454   0.742  11.105  1.9369  1.9580 -1.9908
 9992TIP3   OH254170   4.501   3.617   8.836  0.3536 -0.6480 -0.0096
 9992TIP3    H154171   4.585   3.657   8.859  0.4506 -0.4804 -0.6424
 9992TIP3    H254172   4.436   3.683   8.862  0.3104 -1.2566  1.5977
 9993TIP3   OH254173   1.086   5.145  10.729 -0.0924  0.1810 -0.7193
 9993TIP3    H154174   1.122   5.057  10.729 -1.5681 -0.5094  1.4723
 9993TIP3    H254175   1.108   5.180  10.815 -2.1849  0.7430 -0.3561
 9994TIP3   OH254176   1.316   7.267  10.504 -0.6191 -0.5739  0.3757
 9994TIP3    H154177   1.384   7.199  10.495 -0.2040 -0.3195  1.3917
 9994TIP3    H254178   1.358   7.335  10.557 -1.6012 -0.3046  0.8215
 9995TIP3   OH254179   0.064   4.814   9.306 -0.1313 -0.1896 -0.2547
 9995TIP3    H154180   0.074   4.894   9.254 -1.7692 -0.7552 -1.5205
 9995TIP3    H254181   0.078   4.841   9.396 -0.0797  1.4109 -0.7263
 9996TIP3   OH254182   1.479   5.328   9.003 -0.4681 -0.5088 -0.0332
 9996TIP3    H154183   1.419   5.289   8.940 -3.3264  2.3206  0.6963
 9996TIP3    H254184   1.525   5.395   8.954  0.0032 -0.7458  0.0811
 9997TIP3   OH254185   0.194   5.666  10.198 -0.1318 -0.2866  0.4755
 9997TIP3    H154186   0.286   5.693  10.201 -0.1342 -0.3343  1.0568
 9997TIP3    H254187   0.153   5.712  10.271 -0.3245 -1.1470  0.9332
 9998TIP3   OH254188   8.355   1.772  10.927 -0.5622 -0.2627 -0.1648
 9998TIP3    H154189   8.311   1.857  10.922  0.9818  0.5310 -1.0294
 9998TIP3    H254190   8.432   1.789  10.982 -1.3944 -1.6809  1.5379
 9999TIP3   OH254191   4.929   1.391   9.992  0.0288  0.1983 -0.2600
 9999TIP3    H154192   4.940   1.323  10.059 -0.5646  1.0284  0.7128
 9999TIP3    H254193   5.002   1.452  10.008  0.6590 -0.2825 -1.2356
10000TIP3   OH254194   4.765   1.713   9.751  0.1702 -0.1521  0.0884
10000TIP3    H154195   4.846   1.718   9.802  1.1585  0.5416 -1.4703
10000TIP3    H254196   4.730   1.802   9.754  1.2128  0.3824 -1.8838
10001TIP3   OH254197   5.123   2.487  11.273 -0.4345 -0.2408 -0.3557
10001TIP3    H154198   5.091   2.441  11.195 -0.7453  0.1822 -0.4769
10001TIP3    H254199   5.074   2.569  11.275  0.2242  0.1619 -0.2271
10002TIP3   OH254200   7.848   0.764   9.697  0.0174  0.2929  0.0278
10002TIP3    H154201   7.792   0.819   9.751 -0.2654 -0.2007  0.2466
10002TIP3    H254202   7.890   0.704   9.759 -1.5448 -1.3679 -0.4305
10003TIP3   OH254203   2.497   7.160   9.467 -0.0924 -0.1666 -0.1964
10003TIP3    H154204   2.570   7.200   9.419 -0.4142  0.5381 -0.1080
10003TIP3    H254205   2.536   7.085   9.512  0.3001 -0.5852 -1.2159
10004TIP3   OH254206   8.432   5.084  10.045 -0.2520  0.8645  0.3186
10004TIP3    H154207   8.452   5.173  10.074  0.2739  0.7888  0.1913
10004TIP3    H254208   8.338   5.074  10.062 -0.2042  1.2530  0.8337
10005TIP3   OH254209   6.044   1.249  10.048  0.1997 -0.3858 -0.6121
10005TIP3    H154210   6.094   1.176  10.084 -0.7749  0.4222  2.6978
10005TIP3    H254211   6.083   1.327  10.087 -0.2480  0.7343 -2.2664
10006TIP3   OH254212   1.081   5.474  10.365 -0.3267 -0.1899 -0.2548
10006TIP3    H154213   1.081   5.452  10.272  1.8611  0.0525 -0.3509
10006TIP3    H254214   1.124   5.560  10.370  0.7004 -0.7355  1.0707
10007TIP3   OH254215   3.455   6.435  10.179  0.4672 -0.4333  0.0892
10007TIP3    H154216   3.367   6.466  10.159  0.4460 -1.0133 -0.7854
10007TIP3    H254217   3.502   6.513  10.211 -0.6319 -0.3287  1.5759
10008TIP3   OH254218   6.461   0.768   8.581  0.4367  0.1367  0.1953
10008TIP3    H154219   6.491   0.855   8.607 -0.0943  0.3548  0.0893
10008TIP3    H254220   6.366   0.771   8.591  0.5365 -1.1034  2.3059
10009TIP3   OH254221   2.063   2.494   9.411  0.0385  0.4343  0.6588
10009TIP3    H154222   2.124   2.421   9.413  0.3587  0.7019  0.6974
10009TIP3    H254223   2.014   2.486   9.493 -0.0186  0.1845  0.5995
10010TIP3   OH254224   4.160   8.041   8.896 -0.1972 -0.1790 -0.2677
10010TIP3    H154225   4.218   7.964   8.896 -0.2413 -0.2108 -0.9375
10010TIP3    H254226   4.073   8.005   8.911 -0.5235 -0.4980 -2.6816
10011TIP3   OH254227   5.251   1.193  10.744  0.3249  0.2924 -0.1308
10011TIP3    H154228   5.317   1.259  10.764  2.6687 -2.7830  3.6495
10011TIP3    H254229   5.170   1.227  10.784  1.4183  1.0227  1.5603
10012TIP3   OH254230   1.596   4.558   8.745 -0.2629 -0.4610  0.0041
10012TIP3    H154231   1.560   4.595   8.826 -0.0405 -1.5672  0.6181
10012TIP3    H254232   1.521   4.555   8.685 -0.1282  1.6973 -0.3531
10013TIP3   OH254233   2.562   7.535   8.684 -0.4071  0.0361  0.5330
10013TIP3    H154234   2.600   7.454   8.652 -0.0111  0.3806  0.1170
10013TIP3    H254235   2.571   7.597   8.611 -1.0537  0.3430  0.7049
10014TIP3   OH254236   2.893   1.337   8.805 -0.4137 -0.2624 -0.2867
10014TIP3    H154237   2.892   1.418   8.855  0.8285  0.2448 -1.0389
10014TIP3    H254238   2.985   1.323   8.781 -0.6289 -1.7680 -0.3805
10015TIP3   OH254239   6.771   7.942  10.021 -0.0394  0.4792 -0.4137
10015TIP3    H154240   6.759   7.907   9.933 -1.1425  1.2042 -0.5696
10015TIP3    H254241   6.859   7.978  10.021  0.0235  0.3378 -1.1736
10016TIP3   OH254242   3.792   2.676  11.464 -0.4773  0.0390  0.0556
10016TIP3    H154243   3.750   2.705  11.383 -1.4571 -1.2762  0.0623
10016TIP3    H254244   3.884   2.702  11.454 -1.1648  2.7873 -0.0609
10017TIP3   OH254245   2.088   2.011   9.162 -0.3821  0.7344 -0.1279
10017TIP3    H154246   2.167   2.059   9.187  0.0480 -0.1157  0.1734
10017TIP3    H254247   2.072   1.952   9.235 -1.0240  0.5574 -0.4084
10018TIP3   OH254248   4.794   7.550  10.227  0.2402  0.1909  0.3894
10018TIP3    H154249   4.878   7.516  10.196  1.1256  2.0812  0.6098
10018TIP3    H254250   4.790   7.522  10.319  0.6153  0.0578  0.3700
10019TIP3   OH254251   7.852   2.598  10.729  0.8657  0.0816  0.1125
10019TIP3    H154252   7.807   2.679  10.754  1.2392  0.3287  0.0019
10019TIP3    H254253   7.825   2.534  10.795  1.0591  0.4641  0.5674
10020TIP3   OH254254   2.698   1.188  10.297  0.3328  0.7900  0.1206
10020TIP3    H154255   2.695   1.236  10.380  1.3475  0.4628  0.3665
10020TIP3    H254256   2.791   1.171  10.283  0.1399  0.5599 -0.9305
10021TIP3   OH254257   5.831   7.594  10.307  0.2263  0.0547  0.1528
10021TIP3    H154258   5.846   7.538  10.384  2.3967 -0.5374 -0.6160
10021TIP3    H254259   5.745   7.567  10.274  0.5306 -1.7563  0.7033
10022TIP3   OH254260   4.544   2.865   9.561  0.8551  0.5787 -0.7293
10022TIP3    H154261   4.451   2.848   9.544  1.6346 -0.1843 -5.3778
10022TIP3    H254262   4.579   2.780   9.590  0.3461  0.6113  0.0199
10023TIP3   OH254263   1.651   5.614   9.321 -0.0113  0.0030 -0.6389
10023TIP3    H154264   1.638   5.583   9.410  1.4427  1.6395  0.2022
10023TIP3    H254265   1.590   5.687   9.311  1.0198  0.9499 -0.3204
10024TIP3   OH254266   5.937   4.335   9.497  0.0955  0.6156 -0.2230
10024TIP3    H154267   5.973   4.423   9.488  0.0613  0.7009  0.4327
10024TIP3    H254268   6.011   4.282   9.529  0.1172  0.4040 -0.6188
10025TIP3   OH254269   1.062   1.009   8.653  0.1397 -0.0946  0.5285
10025TIP3    H154270   0.981   1.036   8.697  0.1638 -0.3599  0.7404
10025TIP3    H254271   1.067   0.915   8.670  2.0964  0.3831  3.1442
10026TIP3   OH254272   0.080   3.914  11.149 -0.4531 -0.0019 -0.1044
10026TIP3    H154273   0.030   3.996  11.156  1.4986  1.4926 -2.0455
10026TIP3    H254274   0.031   3.862  11.085  0.5780  1.6518 -2.3718
10027TIP3   OH254275   2.581   7.206   8.240  0.1942  0.3568 -0.3213
10027TIP3    H154276   2.627   7.182   8.160  2.3477 -1.3430  1.3166
10027TIP3    H254277   2.489   7.190   8.220  0.6952 -0.2647 -2.3485
10028TIP3   OH254278   0.353   3.112   9.040  0.6746  0.2403 -0.1730
10028TIP3    H154279   0.315   3.172   9.104 -1.1810 -0.0158 -0.9891
10028TIP3    H254280   0.436   3.086   9.079  0.4350  1.5056  1.2782
10029TIP3   OH254281   2.186   4.411   9.041  0.2323 -0.5885  0.2601
10029TIP3    H154282   2.205   4.413   8.948 -0.3749  1.5961  0.1261
10029TIP3    H254283   2.137   4.329   9.054 -0.7540 -0.3408 -1.5761
10030TIP3   OH254284   1.826   1.495   8.440 -0.2744 -0.4016 -0.1274
10030TIP3    H154285   1.783   1.433   8.382  0.2776 -1.3790  0.4711
10030TIP3    H254286   1.755   1.540   8.486 -0.6753 -0.7465 -0.4143
10031TIP3   OH254287   2.419   8.001   8.659 -0.3073 -0.1435 -0.9518
10031TIP3    H154288   2.441   8.003   8.753  0.8682 -3.5233 -1.0168
10031TIP3    H254289   2.357   7.929   8.651  0.9434 -1.0747 -2.9668
10032TIP3   OH254290   5.607   3.609   8.788  0.1401  0.1264 -0.3195
10032TIP3    H154291   5.543   3.678   8.803  0.6744  0.1160  2.6539
10032TIP3    H254292   5.555   3.529   8.782 -0.2963  0.4490 -0.8777
10033TIP3   OH254293   0.157   7.200  10.377  0.3429  0.6680  0.1491
10033TIP3    H154294   0.105   7.190  10.297  1.1732  0.3623 -0.3555
10033TIP3    H254295   0.113   7.143  10.440  0.9493 -0.8077 -0.7140
10034TIP3   OH254296   7.369   3.203  10.357  0.4098 -0.8398  0.8991
10034TIP3    H154297   7.366   3.161  10.443  1.1492 -0.8799  0.9089
10034TIP3    H254298   7.277   3.214  10.333  0.1604  0.2326  2.2232
10035TIP3   OH254299   4.772   7.274   9.565  0.1649 -0.5735  0.0790
10035TIP3    H154300   4.720   7.299   9.488  1.9257  0.7255 -0.7838
10035TIP3    H254301   4.792   7.357   9.608 -1.3076 -1.3315  2.3619
10036TIP3   OH254302   1.111   3.765   8.706 -0.1502  0.5181 -0.0681
10036TIP3    H154303   1.067   3.697   8.655  0.8052 -0.0710 -0.1473
10036TIP3    H254304   1.040   3.816   8.745 -0.9271 -1.2146  0.9251
10037TIP3   OH254305   4.378   3.969   9.705  0.1340 -0.5060  0.1977
10037TIP3    H154306   4.298   4.011   9.736  0.5085  0.3974 -0.0355
10037TIP3    H254307   4.376   3.981   9.610  0.7038 -0.1787  0.2212
10038TIP3   OH254308   7.101   2.835  10.518  0.3690 -0.2138  0.8773
10038TIP3    H154309   7.086   2.928  10.534  2.2995  0.1166  1.0504
10038TIP3    H254310   7.016   2.800  10.493 -0.3256  1.6748  0.4892
10039TIP3   OH254311   3.677   8.020   9.264 -0.0305  0.5991  0.9940
10039TIP3    H154312   3.694   7.990   9.174  0.3481  0.3297  1.1557
10039TIP3    H254313   3.584   8.001   9.278 -0.0597  0.5227  0.7042
10040TIP3   OH254314   6.919   7.204  10.282  0.1184 -0.3793  0.0751
10040TIP3    H154315   6.943   7.277  10.225 -1.7830 -0.2680 -0.6664
10040TIP3    H254316   6.920   7.127  10.224 -1.0029 -0.4021  0.0619
10041TIP3   OH254317   5.671   2.479   9.635  0.3551 -0.3317 -0.0408
10041TIP3    H154318   5.643   2.398   9.594 -1.8033  0.3422 -0.0099
10041TIP3    H254319   5.665   2.463   9.729  0.6132 -0.3495 -0.0258
10042TIP3   OH254320   7.959   7.175   9.752  0.4453 -0.2551  0.5847
10042TIP3    H154321   7.919   7.093   9.782  1.6428 -1.3280 -0.5937
10042TIP3    H254322   8.051   7.166   9.775  0.8953  0.0209 -1.0293
10043TIP3   OH254323   7.632   2.540   9.392 -0.3591 -0.2677 -0.3463
10043TIP3    H154324   7.567   2.610   9.394 -0.7537 -0.5859 -1.3492
10043TIP3    H254325   7.666   2.541   9.302 -0.4235 -1.3961 -0.4023
10044TIP3   OH254326   7.246   0.606   9.705  0.3151 -0.3326 -0.9403
10044TIP3    H154327   7.306   0.553   9.652  0.8758  0.1558 -0.8122
10044TIP3    H254328   7.198   0.543   9.759  1.1222 -0.7044 -0.6378
10045TIP3   OH254329   1.566   2.589   9.676  0.2128  0.6722  0.1680
10045TIP3    H154330   1.551   2.499   9.707 -0.4314  0.4181 -0.8461
10045TIP3    H254331   1.500   2.641   9.722 -0.2749  0.4067 -0.2133
10046TIP3   OH254332   2.578   3.898  10.023  0.1239  0.6294  0.4790
10046TIP3    H154333   2.651   3.839  10.041  0.2013  0.3260 -0.7774
10046TIP3    H254334   2.553   3.931  10.110  0.4399 -0.8084  1.1530
10047TIP3   OH254335   1.636   4.422   9.871  0.7724 -0.1942 -0.0665
10047TIP3    H154336   1.653   4.404   9.778 -1.2183 -2.0947 -0.1225
10047TIP3    H254337   1.672   4.347   9.917  1.1051  0.4021  0.6638
10048TIP3   OH254338   1.988   4.972  10.250 -0.4361  0.3506  0.1150
10048TIP3    H154339   1.909   4.973  10.196 -1.0997  0.7986  1.0819
10048TIP3    H254340   1.994   5.061  10.286 -0.7159 -0.2702  1.7836
10049TIP3   OH254341   1.248   5.248   8.495 -0.4626 -0.1790  0.2388
10049TIP3    H154342   1.222   5.272   8.406 -2.0141 -0.3265  0.6150
10049TIP3    H254343   1.331   5.292   8.509 -0.5768  0.4810 -1.0097
10050TIP3   OH254344   6.865   3.922  11.056 -0.1348  0.6321 -0.2014
10050TIP3    H154345   6.851   3.827  11.049 -0.9444  0.3952  2.9368
10050TIP3    H254346   6.955   3.930  11.089  0.2454  1.0544 -1.2874
10051TIP3   OH254347   7.914   1.080  10.667  0.7506 -0.3461  0.0671
10051TIP3    H154348   7.948   0.994  10.689 -1.5248 -2.4846 -3.5974
10051TIP3    H254349   7.829   1.062  10.626 -0.3092  3.7568  0.0320
10052TIP3   OH254350   4.471   6.195  10.034 -0.5835 -0.2044 -0.6900
10052TIP3    H154351   4.455   6.100  10.036 -1.4824 -0.0688 -0.9501
10052TIP3    H254352   4.408   6.231  10.096  0.3683  0.1547  0.0917
10053TIP3   OH254353   6.118   3.205   8.942 -0.8766 -0.7265  0.5328
10053TIP3    H154354   6.058   3.239   9.009 -0.2561  0.6832  0.4001
10053TIP3    H254355   6.085   3.241   8.860  0.2379  0.2453  0.4787
10054TIP3   OH254356   7.248   1.589  10.185 -0.1518  0.5241 -0.3683
10054TIP3    H154357   7.324   1.543  10.221 -0.3288 -0.4265 -1.1669
10054TIP3    H254358   7.279   1.679  10.170  0.6697  0.2664 -0.2565
10055TIP3   OH254359   0.633   3.103  10.664 -0.1623 -0.0019  0.6975
10055TIP3    H154360   0.650   3.024  10.716 -1.9258 -0.6534  0.3495
10055TIP3    H254361   0.650   3.076  10.574  1.4635  0.7069  0.7682
10056TIP3   OH254362   0.371   6.838   9.401 -0.8461 -0.3521 -0.1683
10056TIP3    H154363   0.332   6.925   9.394  0.0441  0.3252  2.2473
10056TIP3    H254364   0.362   6.815   9.494 -0.2864 -2.4889 -0.5804
10057TIP3   OH254365   5.068   1.462   8.577  0.4129 -0.4185  0.0218
10057TIP3    H154366   5.052   1.490   8.667  0.2693  0.0485 -0.1474
10057TIP3    H254367   5.009   1.516   8.524  0.1377 -1.0274 -0.3119
10058TIP3   OH254368   2.487   2.448  10.282 -0.3376  0.2712  0.1346
10058TIP3    H154369   2.442   2.432  10.199 -1.5688  1.6880  0.4855
10058TIP3    H254370   2.502   2.543  10.283 -0.1867  0.2418  1.4578
10059TIP3   OH254371   2.272   0.847  10.735  0.1443  0.5259 -0.1146
10059TIP3    H154372   2.268   0.936  10.771  0.3883 -0.8480  3.7081
10059TIP3    H254373   2.181   0.825  10.714  0.1711  1.8638 -1.9390
10060TIP3   OH254374   5.408   0.730   8.915 -0.3052 -0.0447 -0.2301
10060TIP3    H154375   5.318   0.757   8.935 -0.0401 -0.3653  1.6513
10060TIP3    H254376   5.449   0.808   8.878 -1.3144  0.1376 -1.0108
10061TIP3   OH254377   5.436   0.929  10.395 -0.2490  0.0792  0.3107
10061TIP3    H154378   5.414   0.940  10.303  0.0519 -1.8221 -0.0396
10061TIP3    H254379   5.528   0.902  10.395 -1.2415 -3.8675  0.7554
10062TIP3   OH254380   3.815   8.416   9.478  0.5967  0.5981 -1.0539
10062TIP3    H154381   3.861   8.395   9.396  1.4402 -1.6065 -0.1007
10062TIP3    H254382   3.881   8.404   9.546 -0.2012  2.0031  0.0208
10063TIP3   OH254383   0.481   4.492   9.849  0.2685 -0.0815 -0.4543
10063TIP3    H154384   0.398   4.465   9.889  1.1455 -0.7578  1.0151
10063TIP3    H254385   0.459   4.509   9.758 -1.4223 -0.5482 -0.1812
10064TIP3   OH254386   4.621   7.548   9.112 -0.2558 -0.0192 -0.3878
10064TIP3    H154387   4.631   7.503   9.196 -1.9620 -0.6312 -0.4589
10064TIP3    H254388   4.708   7.545   9.072  0.5971  0.3272  1.3626
10065TIP3   OH254389   3.540   1.692   8.754  0.1471 -0.0365 -0.3942
10065TIP3    H154390   3.567   1.699   8.662 -3.8108 -0.4619 -1.7594
10065TIP3    H254391   3.554   1.780   8.789  4.5478 -0.5222 -0.3043
10066TIP3   OH254392   0.472   6.355  10.537 -0.0302  0.1217  0.3177
10066TIP3    H154393   0.541   6.293  10.559  1.7371  1.6881 -0.4774
10066TIP3    H254394   0.431   6.376  10.621  0.9565 -0.3126  0.9283
10067TIP3   OH254395   0.397   5.222   9.649 -0.4509 -0.0738 -0.1186
10067TIP3    H154396   0.419   5.315   9.644 -1.4985  0.1310 -2.7908
10067TIP3    H254397   0.327   5.217   9.713  1.0344  0.5996  1.6604
10068TIP3   OH254398   6.807   1.198  10.405 -0.2289 -0.5403 -0.0724
10068TIP3    H154399   6.893   1.163  10.383  0.0242 -0.3541  0.5850
10068TIP3    H254400   6.820   1.293  10.409 -0.7388 -0.4093 -1.1067
10069TIP3   OH254401   7.113   6.379   9.475  0.0655  0.1639 -0.1562
10069TIP3    H154402   7.090   6.422   9.558  1.1345 -0.9482  0.7584
10069TIP3    H254403   7.056   6.302   9.472  1.3208 -0.8319  0.5216
10070TIP3   OH254404   4.803   2.418  10.679 -0.1958  0.0960 -0.2008
10070TIP3    H154405   4.815   2.353  10.748  1.7534 -0.3758 -0.9130
10070TIP3    H254406   4.812   2.502  10.724  0.5176 -0.1937  0.2165
10071TIP3   OH254407   0.552   1.635   8.852  0.3595 -0.0767 -0.3522
10071TIP3    H154408   0.471   1.586   8.835  0.1575  0.1836 -0.1376
10071TIP3    H254409   0.525   1.708   8.907  0.4920  0.8522 -1.4891
10072TIP3   OH254410   7.123   2.077   9.041 -0.0227 -0.1941  0.0850
10072TIP3    H154411   7.074   2.004   9.003 -2.5200  0.1127  2.4381
10072TIP3    H254412   7.153   2.044   9.126  1.8254  0.4756 -0.2511
10073TIP3   OH254413   5.163   6.420   9.763  0.0450 -0.5105 -0.3153
10073TIP3    H154414   5.095   6.385   9.821  1.9744 -0.0372  2.3893
10073TIP3    H254415   5.225   6.348   9.752  0.6106 -0.0282 -0.3111
10074TIP3   OH254416   0.158   7.967  10.735 -0.1859  0.7827  0.3893
10074TIP3    H154417   0.111   8.047  10.711 -0.2664  0.7625  0.4785
10074TIP3    H254418   0.155   7.912  10.657  2.2064  1.9569 -0.6438
10075TIP3   OH254419   6.280   8.117   9.356 -0.2901  0.5024  0.3765
10075TIP3    H154420   6.185   8.110   9.346 -0.1126 -0.4778 -0.8355
10075TIP3    H254421   6.297   8.087   9.445 -1.0835  0.3937  0.5003
10076TIP3   OH254422   7.020   3.742  10.507 -0.0384 -0.0870  0.1566
10076TIP3    H154423   6.932   3.710  10.528  0.1986 -1.9979 -1.4468
10076TIP3    H254424   7.057   3.770  10.591 -1.6886 -0.4992  1.0506
10077TIP3   OH254425   0.079   7.939   9.005  0.0353 -0.0682  0.2001
10077TIP3    H154426   0.137   7.867   9.029 -0.2188 -1.6698 -3.2863
10077TIP3    H254427   0.112   7.967   8.919 -2.2773  1.3006 -0.3130
10078TIP3   OH254428   7.170   6.608  10.968 -0.0154  0.2946 -0.4325
10078TIP3    H154429   7.138   6.698  10.970  3.0195  1.5076  1.8106
10078TIP3    H254430   7.243   6.610  10.906  0.0720 -0.6158 -0.3685
10079TIP3   OH254431   4.663   8.344  10.260  0.9374 -0.3819  0.2130
10079TIP3    H154432   4.596   8.299  10.209  1.2713  1.2900 -1.8055
10079TIP3    H254433   4.623   8.428  10.283  1.6366 -0.1794  0.7104
10080TIP3   OH254434   4.534   0.608   9.476 -0.4949 -0.3012  0.6985
10080TIP3    H154435   4.536   0.569   9.388 -1.0288 -1.3234  1.1242
10080TIP3    H254436   4.467   0.559   9.523  0.5888 -0.5581  2.0422
10081TIP3   OH254437   2.652   5.709   8.889  0.4868 -0.4053  0.3269
10081TIP3    H154438   2.609   5.623   8.892 -2.1770  0.8343  0.1019
10081TIP3    H254439   2.623   5.748   8.807 -0.5111  1.7098  1.5873
10082TIP3   OH254440   0.988   6.280   9.493 -0.0119 -0.0751  0.4174
10082TIP3    H154441   0.913   6.330   9.526 -0.2608  0.1655 -0.4732
10082TIP3    H254442   0.957   6.189   9.492 -0.0539 -0.0643  0.6966
10083TIP3   OH254443   3.421   7.927   9.496 -0.0253 -0.3002  0.2144
10083TIP3    H154444   3.333   7.890   9.503 -1.2932  2.2503 -0.7934
10083TIP3    H254445   3.437   7.967   9.582  0.3689 -1.1566  0.5480
10084TIP3   OH254446   2.087   3.754  10.397 -0.0922 -0.3051  0.0876
10084TIP3    H154447   2.132   3.838  10.399 -0.3647 -0.1272 -0.6296
10084TIP3    H254448   2.072   3.732  10.489 -1.2839  1.1222  0.2713
10085TIP3   OH254449   1.229   7.309   9.647  0.9043 -0.0357 -0.1461
10085TIP3    H154450   1.148   7.278   9.607  1.2450 -0.6661 -0.3501
10085TIP3    H254451   1.277   7.352   9.576  0.5470  0.7656  0.0789
10086TIP3   OH254452   5.598   7.400   9.958  0.5815  0.3891  0.2042
10086TIP3    H154453   5.577   7.478   9.905 -1.0133  0.3976  0.7739
10086TIP3    H254454   5.601   7.328   9.895 -0.7100  0.4956 -0.0107
10087TIP3   OH254455   2.197   2.462   9.034  0.1293  0.2656  0.2032
10087TIP3    H154456   2.114   2.417   9.018 -0.2940  0.6054  1.2978
10087TIP3    H254457   2.172   2.539   9.086  0.7720  2.0528 -1.9998
10088TIP3   OH254458   2.032   3.137   9.682 -0.2837  0.5149 -0.6598
10088TIP3    H154459   2.026   3.203   9.751  0.0836  0.4084 -0.5200
10088TIP3    H254460   1.942   3.123   9.654 -0.2059  2.7105 -2.2555
10089TIP3   OH254461   3.905   4.492   9.029  0.1549  0.6139 -0.8529
10089TIP3    H154462   3.886   4.404   9.061  2.2290 -0.1352 -1.5491
10089TIP3    H254463   3.832   4.513   8.970  0.6585 -1.4886 -2.3017
10090TIP3   OH254464   5.249   2.050  10.444 -0.2951  0.0471  0.0865
10090TIP3    H154465   5.300   2.109  10.500 -0.5292  1.0327 -0.7161
10090TIP3    H254466   5.164   2.092  10.435  0.0191  0.3851 -1.7296
10091TIP3   OH254467   1.931   5.489   9.744 -0.1147 -0.5483 -0.3439
10091TIP3    H154468   1.989   5.413   9.735  0.1620 -0.3239 -0.4423
10091TIP3    H254469   1.871   5.482   9.670  0.0530 -0.5462 -0.4798
10092TIP3   OH254470   6.023   1.912   9.656  0.7883 -0.2582  0.3826
10092TIP3    H154471   6.010   1.915   9.750 -1.3399  2.5409  0.1436
10092TIP3    H254472   6.103   1.964   9.641  1.3985 -1.1077  0.6456
10093TIP3   OH254473   5.833   0.254   9.704  0.2172  0.0799 -0.3846
10093TIP3    H154474   5.894   0.211   9.764 -0.7416 -0.0286  0.5494
10093TIP3    H254475   5.747   0.241   9.744 -0.2388  1.8379 -0.6757
10094TIP3   OH254476   1.565   5.439  10.550  0.3499  0.0408  0.1842
10094TIP3    H154477   1.489   5.420  10.604  0.8721 -0.4591  0.7700
10094TIP3    H254478   1.579   5.533  10.560 -1.2825  0.4970 -1.4121
10095TIP3   OH254479   6.574   3.293   9.831 -0.2304 -0.0727  0.2968
10095TIP3    H154480   6.494   3.261   9.873 -0.8059  1.1318  0.1584
10095TIP3    H254481   6.543   3.353   9.763  0.7076 -1.2002 -1.2225
10096TIP3   OH254482   0.609   3.387  11.375 -0.5969  0.1936  0.4205
10096TIP3    H154483   0.701   3.374  11.397 -0.3694  0.8829 -0.0830
10096TIP3    H254484   0.610   3.454  11.306 -1.4460 -0.1072  0.1027
10097TIP3   OH254485   4.448   1.565   9.984 -0.2516  0.3950  0.4941
10097TIP3    H154486   4.519   1.525   9.934 -0.1488 -0.0555  0.9829
10097TIP3    H254487   4.424   1.643   9.935  1.7184  1.4900  1.1617
10098TIP3   OH254488   2.208   7.533  10.328  0.3566 -0.2567  0.2898
10098TIP3    H154489   2.155   7.466  10.371  0.9666  1.3623  3.9313
10098TIP3    H254490   2.146   7.602  10.304  0.1434 -0.7161 -0.4900
10099TIP3   OH254491   1.812   2.075   9.201 -0.1617  0.1014 -0.0739
10099TIP3    H154492   1.904   2.067   9.176  0.3118  0.3740  1.4970
10099TIP3    H254493   1.813   2.116   9.288 -1.7251 -0.7795  0.4051
10100TIP3   OH254494   0.213   1.166  10.820 -0.7790  0.3082 -0.0395
10100TIP3    H154495   0.218   1.079  10.858 -0.7657  0.3896  0.1453
10100TIP3    H254496   0.164   1.218  10.885 -1.6583  0.1921 -0.5879
10101TIP3   OH254497   5.861   5.652   9.585  0.3855  0.6464  0.3677
10101TIP3    H154498   5.868   5.711   9.510 -2.0446  1.2463  0.5364
10101TIP3    H254499   5.785   5.597   9.565  1.0173 -0.6767  1.4212
10102TIP3   OH254500   5.968   5.109  10.069 -0.6296 -0.4951  0.0488
10102TIP3    H154501   5.969   5.204  10.083 -0.1361 -0.5461  0.4313
10102TIP3    H254502   5.938   5.073  10.153 -0.3381 -0.6957  0.0682
10103TIP3   OH254503   3.838   2.629  10.230 -0.8434  0.1204  0.0852
10103TIP3    H154504   3.886   2.642  10.312 -1.9208 -1.2535  0.9770
10103TIP3    H254505   3.783   2.707  10.222 -0.3556  0.5030  0.3697
10104TIP3   OH254506   1.132   2.297   9.152  0.1789 -0.4605 -0.7626
10104TIP3    H154507   1.067   2.315   9.221  0.0958  0.3754 -1.0468
10104TIP3    H254508   1.211   2.273   9.200  0.1385  0.1772 -0.3603
10105TIP3   OH254509   1.241   5.156   9.558 -0.0491  0.6999 -0.2704
10105TIP3    H154510   1.243   5.232   9.500 -0.1025 -0.7976 -2.3564
10105TIP3    H254511   1.150   5.150   9.587 -0.4181  0.5406 -1.4043
10106TIP3   OH254512   4.247   0.946  10.598  0.3420  0.0390  0.4565
10106TIP3    H154513   4.176   0.930  10.535  2.1826 -0.6069 -1.5745
10106TIP3    H254514   4.280   0.859  10.620  0.7320  0.3498  1.1486
10107TIP3   OH254515   5.485   7.802  10.088 -0.0921  0.1238 -0.4740
10107TIP3    H154516   5.510   7.710  10.078 -0.1121  0.0595  0.0646
10107TIP3    H254517   5.421   7.802  10.159  2.4934  0.9642  2.0537
10108TIP3   OH254518   5.340   5.973  10.027 -0.2098 -0.3850  0.0057
10108TIP3    H154519   5.267   6.032  10.045  0.3413 -0.2552  2.1024
10108TIP3    H254520   5.414   6.012  10.074  1.0796 -0.8349 -1.5571
10109TIP3   OH254521   3.570   4.086   8.830 -0.0992  0.0446  0.1394
10109TIP3    H154522   3.502   4.071   8.763  0.9688 -1.2451 -0.6979
10109TIP3    H254523   3.557   4.016   8.893 -0.1007  0.3325  0.4632
10110TIP3   OH254524   8.340   2.270  10.420  0.1400  0.0985  0.0252
10110TIP3    H154525   8.426   2.239  10.391  0.2872  1.0093 -0.5658
10110TIP3    H254526   8.303   2.197  10.470  0.8552 -0.6622 -0.5298
10111TIP3   OH254527   7.261   4.294  11.042 -0.1431  0.0843  0.1116
10111TIP3    H154528   7.334   4.233  11.031 -1.1144 -1.0566 -0.3051
10111TIP3    H254529   7.273   4.358  10.972  0.6677  0.1469  0.2975
10112TIP3   OH254530   2.612   1.653   8.784  0.5457  0.5816 -0.4029
10112TIP3    H154531   2.667   1.594   8.733  0.0281  0.4646 -0.8274
10112TIP3    H254532   2.523   1.621   8.771  0.2290  1.6086 -0.8580
10113TIP3   OH254533   6.425   0.204  10.380 -0.5502  0.1383 -0.0435
10113TIP3    H154534   6.491   0.202  10.449 -0.6524  1.7375  0.1279
10113TIP3    H254535   6.475   0.210  10.299 -0.4582 -0.6852 -0.0590
10114TIP3   OH254536   0.773   3.348  10.848 -0.2557  0.3083  0.4460
10114TIP3    H154537   0.711   3.309  10.909  0.7634  0.3146  1.5282
10114TIP3    H254538   0.750   3.441  10.847  0.5182  0.5436  1.8576
10115TIP3   OH254539   2.472   5.444   9.631 -0.1334  0.8709  0.0235
10115TIP3    H154540   2.457   5.411   9.542 -0.4790  0.4935  0.2210
10115TIP3    H254541   2.397   5.500   9.648 -0.5069  0.2591  0.4035
10116TIP3   OH254542   2.048   1.287   9.647  0.1839 -0.3887 -0.3989
10116TIP3    H154543   2.024   1.302   9.738 -1.8528  1.0405 -1.0859
10116TIP3    H254544   2.000   1.208   9.622 -1.6301  0.7962 -0.9340
10117TIP3   OH254545   3.206   2.666   9.504 -0.0980 -0.1870 -0.1174
10117TIP3    H154546   3.171   2.598   9.562  0.3288 -1.1235 -0.9240
10117TIP3    H254547   3.290   2.630   9.474  0.1703  0.7358 -0.5015
10118TIP3   OH254548   1.834   7.725   9.849 -0.2330  0.3846  0.4544
10118TIP3    H154549   1.914   7.759   9.891 -0.9519 -0.2045  2.4442
10118TIP3    H254550   1.856   7.637   9.822  0.1478  0.6556 -0.1306
10119TIP3   OH254551   4.047   2.472   9.332  0.1915  0.2496 -0.2345
10119TIP3    H154552   3.993   2.395   9.347  0.8650  0.1119  1.8570
10119TIP3    H254553   3.984   2.542   9.315 -0.4861 -0.4790 -0.7858
10120TIP3   OH254554   6.265   1.302  10.711  0.3412  0.3174 -0.0145
10120TIP3    H154555   6.204   1.298  10.637 -1.0174  0.6747  1.0517
10120TIP3    H254556   6.220   1.258  10.782  0.7885  1.6793  1.1678
10121TIP3   OH254557   7.971   7.057   8.822  0.1788 -0.5085 -0.1675
10121TIP3    H154558   8.000   7.061   8.731  0.1614  0.1283 -0.1531
10121TIP3    H254559   8.032   7.115   8.868  0.0191 -0.6170  0.1773
10122TIP3   OH254560   0.103   3.721   9.166  0.0816 -0.4395  0.4265
10122TIP3    H154561   0.119   3.799   9.219  0.6935 -1.0063  1.1051
10122TIP3    H254562   0.114   3.750   9.076  1.1439  0.0689  0.7078
10123TIP3   OH254563   4.588   8.388   8.950  0.0137  0.1637  0.0511
10123TIP3    H154564   4.596   8.425   9.038  1.3117  2.1308 -0.8326
10123TIP3    H254565   4.674   8.351   8.932  0.6003  2.0235 -1.2898
10124TIP3   OH254566   5.648   7.411   9.245 -0.0172  0.0509 -0.1678
10124TIP3    H154567   5.568   7.394   9.294 -0.4543 -1.9450 -1.4379
10124TIP3    H254568   5.690   7.325   9.238  0.8004  0.5559 -1.9405
10125TIP3   OH254569   7.585   6.655   8.931  0.3722  0.2309 -0.0227
10125TIP3    H154570   7.657   6.627   8.875  0.5034  0.2125  0.1554
10125TIP3    H254571   7.548   6.731   8.887  0.6060  0.3428 -0.0262
10126TIP3   OH254572   4.351   6.997   9.141  0.5724 -0.5959  0.6607
10126TIP3    H154573   4.298   6.921   9.118 -0.1539  0.3086 -0.8398
10126TIP3    H254574   4.442   6.966   9.136  0.2525 -1.9291  2.3566
10127TIP3   OH254575   4.996   4.263  10.279 -0.0589  0.2541  0.2077
10127TIP3    H154576   4.949   4.234  10.200 -1.1047  1.9816  0.1564
10127TIP3    H254577   4.982   4.192  10.342 -4.3953  1.3940  0.8121
10128TIP3   OH254578   3.331   0.364   9.999  0.4313  0.0596  0.5073
10128TIP3    H154579   3.337   0.351   9.904  1.9631  1.3560  0.3803
10128TIP3    H254580   3.252   0.316  10.025  0.5153 -1.1336 -1.2603
10129TIP3   OH254581   6.930   6.136   9.406 -0.3655 -0.1525  0.5985
10129TIP3    H154582   6.932   6.054   9.356 -2.6129  0.2563 -0.2556
10129TIP3    H254583   6.860   6.187   9.366 -0.4491  1.3232  2.5008
10130TIP3   OH254584   5.155   6.414  10.068 -0.3985 -0.5301 -0.0784
10130TIP3    H154585   5.213   6.343  10.041 -0.2761 -0.9518  1.2185
10130TIP3    H254586   5.213   6.488  10.084 -0.3647 -0.5646 -0.0418
10131TIP3   OH254587   2.926   1.797   9.223 -0.0376  0.1486  0.0832
10131TIP3    H154588   2.843   1.767   9.185 -0.0891  2.2649 -1.6658
10131TIP3    H254589   2.964   1.853   9.155  2.2704  0.1848  1.3224
10132TIP3   OH254590   0.324   5.050  10.071  0.2143 -0.1426  0.3062
10132TIP3    H154591   0.285   5.115  10.130  0.3436 -0.0861  0.3301
10132TIP3    H254592   0.411   5.085  10.052  0.1310 -0.1034 -0.0109
10133TIP3   OH254593   0.825   5.014  10.603 -0.0772  0.2525  0.1003
10133TIP3    H154594   0.760   5.068  10.649 -0.2368  0.5995 -0.5171
10133TIP3    H254595   0.903   5.069  10.599  0.1795 -0.0722  0.6297
10134TIP3   OH254596   6.509   5.191   9.492 -0.0033  0.1834 -0.3967
10134TIP3    H154597   6.514   5.199   9.588 -1.4414  0.5712 -0.3164
10134TIP3    H254598   6.465   5.271   9.464  0.3608  0.0490 -1.3858
10135TIP3   OH254599   5.384   6.838  10.351  0.3722 -0.0075  0.0620
10135TIP3    H154600   5.469   6.803  10.380  0.0187 -0.6346  0.3520
10135TIP3    H254601   5.319   6.784  10.395 -0.1844  0.0385 -0.6813
10136TIP3   OH254602   4.881   2.050   9.006 -0.6426  0.0820 -0.3212
10136TIP3    H154603   4.967   2.010   9.003  0.0239  1.2344  1.5838
10136TIP3    H254604   4.820   1.976   9.004  0.3351 -0.7166 -2.2806
10137TIP3   OH254605   7.645   0.118   9.334  0.2109  0.0192 -0.7791
10137TIP3    H154606   7.694   0.179   9.389 -1.3432  0.0129  0.7135
10137TIP3    H254607   7.615   0.171   9.260 -2.1325  1.5193  1.0887
10138TIP3   OH254608   7.279   6.825   8.993 -0.6806  0.0027  0.3936
10138TIP3    H154609   7.191   6.853   8.968 -0.3705  0.0286 -0.7551
10138TIP3    H254610   7.328   6.824   8.910  0.4175  0.0673  1.0225
10139TIP3   OH254611   4.675   4.867  10.288  0.1262  0.0851  0.2375
10139TIP3    H154612   4.767   4.892  10.279  0.3707 -0.9900 -0.4770
10139TIP3    H254613   4.673   4.774  10.264 -1.4028  0.4848 -1.3492
10140TIP3   OH254614   2.356   7.506   9.177  0.3770 -0.7259 -0.6678
10140TIP3    H154615   2.281   7.506   9.117  0.4826  0.3719 -0.8185
10140TIP3    H254616   2.432   7.520   9.120  0.8515 -2.8964 -0.6584
10141TIP3   OH254617   0.254   7.542   8.625  0.6202  0.0038  0.1988
10141TIP3    H154618   0.167   7.581   8.630  0.7139  0.2595 -0.0901
10141TIP3    H254619   0.242   7.452   8.655  0.1252 -0.1556 -0.4374
10142TIP3   OH254620   2.047   1.398   8.629  0.2454  0.4418 -0.2684
10142TIP3    H154621   2.010   1.373   8.714  0.9867  0.2940  0.0145
10142TIP3    H254622   1.970   1.408   8.573 -0.1615 -1.6206 -0.1813
10143TIP3   OH254623   6.002   6.735  10.014 -0.3196 -0.7179  0.0011
10143TIP3    H154624   6.015   6.644   9.987  0.3635 -0.6080 -0.0474
10143TIP3    H254625   5.999   6.731  10.109  2.2358 -0.4981  0.1474
10144TIP3   OH254626   5.260   3.276   9.454  0.4912  0.0649 -0.6222
10144TIP3    H154627   5.173   3.245   9.429 -0.0402  1.4673 -0.5513
10144TIP3    H254628   5.283   3.222   9.530 -1.2992  1.1587  0.7940
10145TIP3   OH254629   1.143   4.616  10.734 -0.6060  0.2668  0.5071
10145TIP3    H154630   1.180   4.533  10.707  1.1838  0.4493  2.1252
10145TIP3    H254631   1.053   4.615  10.702 -0.1475 -1.5852 -0.8612
10146TIP3   OH254632   6.557   2.345  10.126 -0.3226 -0.6019  0.0452
10146TIP3    H154633   6.576   2.301  10.209  2.1622 -1.7346 -1.0029
10146TIP3    H254634   6.502   2.419  10.150 -0.3705 -1.3569  2.5858
10147TIP3   OH254635   0.527   1.534  10.378  0.0569  0.1205 -0.8172
10147TIP3    H154636   0.458   1.468  10.379  0.5952 -0.4831 -2.1421
10147TIP3    H254637   0.608   1.484  10.388  0.3277  0.8567  1.2232
10148TIP3   OH254638   5.272   3.205   8.968 -0.1027  0.3980  0.0794
10148TIP3    H154639   5.233   3.151   9.037  0.0247  2.1951  1.6340
10148TIP3    H254640   5.263   3.152   8.888 -1.2063 -1.3053  1.2641
10149TIP3   OH254641   6.095   7.553  10.514  0.0295 -0.6288 -0.4308
10149TIP3    H154642   6.112   7.642  10.484 -0.0216 -0.7073 -0.6981
10149TIP3    H254643   6.073   7.504  10.434  2.5913 -1.4952 -0.7038
10150TIP3   OH254644   7.801   2.843   9.193 -0.0605 -0.2603 -0.1483
10150TIP3    H154645   7.758   2.766   9.157 -0.0579  0.6391 -2.2715
10150TIP3    H254646   7.882   2.851   9.142 -0.5570  1.6821 -0.7475
10151TIP3   OH254647   6.545   7.653   9.849  0.5305 -0.3891  0.1914
10151TIP3    H154648   6.578   7.740   9.825  1.1002 -0.6150  0.1602
10151TIP3    H254649   6.477   7.634   9.784  2.3248 -1.1768 -1.5353
10152TIP3   OH254650   1.966   4.597   8.881  0.2453 -0.5424 -0.1001
10152TIP3    H154651   2.041   4.540   8.865  0.2443 -0.6683  0.3303
10152TIP3    H254652   1.890   4.539   8.882 -0.0245 -0.2614 -1.7752
10153TIP3   OH254653   4.498   0.901   9.125  0.0318  0.2231  0.2965
10153TIP3    H154654   4.580   0.912   9.173 -0.2607  0.0485  0.8416
10153TIP3    H254655   4.434   0.876   9.192 -0.2256 -0.7479 -0.2912
10154TIP3   OH254656   6.569   0.266  10.618  0.6998 -0.0686  0.3927
10154TIP3    H154657   6.507   0.282  10.689  0.7119  0.8160  0.2148
10154TIP3    H254658   6.639   0.329  10.632  1.2664 -0.6476  0.2338
10155TIP3   OH254659   2.542   4.044   9.001  0.0822  0.3316 -0.5047
10155TIP3    H154660   2.570   4.111   8.939 -0.8657  0.4635 -0.8061
10155TIP3    H254661   2.496   4.093   9.070 -0.3443  0.0249 -0.5659
10156TIP3   OH254662   5.414   2.765  11.160  0.0032  0.4568 -0.0785
10156TIP3    H154663   5.507   2.782  11.146  0.2263  0.3770  1.2441
10156TIP3    H254664   5.408   2.733  11.249 -1.3328  0.7256 -0.0477
10157TIP3   OH254665   4.427   0.855   8.758  0.0591  0.5563 -0.6292
10157TIP3    H154666   4.515   0.872   8.726  0.3876 -0.4232 -0.3055
10157TIP3    H254667   4.393   0.785   8.702 -0.5548  0.9908 -0.8154
10158TIP3   OH254668   5.125   7.666  10.385  0.2756 -0.0669  0.1487
10158TIP3    H154669   5.128   7.577  10.348  0.3862 -1.1900  2.6384
10158TIP3    H254670   5.077   7.655  10.467  1.1446  2.0204  0.9812
10159TIP3   OH254671   2.198   4.693   9.755  0.5060  0.0788  0.1193
10159TIP3    H154672   2.128   4.694   9.820 -0.3088 -1.4469 -0.6816
10159TIP3    H254673   2.188   4.776   9.708 -0.0814  0.3571  0.7140
10160TIP3   OH254674   2.802   7.322  10.275 -0.1634 -0.7339  0.1859
10160TIP3    H154675   2.739   7.356  10.338  1.3632  0.2910  1.2570
10160TIP3    H254676   2.864   7.271  10.328  0.5357 -0.7742 -0.6446
10161TIP3   OH254677   0.944   7.231   9.631  0.0219  0.4958 -0.0900
10161TIP3    H154678   0.910   7.157   9.682  0.3133  0.0187 -0.5842
10161TIP3    H254679   0.929   7.206   9.540  0.4607  0.8847 -0.2718
10162TIP3   OH254680   6.780   0.857  10.302 -0.4678  0.0754 -0.7671
10162TIP3    H154681   6.797   0.916  10.228 -0.4892 -0.1607 -0.9607
10162TIP3    H254682   6.695   0.884  10.335 -2.0195 -1.8936 -2.8559
10163TIP3   OH254683   1.584   5.749  10.294  0.6849 -0.3847  0.0567
10163TIP3    H154684   1.616   5.796  10.217  1.4010 -2.4983 -1.0213
10163TIP3    H254685   1.606   5.806  10.368  1.4675  0.9634 -1.1651
10164TIP3   OH254686   6.553   4.938   8.976  0.2658  0.3131  0.7454
10164TIP3    H154687   6.599   4.916   8.895  0.0872  0.5328  0.5831
10164TIP3    H254688   6.615   4.918   9.046  0.6490  0.7216  0.5234
10165TIP3   OH254689   5.572   1.100  10.774 -0.5265  0.7057 -0.7628
10165TIP3    H154690   5.513   1.138  10.839  0.6470  1.7412 -0.2597
10165TIP3    H254691   5.550   1.007  10.772 -1.2380  0.8357  0.4018
10166TIP3   OH254692   7.644   6.301   9.473  0.1913 -0.2106 -0.2040
10166TIP3    H154693   7.715   6.236   9.472  0.3827 -0.0327  0.5339
10166TIP3    H254694   7.687   6.382   9.503 -0.0839  0.2051 -0.9147
10167TIP3   OH254695   7.327   0.297  10.443 -0.2136 -0.1054  0.2392
10167TIP3    H154696   7.337   0.219  10.496 -1.5543 -0.3239  0.1933
10167TIP3    H254697   7.326   0.370  10.506  1.5444 -0.0357  0.2506
10168TIP3   OH254698   2.520   2.774   9.747  0.2781  0.3979  0.2177
10168TIP3    H154699   2.456   2.705   9.732  2.3358 -1.7143  0.5566
10168TIP3    H254700   2.476   2.836   9.805 -1.6243 -0.6667 -0.0241
10169TIP3   OH254701   4.069   2.057  10.299 -0.0607 -0.6450 -0.1326
10169TIP3    H154702   4.025   1.982  10.339 -0.7434  0.5560  1.4513
10169TIP3    H254703   4.109   2.103  10.372 -1.0513  1.4481 -0.8330
10170TIP3   OH254704   4.075   1.045   9.919  0.5858  0.1184  0.1693
10170TIP3    H154705   4.057   1.084   9.834  1.8786  0.4443  0.0217
10170TIP3    H254706   4.018   0.968   9.923 -0.6315  0.9711 -0.3155
10171TIP3   OH254707   7.404   4.241   8.938 -0.2607 -0.1303  0.0764
10171TIP3    H154708   7.369   4.168   8.888 -0.5791  0.2509 -0.2655
10171TIP3    H254709   7.333   4.265   8.998  0.7638 -1.8073  2.1017
10172TIP3   OH254710   2.590   6.972   9.980  0.5692 -0.2273 -0.1480
10172TIP3    H154711   2.655   7.020  10.032 -0.7811  1.4999  0.0474
10172TIP3    H254712   2.543   6.919  10.044  0.2656  0.3248  0.0991
10173TIP3   OH254713   2.908   2.041  10.611 -0.2801 -0.1780 -0.2936
10173TIP3    H154714   2.837   2.065  10.551 -1.1897 -0.6823  0.5516
10173TIP3    H254715   2.980   2.015  10.554 -0.8720  0.0633 -1.1715
10174TIP3   OH254716   0.383   2.034  10.489 -0.3290 -0.0526  0.3806
10174TIP3    H154717   0.418   2.035  10.578  0.7683  0.7689 -0.0384
10174TIP3    H254718   0.366   2.126  10.470  1.0963 -0.0224 -0.8793
10175TIP3   OH254719   0.884   5.424  10.023  0.1384 -0.2065  0.3657
10175TIP3    H154720   0.875   5.329  10.031 -1.1679 -0.2420 -1.0427
10175TIP3    H254721   0.818   5.459  10.083  0.8582 -0.1551  1.1505
10176TIP3   OH254722   4.476   3.028   9.946 -0.1257  0.2743  0.8580
10176TIP3    H154723   4.412   3.050  10.013 -0.2094 -1.8437  1.5619
10176TIP3    H254724   4.427   2.977   9.881  0.5369 -0.1729  0.6881
10177TIP3   OH254725   3.331   1.008   9.116 -0.3009 -0.2146  0.0170
10177TIP3    H154726   3.407   0.984   9.062 -0.0073  0.3826  0.1578
10177TIP3    H254727   3.361   0.998   9.206 -0.7573 -1.1016  0.0812
10178TIP3   OH254728   0.354   7.749   9.483 -0.0359  0.0669  0.1228
10178TIP3    H154729   0.288   7.682   9.499  0.0439  0.2668  1.3835
10178TIP3    H254730   0.402   7.756   9.565 -0.6982  2.3682  0.3978
10179TIP3   OH254731   0.850   1.636   9.293 -0.1875  0.6019  0.1566
10179TIP3    H154732   0.817   1.546   9.295  1.9986 -0.2838 -0.6082
10179TIP3    H254733   0.820   1.670   9.209 -1.3342  0.7492  0.6065
10180TIP3   OH254734   0.445   5.065  10.960  0.1607 -0.0929 -0.2068
10180TIP3    H154735   0.457   4.970  10.962 -0.4338 -0.1847  2.5819
10180TIP3    H254736   0.405   5.082  10.874 -0.0969 -2.4004 -0.6134
10181TIP3   OH254737   1.003   4.881   9.637  0.3032 -0.0103  0.3901
10181TIP3    H154738   0.993   4.803   9.583  1.8139 -0.3971  0.6339
10181TIP3    H254739   0.915   4.919   9.641 -0.1260 -0.7831 -1.0981
10182TIP3   OH254740   2.993   1.632   9.852 -0.5397 -0.3587 -0.9310
10182TIP3    H154741   3.069   1.656   9.905 -0.1983 -1.1584 -1.0409
10182TIP3    H254742   2.931   1.704   9.864  0.3559  0.4458 -1.0865
10183TIP3   OH254743   2.602   5.034   9.760 -0.5245  0.4051  0.3614
10183TIP3    H154744   2.586   5.006   9.670 -0.4286  2.0096 -0.1970
10183TIP3    H254745   2.697   5.046   9.764 -0.5508  0.5180  0.6159
10184TIP3   OH254746   6.350   6.830   9.880 -0.1134  0.2523 -0.2709
10184TIP3    H154747   6.442   6.849   9.900 -0.4441  3.6908 -1.3197
10184TIP3    H254748   6.312   6.916   9.863 -3.5792 -1.0534  0.1808
10185TIP3   OH254749   7.398   5.175   9.685  0.0064 -0.4103 -0.0461
10185TIP3    H154750   7.324   5.133   9.728  0.4162 -1.3246 -0.2064
10185TIP3    H254751   7.473   5.118   9.705  0.6706  0.5124  0.1378
10186TIP3   OH254752   2.460   4.941   9.039 -0.4114 -0.4359  0.6222
10186TIP3    H154753   2.524   4.900   9.096  0.2080 -0.1810  0.1182
10186TIP3    H254754   2.432   4.871   8.980  1.0337 -0.0490 -0.5819
10187TIP3   OH254755   8.066   8.441  10.333  0.7499 -0.8178 -0.8855
10187TIP3    H154756   8.105   8.474  10.253  0.4918  1.5703 -0.0942
10187TIP3    H254757   8.122   8.474  10.403 -0.9932  0.2119  0.0981
10188TIP3   OH254758   7.367   0.793   9.326  0.1353 -0.2316  0.3979
10188TIP3    H154759   7.288   0.748   9.295 -1.2607  2.4998 -0.3386
10188TIP3    H254760   7.389   0.854   9.255  1.2768  1.0110  1.7617
10189TIP3   OH254761   7.296   7.031   9.616 -0.0412  0.0649  0.3825
10189TIP3    H154762   7.229   7.033   9.547  0.3357  0.3892  0.0239
10189TIP3    H254763   7.282   7.111   9.666  0.7467  0.6548 -0.3341
10190TIP3   OH254764   2.494   6.184   8.812  0.1324 -0.3198 -0.3652
10190TIP3    H154765   2.417   6.133   8.788  0.1473 -0.2814 -0.4919
10190TIP3    H254766   2.496   6.257   8.750 -1.4687  1.4298  1.4685
10191TIP3   OH254767   0.657   0.245  10.123  0.2067  0.3365  0.1142
10191TIP3    H154768   0.616   0.189  10.188  1.4420 -3.1881 -1.8760
10191TIP3    H254769   0.584   0.287  10.077 -0.7613  0.4063  1.6644
10192TIP3   OH254770   4.380   7.361  10.656  0.1320  0.1944 -0.3886
10192TIP3    H154771   4.285   7.368  10.665  0.1638  0.1513 -0.0369
10192TIP3    H254772   4.415   7.431  10.710  0.2536  1.3918 -1.9562
10193TIP3   OH254773   0.485   4.784   9.893 -0.0268 -0.3625  0.4655
10193TIP3    H154774   0.413   4.767   9.832  1.9411  0.4923 -2.2871
10193TIP3    H254775   0.561   4.742   9.853  1.6562  1.4219  1.6244
10194TIP3   OH254776   8.061   3.796  10.466 -0.2021  0.1310 -0.5344
10194TIP3    H154777   8.025   3.708  10.478 -1.2533  0.4890 -0.9609
10194TIP3    H254778   8.133   3.784  10.404 -0.4930 -0.3899 -0.7725
10195TIP3   OH254779   2.592   4.510  10.118  0.1421  0.5280  0.1845
10195TIP3    H154780   2.644   4.477  10.044  0.2448 -0.1630  0.5501
10195TIP3    H254781   2.533   4.574  10.079 -0.9639 -1.0046 -0.8126
10196TIP3   OH254782   1.121   6.226  10.091  0.3438 -0.4136  0.5992
10196TIP3    H154783   1.068   6.166  10.144 -0.5349 -0.0535  0.1526
10196TIP3    H254784   1.112   6.192  10.002  0.8211 -0.3039  0.5072
10197TIP3   OH254785   8.058   5.892   9.446 -0.4364 -0.4575  0.3585
10197TIP3    H154786   8.089   5.803   9.426 -0.5087 -0.5065  0.4570
10197TIP3    H254787   8.044   5.933   9.361  0.3727 -0.2653  0.3107
10198TIP3   OH254788   5.297   3.349   9.799  0.3440  0.1231 -0.2341
10198TIP3    H154789   5.374   3.349   9.743  3.1276 -2.1354  3.1665
10198TIP3    H254790   5.242   3.278   9.765  1.5951 -0.7111 -0.5602
10199TIP3   OH254791   3.803   2.382   9.607 -0.3196  0.2966  0.9076
10199TIP3    H154792   3.716   2.365   9.643 -0.8371  1.1635  0.1270
10199TIP3    H254793   3.800   2.344   9.519 -0.4058  1.5449  0.3525
10200TIP3   OH254794   0.025   2.932   9.258  0.0291 -0.2575  0.3739
10200TIP3    H154795   0.025   2.949   9.352 -0.7864  1.2923  0.1355
10200TIP3    H254796  -0.060   2.966   9.228  0.0654 -1.1776 -0.8445
10201TIP3   OH254797   2.505   2.744  10.289 -0.2507  0.4432 -0.1158
10201TIP3    H154798   2.514   2.724  10.196  0.9779  1.2413 -0.1821
10201TIP3    H254799   2.419   2.787  10.296 -1.0701 -1.0377 -0.6004
10202TIP3   OH254800   0.062   3.117  10.586  0.0250 -0.7462  0.3294
10202TIP3    H154801   0.123   3.058  10.541 -1.1343 -0.5905 -1.5957
10202TIP3    H254802   0.001   3.058  10.630  0.3128 -0.9394  0.4783
10203TIP3   OH254803   1.113   3.328   9.423 -0.4651 -0.2184 -0.5182
10203TIP3    H154804   1.024   3.328   9.459  0.1307 -2.1156  1.1189
10203TIP3    H254805   1.121   3.245   9.376  0.9811 -0.9369  0.9010
10204TIP3   OH254806   3.464   4.339   8.967  0.2392 -0.1839  0.3494
10204TIP3    H154807   3.491   4.251   8.941  0.2620 -0.1012  0.0945
10204TIP3    H254808   3.534   4.397   8.936  0.3914 -0.1109  0.8150
10205TIP3   OH254809   0.311   6.157  11.183 -0.4123  0.5831 -0.3821
10205TIP3    H154810   0.306   6.069  11.146 -1.0223 -0.0948  1.2029
10205TIP3    H254811   0.386   6.197  11.140  0.3129 -0.9668 -0.6199
10206TIP3   OH254812   2.612   3.632   9.696  0.5141 -0.7463  0.0410
10206TIP3    H154813   2.549   3.623   9.768  0.1674  0.5483 -0.0760
10206TIP3    H254814   2.651   3.545   9.687 -1.3997 -1.6475 -0.0056
10207TIP3   OH254815   5.570   3.472   9.134  0.2613 -0.0341 -0.0068
10207TIP3    H154816   5.652   3.496   9.091 -0.4766  2.1958 -0.3109
10207TIP3    H254817   5.542   3.552   9.179 -0.6112 -1.3841  2.0222
10208TIP3   OH254818   4.056   1.450   9.402  0.3689  0.2870  0.2788
10208TIP3    H154819   4.101   1.527   9.437  0.2707  0.4345  0.0850
10208TIP3    H254820   3.971   1.451   9.447  0.4902  0.1123  0.5107
10209TIP3   OH254821   5.792   4.807  10.189  0.2790  0.7264  0.3670
10209TIP3    H154822   5.755   4.720  10.202  0.2968  0.4288 -1.3816
10209TIP3    H254823   5.716   4.865  10.186  0.2149  0.6615  0.7483
10210TIP3   OH254824   0.232   7.753   9.156 -0.6364  0.6218 -0.0653
10210TIP3    H154825   0.222   7.812   9.231  1.2844 -1.2874  1.8051
10210TIP3    H254826   0.309   7.786   9.110 -0.0579  0.0590  0.5008
10211TIP3   OH254827   0.251   6.213   9.781 -0.3494  0.0251 -0.1221
10211TIP3    H154828   0.254   6.136   9.839  0.7774 -1.2383 -1.7664
10211TIP3    H254829   0.158   6.225   9.762 -0.5726 -0.7043  0.4564
10212TIP3   OH254830   1.519   1.961  10.780  0.1056 -0.5523 -0.0340
10212TIP3    H154831   1.433   1.974  10.820 -1.3516 -2.4655 -2.2547
10212TIP3    H254832   1.571   2.035  10.811 -2.8173  1.6682  0.0917
10213TIP3   OH254833   3.357   6.038   9.823 -0.5467 -0.3054  0.2684
10213TIP3    H154834   3.429   6.054   9.884 -0.4392 -0.5255  0.1996
10213TIP3    H254835   3.292   5.990   9.874 -0.7181  0.0385  0.3770
10214TIP3   OH254836   5.954   2.208   9.763  0.5305 -0.3488 -0.2932
10214TIP3    H154837   6.020   2.240   9.702  0.1919 -1.2386 -1.1488
10214TIP3    H254838   5.924   2.287   9.809  0.9499  0.3031 -1.1109
10215TIP3   OH254839   0.032   3.268   9.947  0.6210  0.0927  0.0366
10215TIP3    H154840  -0.015   3.293   9.867  0.3420  0.5236  0.3305
10215TIP3    H254841   0.055   3.176   9.934  0.5592  0.1544 -0.5311
10216TIP3   OH254842   6.414   3.380   9.597  0.5126  0.5504  0.2699
10216TIP3    H154843   6.339   3.409   9.649  0.3360  0.3141  0.1514
10216TIP3    H254844   6.448   3.460   9.557  0.4304  0.6826  0.4637
10217TIP3   OH254845   7.793   3.899  10.347 -0.5413 -0.9061  0.1032
10217TIP3    H154846   7.758   3.848  10.273  0.6704 -1.8935  0.1729
10217TIP3    H254847   7.853   3.838  10.391 -0.1441  0.1458  1.0459
10218TIP3   OH254848   0.556   1.278   9.990  0.0166 -0.2059 -0.6203
10218TIP3    H154849   0.547   1.365  10.028 -0.8438 -0.3424 -0.4864
10218TIP3    H254850   0.593   1.294   9.903 -0.9055  0.3752 -0.9273
10219TIP3   OH254851   7.720   2.973   9.896  0.1708  0.0945  0.0992
10219TIP3    H154852   7.640   2.977   9.843  0.4439 -0.6084 -0.3766
10219TIP3    H254853   7.713   2.892   9.946  0.5245  0.0964  0.1572
10220TIP3   OH254854   7.568   7.952   9.160 -0.9672  0.2088 -0.2034
10220TIP3    H154855   7.642   7.984   9.108 -0.8702 -1.5768 -1.2581
10220TIP3    H254856   7.603   7.943   9.249 -0.1607  0.1811 -0.5174
10221TIP3   OH254857   5.143   6.851   9.565 -0.3797  0.4739 -0.1438
10221TIP3    H154858   5.072   6.915   9.568 -0.7979  0.4919 -4.4705
10221TIP3    H254859   5.101   6.768   9.587 -0.9796  0.9538  0.5646
10222TIP3   OH254860   4.969   0.678   9.378  0.2670  0.0566 -0.0784
10222TIP3    H154861   4.926   0.756   9.343 -0.3805 -0.0017  0.5588
10222TIP3    H254862   4.937   0.671   9.468 -1.9854 -2.5398 -0.9228
10223TIP3   OH254863   4.033   0.577  10.654  0.4439 -0.0394  0.3737
10223TIP3    H154864   3.955   0.619  10.690  0.7659 -0.3805  1.5140
10223TIP3    H254865   3.999   0.507  10.599 -0.0604  0.4455  0.0515
10224TIP3   OH254866   3.311   1.126   8.829 -0.2470  0.2185 -0.4820
10224TIP3    H154867   3.281   1.112   8.919  1.4828 -2.0031 -0.1483
10224TIP3    H254868   3.254   1.071   8.776  0.4748 -0.6719 -0.3623
10225TIP3   OH254869   7.046   6.939   8.882 -0.6290  0.2278 -0.1205
10225TIP3    H154870   7.008   6.911   8.799 -1.1442 -0.3641  0.3000
10225TIP3    H254871   6.973   6.941   8.943 -0.3846  1.3548  0.1640
10226TIP3   OH254872   5.470   1.848   9.980  0.1816 -0.2629  0.1532
10226TIP3    H154873   5.541   1.789  10.003 -0.6565 -1.9196 -1.3077
10226TIP3    H254874   5.447   1.825   9.890 -0.6107  1.8807 -0.2735
10227TIP3   OH254875   3.389   1.200  10.182 -0.1003  0.8132 -0.6340
10227TIP3    H154876   3.418   1.109  10.187 -1.7604  0.3158  1.0872
10227TIP3    H254877   3.325   1.201  10.111 -2.3190 -0.1498  1.1905
10228TIP3   OH254878   7.133   3.784   9.629 -0.0715 -0.5758 -0.0117
10228TIP3    H154879   7.226   3.795   9.647 -0.0376 -1.6454  0.5564
10228TIP3    H254880   7.098   3.744   9.708 -0.9647 -0.4330 -0.3263
10229TIP3   OH254881   4.255   2.715   8.798  0.0754  0.0637 -0.0634
10229TIP3    H154882   4.234   2.744   8.887  0.8101  1.7863 -0.4026
10229TIP3    H254883   4.217   2.627   8.791 -1.1221  0.4135  1.5080
10230TIP3   OH254884   1.695   3.518   9.030 -0.5381 -0.5841 -0.3833
10230TIP3    H154885   1.734   3.497   8.946 -0.8353 -2.8137 -0.0375
10230TIP3    H254886   1.604   3.488   9.023 -0.5080 -1.0268  0.7686
10231TIP3   OH254887   7.261   3.878   9.331  0.1564 -0.1628  0.2694
10231TIP3    H154888   7.171   3.879   9.365 -1.0587 -1.7629 -2.5674
10231TIP3    H254889   7.289   3.787   9.338  0.9022 -0.0009 -0.4971
10232TIP3   OH254890   2.680   1.046   9.502 -0.0290  0.2275 -0.4042
10232TIP3    H154891   2.584   1.048   9.493  0.0627  0.9037 -1.4156
10232TIP3    H254892   2.697   1.103   9.577 -0.4050  0.3772 -0.4271
10233TIP3   OH254893   2.320   2.532  10.044  0.0364 -0.4729  0.4849
10233TIP3    H154894   2.280   2.451  10.015  0.1759 -0.4624  0.2621
10233TIP3    H254895   2.263   2.564  10.114 -1.3343  0.4709 -1.0010
10234TIP3   OH254896   3.235   4.208   9.857  0.7912  0.0102 -0.0770
10234TIP3    H154897   3.245   4.219   9.952  2.6967  0.8353 -0.3273
10234TIP3    H254898   3.325   4.204   9.824  0.1610 -0.1694 -1.8636
10235TIP3   OH254899   3.263   2.124   9.029  0.5186  0.3334  0.0137
10235TIP3    H154900   3.285   2.163   8.944  1.5058  1.6581  0.8290
10235TIP3    H254901   3.194   2.181   9.064 -0.3269 -0.5680 -0.1419
10236TIP3   OH254902   0.685   7.447   9.013  0.4538  0.6336  0.3624
10236TIP3    H154903   0.682   7.450   9.108  1.8645  0.0504  0.4556
10236TIP3    H254904   0.719   7.360   8.993  0.6295  0.9257 -0.6545
10237TIP3   OH254905   4.914   2.590   8.764  0.2240 -0.7835  0.3446
10237TIP3    H154906   4.845   2.657   8.768  1.5019  0.6236 -0.1794
10237TIP3    H254907   4.897   2.544   8.682 -0.9534 -1.4512  0.9426
10238TIP3   OH254908   1.363   2.125   9.999  0.2077 -0.0784 -0.0954
10238TIP3    H154909   1.408   2.209   9.994  1.2990 -0.6829 -0.7027
10238TIP3    H254910   1.416   2.072  10.058 -0.5688 -0.2980  0.4289
10239TIP3   OH254911   5.702   5.414   9.892 -0.1227  0.2273  0.7199
10239TIP3    H154912   5.748   5.403   9.975 -1.3132 -0.9539  1.2605
10239TIP3    H254913   5.747   5.355   9.832  1.5385  1.9903  0.1201
10240TIP3   OH254914   0.775   3.035   9.585 -0.0504 -0.5532 -0.4565
10240TIP3    H154915   0.834   3.051   9.511  1.3315  2.3538  1.0642
10240TIP3    H254916   0.693   3.077   9.561  0.3957  0.3814 -0.3902
10241TIP3   OH254917   4.894   0.218  10.436 -0.0279 -0.2350  0.3170
10241TIP3    H154918   4.917   0.148  10.376  1.0027 -1.9507  2.5910
10241TIP3    H254919   4.863   0.174  10.515  2.0664  1.7527  2.4128
10242TIP3   OH254920   8.435   1.590  10.584  0.0241  0.1568 -0.1920
10242TIP3    H154921   8.438   1.509  10.533  0.7482  0.1644 -0.1745
10242TIP3    H254922   8.342   1.604  10.601 -0.1462 -0.4087 -0.6125
10243TIP3   OH254923   4.482   1.677   8.868  0.3329  0.1075 -0.5488
10243TIP3    H154924   4.508   1.767   8.847  0.5712  0.1569 -0.0450
10243TIP3    H254925   4.564   1.629   8.874  0.2499  0.0293 -0.0231
10244TIP3   OH254926   6.316   4.700  10.236  0.0313  0.7388 -0.4138
10244TIP3    H154927   6.245   4.740  10.186 -0.3933  0.6780  0.1329
10244TIP3    H254928   6.396   4.724  10.188 -0.3095  1.2909 -0.7093
10245TIP3   OH254929   8.272   2.077   9.391 -0.2364  0.3731 -0.4489
10245TIP3    H154930   8.368   2.075   9.385 -0.2473  0.3381 -0.6221
10245TIP3    H254931   8.242   2.054   9.303 -0.4043  0.3351 -0.3821
10246TIP3   OH254932   4.418   3.030  10.719 -0.4559  0.1127 -0.3758
10246TIP3    H154933   4.421   2.939  10.749 -2.0475  0.4564  0.9751
10246TIP3    H254934   4.460   3.080  10.789 -2.7759  0.7602  0.6388
10247TIP3   OH254935   6.843   0.306   9.909  0.0574 -0.0819  0.3228
10247TIP3    H154936   6.821   0.224   9.954 -0.1051  0.0740  0.5231
10247TIP3    H254937   6.759   0.344   9.885  0.1377 -0.6930 -1.0802
10248TIP3   OH254938   7.703   5.406   9.718  0.1184 -0.9030  0.2506
10248TIP3    H154939   7.724   5.435   9.629 -2.7084 -2.8014 -1.1807
10248TIP3    H254940   7.653   5.479   9.756  0.1289 -0.6340 -0.2505
10249TIP3   OH254941   3.523   4.814   9.675 -0.4783 -0.4121 -0.3573
10249TIP3    H154942   3.438   4.807   9.717 -0.2891 -0.7900 -0.0337
10249TIP3    H254943   3.532   4.907   9.654  0.1349  0.1394  1.9700
10250TIP3   OH254944   1.592   1.939   8.722 -0.0236  0.5259  0.2616
10250TIP3    H154945   1.611   1.995   8.647 -1.0034  1.2778  0.5508
10250TIP3    H254946   1.644   1.976   8.793 -1.0495  1.4297  0.5815
10251TIP3   OH254947   0.839   1.174   8.736 -0.3917 -0.2630  0.5879
10251TIP3    H154948   0.767   1.178   8.674 -0.7211 -0.6222  0.9389
10251TIP3    H254949   0.844   1.263   8.772 -1.9734 -0.6924  2.0033
10252TIP3   OH254950   8.294   3.559  10.553 -0.1654 -0.1951 -0.0266
10252TIP3    H154951   8.340   3.494  10.606  0.7048  0.1467 -0.3424
10252TIP3    H254952   8.216   3.580  10.604  0.1025 -0.6739  0.6007
10253TIP3   OH254953   5.043   7.451   8.794  0.1330 -0.4635  0.2560
10253TIP3    H154954   5.114   7.391   8.772  0.4120 -0.1040  0.1569
10253TIP3    H254955   4.967   7.395   8.808  0.3640 -0.8301  0.0543
10254TIP3   OH254956   5.380   8.270   9.815 -0.0913  0.3803  0.5477
10254TIP3    H154957   5.408   8.262   9.724  2.3130 -0.2508  1.2560
10254TIP3    H254958   5.286   8.284   9.811 -0.0923 -0.0029 -2.0137
10255TIP3   OH254959   4.960   1.126  10.137 -0.4407 -0.1735  0.1210
10255TIP3    H154960   5.012   1.085  10.207 -0.2222 -1.2760 -0.6632
10255TIP3    H254961   4.870   1.119  10.168 -0.3979 -1.1648  0.0614
10256TIP3   OH254962   7.692   6.559   9.158 -0.8543 -0.0217 -0.1460
10256TIP3    H154963   7.638   6.481   9.170 -1.4376  0.2533 -0.8991
10256TIP3    H254964   7.666   6.593   9.072  1.4595 -0.6534 -1.2048
10257TIP3   OH254965   7.342   2.722  10.476 -0.0836  0.0357 -0.1060
10257TIP3    H154966   7.328   2.646  10.532  1.3762  0.4532  0.8853
10257TIP3    H254967   7.263   2.774  10.486 -1.3449 -1.5610 -1.2156
10258TIP3   OH254968   4.812   2.769  10.484  0.2361  0.2043 -0.0676
10258TIP3    H154969   4.747   2.824  10.440  0.3667  0.7024  0.3492
10258TIP3    H254970   4.848   2.825  10.552  0.7856 -0.2168 -0.0050
10259TIP3   OH254971   2.576   3.702  10.382  0.2524  0.2694 -0.1713
10259TIP3    H154972   2.670   3.700  10.398  0.6404  2.2601 -1.7434
10259TIP3    H254973   2.560   3.787  10.341 -2.4450  0.5448  1.1605
10260TIP3   OH254974   0.065   1.610   9.165  0.2553  0.4582  0.1352
10260TIP3    H154975   0.059   1.533   9.222  1.7980 -0.0076 -0.2948
10260TIP3    H254976   0.151   1.647   9.183  0.9659  0.0651 -2.1543
10261TIP3   OH254977   2.305   4.190  10.083  0.3753  0.2159 -0.0773
10261TIP3    H154978   2.234   4.253  10.079  0.4123  0.2139 -0.7764
10261TIP3    H254979   2.293   4.135  10.006 -1.7554 -2.8867  2.1806
10262TIP3   OH254980   0.718   6.759   9.282 -0.3430 -0.4241  0.1128
10262TIP3    H154981   0.650   6.708   9.328 -1.5643  0.8567 -0.1955
10262TIP3    H254982   0.720   6.842   9.329  1.1531 -0.4956  0.1987
10263TIP3   OH254983   2.938   6.095  10.363  0.2455  0.2445  0.0584
10263TIP3    H154984   2.963   6.167  10.421 -1.4714  0.3361  0.7474
10263TIP3    H254985   2.893   6.137  10.290  2.6915  0.1669 -1.6399
10264TIP3   OH254986   5.254   8.079  10.191 -0.2884 -0.0906 -0.0449
10264TIP3    H154987   5.190   8.042  10.131 -0.3024  1.1034 -0.8083
10264TIP3    H254988   5.203   8.105  10.267 -1.3426  3.4286 -1.7382
10265TIP3   OH254989   7.491   6.367   9.246  0.2179 -0.1083 -0.0029
10265TIP3    H154990   7.536   6.366   9.331 -0.1553 -0.4570  0.1934
10265TIP3    H254991   7.414   6.423   9.260  1.0176  1.1801 -0.5712
10266TIP3   OH254992   7.541   3.037  10.830  0.2642  0.2119  0.2994
10266TIP3    H154993   7.451   3.070  10.839 -0.0780 -0.7068  0.3469
10266TIP3    H254994   7.573   3.077  10.749 -0.4742 -0.0812 -0.1467
10267TIP3   OH254995   0.044   2.585   9.395 -0.1207  0.0893  0.2789
10267TIP3    H154996   0.106   2.522   9.431  2.0989  0.4290 -2.5633
10267TIP3    H254997   0.094   2.667   9.388 -1.8557  1.2350  0.6824
10268TIP3   OH254998   7.110   7.493   9.748 -0.7463  0.1655 -0.2123
10268TIP3    H154999   7.173   7.563   9.765 -0.7106  0.5353 -1.6953
10268TIP3    H255000   7.037   7.537   9.704 -1.9431 -0.3045  1.2208
10269TIP3   OH255001   3.568   1.229   8.716  0.1100 -0.2949 -0.0914
10269TIP3    H155002   3.476   1.221   8.741  0.7450 -0.4483  2.4562
10269TIP3    H255003   3.615   1.171   8.776  1.8384 -0.7250 -1.7489
10270TIP3   OH255004   0.322   2.234   9.154  0.2264  0.5161 -0.0977
10270TIP3    H155005   0.243   2.246   9.206 -0.1329  1.4324 -0.8193
10270TIP3    H255006   0.305   2.283   9.073  0.4728 -1.4488 -1.4053
10271TIP3   OH255007   0.803   8.198   8.983  0.0510 -0.6295  0.5709
10271TIP3    H155008   0.745   8.240   9.048 -0.7392 -0.2914 -0.3203
10271TIP3    H255009   0.891   8.209   9.018 -0.0004  2.6594 -0.0176
10272TIP3   OH255010   8.005   0.928  10.060 -0.8591  0.1341 -0.5948
10272TIP3    H155011   8.037   1.018  10.065 -1.2367  0.2213  0.6832
10272TIP3    H255012   7.917   0.936  10.025 -0.6543  0.1979 -1.0981
10273TIP3   OH255013   2.398   4.675   9.981  0.6036 -0.8943 -0.0882
10273TIP3    H155014   2.330   4.675   9.914  1.3989  0.6520 -0.9353
10273TIP3    H255015   2.375   4.748  10.038  1.1781 -0.8047  0.0265
10274TIP3   OH255016   2.277   1.121   8.875 -0.2167  0.3331 -0.1112
10274TIP3    H155017   2.295   1.027   8.883 -1.8329  0.0931  1.5514
10274TIP3    H255018   2.355   1.164   8.910  0.0688 -0.4368  0.2160
10275TIP3   OH255019   0.007   3.686  11.407  0.2669 -0.1167 -0.3827
10275TIP3    H155020   0.093   3.675  11.446  0.6377 -0.3403 -1.2538
10275TIP3    H255021  -0.022   3.773  11.437  1.4185  0.6011 -1.2830
10276TIP3   OH255022   5.917   0.338   9.437 -0.8091  0.4771  0.5606
10276TIP3    H155023   6.002   0.299   9.459 -0.7710  0.3462  0.1742
10276TIP3    H255024   5.862   0.318   9.513 -0.2386  1.3550  1.2242
10277TIP3   OH255025   1.008   5.533   9.148 -0.2027  0.4299 -0.0215
10277TIP3    H155026   1.097   5.499   9.152 -0.2791  0.3293  1.8360
10277TIP3    H255027   0.958   5.464   9.104  0.4045 -0.0537  0.0285
10278TIP3   OH255028   5.090   4.267   9.930  0.5542  0.0765  0.5632
10278TIP3    H155029   5.156   4.222   9.984  0.8515 -1.6306 -1.0947
10278TIP3    H255030   5.046   4.196   9.884  1.2325  1.4534 -2.4240
10279TIP3   OH255031   0.147   4.817   8.883 -0.6284 -0.4680 -0.2987
10279TIP3    H155032   0.173   4.737   8.837  0.8449  0.2205 -0.7238
10279TIP3    H255033   0.224   4.874   8.878 -0.9202  0.2016  1.7545
10280TIP3   OH255034   0.973   4.485   9.196 -0.5262  0.2893 -0.1145
10280TIP3    H155035   0.943   4.543   9.125  2.0218 -1.7362 -3.1422
10280TIP3    H255036   1.031   4.539   9.249 -1.2263  1.4681 -0.5223
10281TIP3   OH255037   0.229   3.011  11.343 -0.5127  0.2965 -0.8380
10281TIP3    H155038   0.258   3.094  11.381 -1.0716  0.4974 -0.8400
10281TIP3    H255039   0.240   3.023  11.249  0.2692  0.0325 -0.7834
10282TIP3   OH255040   3.040   3.229  10.062  0.0260 -0.0284  0.2353
10282TIP3    H155041   3.002   3.204   9.978  0.8948  0.4558 -0.3128
10282TIP3    H255042   3.072   3.147  10.099 -2.2822 -0.6133  1.1318
10283TIP3   OH255043   1.054   5.788  10.250 -0.2780  0.3169  0.2547
10283TIP3    H155044   1.044   5.815  10.341  1.6216  2.1064  0.0195
10283TIP3    H255045   1.148   5.774  10.239 -0.5291 -0.3970 -1.3071
10284TIP3   OH255046   3.435   4.721   8.874 -0.0979  0.2343 -0.3213
10284TIP3    H155047   3.373   4.685   8.937  1.4818  1.0057  1.7808
10284TIP3    H255048   3.443   4.814   8.898  1.8863  0.1535 -0.4623
10285TIP3   OH255049   3.559   4.145  10.131  0.1874  0.2686  0.0274
10285TIP3    H155050   3.473   4.185  10.136  0.3290  0.5340  0.3663
10285TIP3    H255051   3.541   4.052  10.119 -0.1984 -0.0653  2.6889
10286TIP3   OH255052   6.364   7.021   8.901 -0.0367 -0.7403 -0.3184
10286TIP3    H155053   6.423   7.074   8.954 -0.0552  1.2229 -2.1723
10286TIP3    H255054   6.297   6.991   8.964  1.0821 -0.2675  1.1565
10287TIP3   OH255055   4.208   8.431  10.147 -0.8876 -0.1578 -0.1034
10287TIP3    H155056   4.190   8.354  10.202 -1.8095 -0.2466 -0.5157
10287TIP3    H255057   4.129   8.442  10.094  0.0086 -0.1265 -1.4875
10288TIP3   OH255058   8.184   4.751   9.276 -0.0774 -0.7599 -0.1083
10288TIP3    H155059   8.119   4.681   9.285 -0.0411 -0.5393  2.5273
10288TIP3    H255060   8.206   4.776   9.366  1.4360  1.2523 -0.9514
10289TIP3   OH255061   5.228   6.404  10.541 -0.2280 -0.4531 -0.1434
10289TIP3    H155062   5.305   6.363  10.501 -0.9504  0.0610 -2.1362
10289TIP3    H255063   5.171   6.330  10.564  1.2555 -0.9260  2.3780
10290TIP3   OH255064   6.483   1.024   8.754 -0.8159  0.4080 -0.1977
10290TIP3    H155065   6.485   1.120   8.752 -0.7997  0.5009  1.6685
10290TIP3    H255066   6.402   1.003   8.800 -2.5669 -0.6595 -3.4704
10291TIP3   OH255067   1.821   0.222   9.684  0.4150  0.3320 -0.5154
10291TIP3    H155068   1.874   0.163   9.738  0.2741 -0.9671 -1.7227
10291TIP3    H255069   1.873   0.302   9.678  0.7279  0.2689  0.9663
10292TIP3   OH255070   4.766   1.163   9.276 -1.0830  0.5010  0.0874
10292TIP3    H155071   4.832   1.221   9.315 -0.8784  1.1440 -1.1597
10292TIP3    H255072   4.682   1.202   9.299 -1.0212  0.1748  0.9198
10293TIP3   OH255073   6.218   1.051  10.169  0.9763 -0.0151  0.5645
10293TIP3    H155074   6.267   1.036  10.088  1.2244  0.8350  0.5501
10293TIP3    H255075   6.271   1.114  10.218  0.8542 -0.5542  1.4163
10294TIP3   OH255076   1.684   8.420   9.745 -0.3025 -0.2177 -0.4540
10294TIP3    H155077   1.614   8.451   9.803 -3.8800  0.1746 -4.4539
10294TIP3    H255078   1.735   8.499   9.726 -0.1869  0.0024  0.6775
10295TIP3   OH255079   6.418   1.437  10.091 -0.0733 -0.1849 -0.3147
10295TIP3    H155080   6.461   1.362  10.130 -1.0988 -2.1535 -2.7132
10295TIP3    H255081   6.331   1.439  10.131  0.1372  0.0657  0.1343
10296TIP3   OH255082   5.872   1.814  10.693  0.1549 -0.2244  0.7971
10296TIP3    H155083   5.905   1.858  10.771 -0.0660 -0.6856  1.1512
10296TIP3    H255084   5.782   1.791  10.714 -0.4783  1.1470 -0.2224
10297TIP3   OH255085   4.011   2.658  10.004  1.0659  0.2803  0.3668
10297TIP3    H155086   3.961   2.641  10.083  0.8537 -0.2004  0.1373
10297TIP3    H255087   3.999   2.579   9.951  0.6413  0.8597 -0.4365
10298TIP3   OH255088   7.403   0.452   9.588  0.7568 -0.0642 -0.2528
10298TIP3    H155089   7.475   0.455   9.651 -0.7292  0.2142  1.5167
10298TIP3    H255090   7.390   0.358   9.572 -0.6799 -0.3679  2.1598
10299TIP3   OH255091   5.471   5.776  10.239 -0.0771  0.6507 -0.2467
10299TIP3    H155092   5.523   5.844  10.280  0.0414  1.0679 -1.0633
10299TIP3    H255093   5.398   5.761  10.298  2.3763 -2.0173  2.4817
10300TIP3   OH255094   3.341   1.989   9.774  0.1676 -0.3673 -0.0625
10300TIP3    H155095   3.317   1.947   9.691  0.9737  1.0905 -1.0691
10300TIP3    H255096   3.259   2.029   9.805 -0.2118 -1.1954  0.0460
10301TIP3   OH255097   1.617   6.216   9.212 -0.0183  0.2038  0.5383
10301TIP3    H155098   1.701   6.254   9.186  0.2480 -1.1839 -0.7988
10301TIP3    H255099   1.640   6.145   9.272 -0.2336 -0.2032  0.1414
10302TIP3   OH255100   0.619   3.351   9.820  0.3237 -0.0617  0.1132
10302TIP3    H155101   0.538   3.402   9.813 -0.6544 -1.5809 -0.0499
10302TIP3    H255102   0.683   3.401   9.769 -1.2889 -0.2968 -2.3358
10303TIP3   OH255103   7.309   1.845   9.089 -0.1153 -0.6373 -0.2506
10303TIP3    H155104   7.250   1.834   9.163  0.0208  0.2327 -0.0023
10303TIP3    H255105   7.308   1.760   9.044 -0.6626 -0.9804  0.3997
10304TIP3   OH255106   0.618   7.989   8.635  0.4926 -0.0994  0.2396
10304TIP3    H155107   0.564   8.032   8.701 -0.3354  0.6035 -0.8456
10304TIP3    H255108   0.672   8.059   8.598 -2.8692  0.8947 -3.5505
10305TIP3   OH255109   6.307   1.999  10.285 -0.0513  0.3068 -0.1128
10305TIP3    H155110   6.298   2.093  10.271 -1.1423  0.7756  2.9687
10305TIP3    H255111   6.401   1.982  10.276  0.3447  1.9548  0.6195
10306TIP3   OH255112   2.722   3.415  10.325 -0.1056  0.2936 -0.6596
10306TIP3    H155113   2.743   3.487  10.265 -0.2964  1.0097  0.1060
10306TIP3    H255114   2.786   3.423  10.396 -0.7357  0.3208 -0.0799
10307TIP3   OH255115   1.267   2.356   9.577 -0.5957 -0.1485  0.2269
10307TIP3    H155116   1.306   2.281   9.533 -0.8606 -0.4411  0.4813
10307TIP3    H255117   1.336   2.389   9.634  0.2491  1.1250 -1.4398
10308TIP3   OH255118   4.102   5.236   9.430  0.0270 -0.1034 -0.3858
10308TIP3    H155119   4.038   5.286   9.379  1.9633  1.5269 -1.3398
10308TIP3    H255120   4.106   5.282   9.514 -0.6965 -0.7633  0.0209
10309TIP3   OH255121   7.333   6.230  10.643  0.2694  0.1911 -0.2019
10309TIP3    H155122   7.399   6.251  10.709 -0.4689  1.0065  0.2976
10309TIP3    H255123   7.324   6.135  10.646 -1.4841  0.3383  2.6327
10310TIP3   OH255124   0.681   4.466   9.420  0.0372 -0.1076  0.0712
10310TIP3    H155125   0.720   4.387   9.382 -1.4820 -1.0510  0.3853
10310TIP3    H255126   0.669   4.525   9.346  0.3806 -0.5139 -0.3123
10311TIP3   OH255127   4.329   0.260  10.045 -0.3210 -0.2356  0.0985
10311TIP3    H155128   4.263   0.190  10.046  0.0398 -0.5823  0.6091
10311TIP3    H255129   4.293   0.328  10.102 -1.6130  0.9233 -1.9751
10312TIP3   OH255130   0.286   3.628  10.047  0.0885  0.5113 -0.3139
10312TIP3    H155131   0.241   3.709  10.021 -0.3505  0.1903 -0.5598
10312TIP3    H255132   0.376   3.656  10.067  0.1769  0.9304 -1.2194
10313TIP3   OH255133   4.754   0.325   9.688 -0.3294 -0.0134  0.5427
10313TIP3    H155134   4.767   0.231   9.681  0.0676  0.1021 -0.4554
10313TIP3    H255135   4.785   0.360   9.604 -1.0328  0.9414  0.6637
10314TIP3   OH255136   5.356   5.019   9.011  0.3104 -0.1754  0.0449
10314TIP3    H155137   5.382   5.094   9.064 -1.4848 -0.1331  0.9423
10314TIP3    H255138   5.298   5.056   8.944 -1.1010 -0.7819  0.8714
10315TIP3   OH255139   3.115   3.977   9.693 -0.0663 -0.4313 -0.1058
10315TIP3    H155140   3.158   3.992   9.609  0.7448  1.3988  0.5718
10315TIP3    H255141   3.133   4.057   9.744 -1.6672 -0.9172  1.3271
10316TIP3   OH255142   3.398   3.904  10.086 -0.0520  0.0029 -0.2762
10316TIP3    H155143   3.311   3.909  10.126 -0.0865 -1.8150 -0.0494
10316TIP3    H255144   3.432   3.818  10.113  1.4811  0.3371 -1.0374
10317TIP3   OH255145   2.988   0.205  10.364  0.2023 -0.0257 -0.2124
10317TIP3    H155146   2.960   0.141  10.429 -0.3514 -0.6443 -1.0439
10317TIP3    H255147   3.012   0.282  10.415 -0.8685 -0.2607  0.6832
10318TIP3   OH255148   2.558   0.722   8.940  0.0056 -0.7448  0.2273
10318TIP3    H155149   2.596   0.790   8.996  1.7835  0.1791 -1.9531
10318TIP3    H255150   2.585   0.640   8.981 -0.4428 -0.1528  1.7850
10319TIP3   OH255151   0.775   2.726   9.653 -1.0344 -0.4756 -0.1907
10319TIP3    H155152   0.800   2.748   9.563 -0.7654 -2.0738 -0.5325
10319TIP3    H255153   0.785   2.631   9.658 -0.9481 -0.4011  1.5672
10320TIP3   OH255154   4.723   3.232   8.672 -0.4553 -0.1748 -0.1226
10320TIP3    H155155   4.628   3.226   8.678 -0.4305 -0.6055 -0.1592
10320TIP3    H255156   4.740   3.326   8.664 -0.9063 -0.1220 -0.5684
10321TIP3   OH255157   6.574   1.157   9.674 -0.1920 -0.3833  0.2284
10321TIP3    H155158   6.652   1.116   9.712  0.3449 -0.3363 -0.7889
10321TIP3    H255159   6.600   1.179   9.584 -1.9738 -2.1801 -0.8109
10322TIP3   OH255160   5.127   7.883   9.672  0.4371  0.2841  0.3957
10322TIP3    H155161   5.142   7.944   9.744  0.7938 -0.8859  1.3258
10322TIP3    H255162   5.035   7.895   9.648  0.1176  0.1500  1.5378
10323TIP3   OH255163   2.784   3.394   9.380  0.0478  0.5664 -1.0084
10323TIP3    H155164   2.707   3.438   9.345  0.3767  2.2858  0.2867
10323TIP3    H255165   2.857   3.448   9.351  0.6209 -0.1023 -0.8252
10324TIP3   OH255166   2.692   1.661   8.289  0.3413 -0.5574  0.2376
10324TIP3    H155167   2.636   1.690   8.217  1.3942  0.5340 -0.1734
10324TIP3    H255168   2.632   1.618   8.350 -0.6125 -1.2595 -1.1481
10325TIP3   OH255169   0.955   7.009  10.289 -0.2093  0.4545  0.2448
10325TIP3    H155170   1.035   7.007  10.341 -0.2361  0.5640  0.2912
10325TIP3    H255171   0.890   6.964  10.344  0.0324 -0.4151 -0.1601
10326TIP3   OH255172   2.211   0.236  10.452  0.0757  0.3675 -0.1206
10326TIP3    H155173   2.252   0.149  10.450  0.7473  0.4855  3.3102
10326TIP3    H255174   2.145   0.232  10.382  0.5593 -2.6367 -0.5573
10327TIP3   OH255175   4.307   5.337   9.276  0.4873  0.0007  0.1872
10327TIP3    H155176   4.222   5.314   9.314 -0.0340  0.6942 -0.5234
10327TIP3    H255177   4.309   5.432   9.278  0.9104  0.0111 -0.5164
10328TIP3   OH255178   6.589   6.441   9.871  0.0227  0.2618 -0.1053
10328TIP3    H155179   6.603   6.418   9.779  1.9386  1.4183 -0.1739
10328TIP3    H255180   6.619   6.365   9.920 -0.5360 -0.1697 -0.4337
10329TIP3   OH255181   1.998   5.827   9.270  0.2885 -0.3823  0.8754
10329TIP3    H155182   1.981   5.733   9.273 -1.8533 -0.0408  2.6474
10329TIP3    H255183   2.009   5.852   9.362  0.1226  1.1886  0.4918
10330TIP3   OH255184   4.994   0.979  10.383 -0.3395  0.2485  0.4286
10330TIP3    H155185   4.935   0.980  10.458 -0.3686  0.7038  0.4011
10330TIP3    H255186   5.071   1.028  10.412  0.1981 -0.6593  0.5969
10331TIP3   OH255187   1.752   5.066   9.316 -0.5116  0.0812  0.0141
10331TIP3    H155188   1.762   5.033   9.405 -0.8670 -1.2877 -0.4179
10331TIP3    H255189   1.828   5.030   9.269  1.6829  3.6557  0.4640
10332TIP3   OH255190   3.005   3.443  10.783 -0.4015  0.8918 -0.1356
10332TIP3    H155191   3.027   3.360  10.825  0.4651  0.6856 -0.9599
10332TIP3    H255192   3.083   3.497  10.795 -0.6767  1.3226 -0.2702
10333TIP3   OH255193   7.319   3.125   9.498 -0.1412  0.3018  1.1065
10333TIP3    H155194   7.395   3.073   9.526  1.5967  1.2320 -1.5177
10333TIP3    H255195   7.311   3.192   9.565  0.5872 -0.5085  2.0448
10334TIP3   OH255196   3.169   1.359   8.784 -0.1517 -0.6166  0.2256
10334TIP3    H155197   3.213   1.430   8.830 -1.5243  0.4107  0.0149
10334TIP3    H255198   3.234   1.289   8.779  1.3173  0.7073  0.2150
10335TIP3   OH255199   5.658   4.661   9.005 -0.4007 -0.7840  0.1904
10335TIP3    H155200   5.730   4.602   9.030 -1.0432 -1.3841  0.6910
10335TIP3    H255201   5.698   4.748   9.001  0.4218 -1.1563  0.1224
10336TIP3   OH255202   6.277   5.411   9.933  0.4004 -0.1695  0.0262
10336TIP3    H155203   6.220   5.487   9.920  1.2539  0.3684 -0.6816
10336TIP3    H255204   6.365   5.445   9.920  0.9408 -0.8745  1.6386
10337TIP3   OH255205   0.111   1.838  10.719 -0.0821  0.0114  0.0092
10337TIP3    H155206   0.064   1.801  10.795  1.9628 -1.2489  0.7427
10337TIP3    H255207   0.104   1.770  10.652  1.0717 -0.4280  0.3059
10338TIP3   OH255208   0.212   0.682  10.486  0.2495 -0.3510  0.3754
10338TIP3    H155209   0.143   0.710  10.546  0.1092 -0.8035  0.4280
10338TIP3    H255210   0.268   0.624  10.538 -0.7051 -1.9461 -0.2937
10339TIP3   OH255211   5.386   5.484  10.064 -0.5248 -0.1453 -0.1170
10339TIP3    H155212   5.333   5.454  10.138 -2.0299  0.5404 -0.8732
10339TIP3    H255213   5.349   5.439   9.989  0.3913 -0.1168 -0.5993
10340TIP3   OH255214   8.288   6.642   9.584 -0.1043 -0.0240 -0.5062
10340TIP3    H155215   8.275   6.626   9.490  1.7486 -2.2149 -0.4789
10340TIP3    H255216   8.217   6.593   9.626 -0.1993 -0.0741 -0.7208
10341TIP3   OH255217   4.410   5.195  10.248  0.4884 -0.0687  0.0505
10341TIP3    H155218   4.328   5.180  10.296 -0.9381  1.4466 -1.7546
10341TIP3    H255219   4.478   5.155  10.303 -1.4504 -1.4528  1.5745
10342TIP3   OH255220   6.723   5.907  10.111  0.2153  0.0238  0.2109
10342TIP3    H155221   6.690   5.900  10.021 -0.0218  0.2828  0.2759
10342TIP3    H255222   6.816   5.927  10.101 -0.2100  2.0907 -0.0061
10343TIP3   OH255223   8.078   0.883  10.357  0.3592  0.2914  0.1727
10343TIP3    H155224   8.048   0.797  10.330  0.0381  0.5029 -0.1396
10343TIP3    H255225   8.072   0.937  10.279  1.7512  0.2893  0.0334
10344TIP3   OH255226   4.718   5.405  10.012 -0.5777  0.1923 -0.1365
10344TIP3    H155227   4.633   5.422   9.972 -0.5650 -0.1742 -0.3263
10344TIP3    H255228   4.728   5.310  10.006  0.0611  0.2852 -0.5477
10345TIP3   OH255229   7.673   4.962  10.229  0.1646  0.0239 -0.0500
10345TIP3    H155230   7.629   4.924  10.153 -1.2359 -1.2148  1.3176
10345TIP3    H255231   7.614   5.030  10.260  0.5355  0.2487  0.1682
10346TIP3   OH255232   2.267   6.662  10.017  0.5798  0.0805  0.7950
10346TIP3    H155233   2.286   6.579  10.061 -2.9477 -1.5371 -0.3120
10346TIP3    H255234   2.217   6.637   9.939  0.7066  3.1985 -0.4472
10347TIP3   OH255235   2.400   6.433  10.410  0.2871 -0.2719 -0.1092
10347TIP3    H155236   2.405   6.527  10.426 -0.3731  0.2999 -2.7965
10347TIP3    H255237   2.487   6.400  10.435  0.7570  1.1462  0.1994
10348TIP3   OH255238   7.857   6.192  10.559 -0.3805 -0.5869 -0.1061
10348TIP3    H155239   7.800   6.247  10.506  2.8866  2.4750 -0.8621
10348TIP3    H255240   7.845   6.225  10.649 -0.7589 -0.8757 -0.0494
10349TIP3   OH255241   3.977   6.930   9.049 -0.1205  0.3234  0.1973
10349TIP3    H155242   3.919   6.854   9.046  0.1213  0.1682 -1.3656
10349TIP3    H255243   3.918   7.005   9.036 -0.0878  0.2217 -0.5908
10350TIP3   OH255244   7.625   0.172  10.122  0.2758  0.3695  0.2756
10350TIP3    H155245   7.566   0.098  10.108  0.0798  0.4923  0.4600
10350TIP3    H255246   7.711   0.131  10.132  0.3636  0.2407 -0.8203
10351TIP3   OH255247   0.800   7.826  10.558  0.3709  0.3714 -0.4414
10351TIP3    H155248   0.830   7.805  10.470  0.8111 -1.2160  0.0686
10351TIP3    H255249   0.878   7.819  10.614  0.0288  1.0065  0.1386
10352TIP3   OH255250   4.286   1.953  10.972 -0.0601  0.1812  0.5279
10352TIP3    H155251   4.320   1.865  10.989  2.6952  0.9634 -0.4166
10352TIP3    H255252   4.227   1.971  11.046  1.5018 -1.3926  2.2558
10353TIP3   OH255253   0.096   6.799   9.847  0.1774  0.2397 -0.4450
10353TIP3    H155254   0.165   6.823   9.785  0.2034 -0.4071 -0.6667
10353TIP3    H255255   0.065   6.714   9.818 -0.4110  0.3216 -0.0772
10354TIP3   OH255256   4.248   5.618  10.638  0.3499 -0.4640  0.1623
10354TIP3    H155257   4.184   5.681  10.603  0.2520 -0.5616  0.1666
10354TIP3    H255258   4.197   5.562  10.696 -0.6865 -3.7170 -3.4917
10355TIP3   OH255259   1.257   2.778   9.568  0.4026  0.0420  0.3820
10355TIP3    H155260   1.271   2.775   9.663  2.0087  1.1715  0.2157
10355TIP3    H255261   1.213   2.861   9.553  1.2913  0.4502  0.0165
10356TIP3   OH255262   2.888   8.094   8.968 -0.1571 -0.3696 -0.3539
10356TIP3    H155263   2.977   8.078   8.935 -0.1803 -1.8382  0.2468
10356TIP3    H255264   2.854   8.163   8.911  1.5714  0.6601 -0.2156
10357TIP3   OH255265   1.877   4.570  11.068  0.8517 -0.5709  0.1563
10357TIP3    H155266   1.785   4.558  11.090  0.6920  1.2999  0.6632
10357TIP3    H255267   1.875   4.596  10.975  0.7193  0.8214  0.5249
10358TIP3   OH255268   4.100   2.937  10.467 -0.1249 -0.1512  0.0729
10358TIP3    H155269   4.046   3.013  10.491  0.8523  0.3847  0.6736
10358TIP3    H255270   4.038   2.872  10.435 -1.0370  0.7269  0.0135
10359TIP3   OH255271   7.349   4.457   9.329 -0.1022  0.2441 -0.4117
10359TIP3    H155272   7.264   4.480   9.367 -0.4859  0.8193 -1.5943
10359TIP3    H255273   7.413   4.488   9.393 -0.7295  1.4825 -0.3595
10360TIP3   OH255274   4.563   4.959  10.679  0.0298  0.6232  0.0166
10360TIP3    H155275   4.634   4.927  10.736 -0.3877  0.6073  0.5379
10360TIP3    H255276   4.485   4.954  10.734 -0.5860 -0.4531 -0.9161
10361TIP3   OH255277   7.964   2.926  10.706  0.2981 -0.2582 -0.5864
10361TIP3    H155278   7.872   2.945  10.725  0.5601 -0.6688  1.3526
10361TIP3    H255279   7.973   2.940  10.612 -1.2295  1.9312 -0.4747
10362TIP3   OH255280   1.977   4.399  10.773  0.2284 -0.4792 -0.0641
10362TIP3    H155281   1.933   4.484  10.768 -0.6100 -0.9211 -0.7101
10362TIP3    H255282   2.025   4.401  10.855  0.9127  0.9319 -0.4577
10363TIP3   OH255283   3.727   5.549   9.689  0.1927  0.5149 -0.0588
10363TIP3    H155284   3.687   5.631   9.718 -1.0457 -0.1282  0.1030
10363TIP3    H255285   3.656   5.502   9.645  1.3268  0.2799 -1.7221
10364TIP3   OH255286   0.127   6.370  11.208 -0.3806 -0.2135 -0.0493
10364TIP3    H155287   0.126   6.365  11.304  0.2178  2.9354  0.2238
10364TIP3    H255288   0.194   6.308  11.181 -2.8979 -3.8484  1.1859
10365TIP3   OH255289   0.363   1.677   9.913  0.0788 -0.3042  0.7940
10365TIP3    H155290   0.278   1.656   9.875  0.5757  0.3221 -0.7570
10365TIP3    H255291   0.369   1.772   9.907  1.3696 -0.4214 -0.2565
10366TIP3   OH255292   8.382   0.566   9.117  0.0784 -0.1131 -0.3689
10366TIP3    H155293   8.287   0.577   9.116 -0.0223 -0.8277  0.2360
10366TIP3    H255294   8.399   0.511   9.194  0.8808 -0.8769 -1.0652
10367TIP3   OH255295   6.731   1.416   9.491  0.4077  0.8030 -0.0673
10367TIP3    H155296   6.787   1.347   9.527  0.1853  0.5277 -0.2513
10367TIP3    H255297   6.772   1.441   9.409  0.5301  0.9457  0.0363
10368TIP3   OH255298   3.983   1.102   8.800  0.2320  0.2192 -0.1760
10368TIP3    H155299   4.072   1.083   8.828 -0.7930 -1.8812  1.9934
10368TIP3    H255300   3.985   1.194   8.774  2.2778  1.3166  3.2149
10369TIP3   OH255301   4.123   1.875   8.939  0.1954 -0.6589 -0.4331
10369TIP3    H155302   4.206   1.912   8.970 -0.0795 -0.8500  0.6001
10369TIP3    H255303   4.077   1.851   9.020 -1.3134  0.3876 -0.9394
10370TIP3   OH255304   4.698   2.581  10.239 -0.6146 -0.0688  0.6831
10370TIP3    H155305   4.715   2.673  10.260  1.0076 -0.1157 -0.2531
10370TIP3    H255306   4.746   2.532  10.306 -0.1074 -0.2241  0.2107
10371TIP3   OH255307   5.566   5.665   9.871 -0.2114  0.2240 -0.0574
10371TIP3    H155308   5.544   5.644   9.780 -0.5929  1.5443 -0.2875
10371TIP3    H255309   5.627   5.596   9.897  0.8433  0.4909 -1.7052
10372TIP3   OH255310   6.251   4.442  10.252  0.0885  0.4287 -0.5511
10372TIP3    H155311   6.203   4.431  10.170  1.2594  0.5702 -1.2778
10372TIP3    H255312   6.256   4.536  10.266  3.1354  0.6832 -2.3796
10373TIP3   OH255313   8.219   8.105  10.423  0.0605  0.1018  0.0414
10373TIP3    H155314   8.221   8.062  10.338 -0.6014  1.8621 -0.9032
10373TIP3    H255315   8.188   8.037  10.483  0.2191 -1.0737 -1.1661
10374TIP3   OH255316   7.494   8.175   9.566 -0.2168 -0.7003 -0.3899
10374TIP3    H155317   7.438   8.239   9.522  1.1063 -0.7593 -2.2708
10374TIP3    H255318   7.583   8.204   9.545  0.4214 -2.6652 -0.5395
10375TIP3   OH255319   1.862   6.286  10.449  0.1338 -0.0280 -0.4754
10375TIP3    H155320   1.773   6.252  10.448 -0.0485  0.4049  0.4938
10375TIP3    H255321   1.868   6.336  10.530  0.6271  1.6350 -1.5032
10376TIP3   OH255322   0.945   7.797   9.975  0.0017  0.1390  0.0914
10376TIP3    H155323   0.911   7.794   9.885 -0.6261  0.9834  0.2931
10376TIP3    H255324   0.945   7.705  10.003  0.9050 -0.2278 -1.0170
10377TIP3   OH255325   3.437   2.574   9.402 -0.3456 -0.0713  0.1752
10377TIP3    H155326   3.440   2.509   9.331 -0.4375 -0.0950  0.1921
10377TIP3    H255327   3.527   2.582   9.432  0.0729  1.5316 -1.3809
10378TIP3   OH255328   2.964   5.512   9.219  0.2406  0.1673 -0.2202
10378TIP3    H155329   2.990   5.432   9.173  0.4604 -0.2891  0.6543
10378TIP3    H255330   2.981   5.583   9.157  0.0500 -0.4646 -1.0050
10379TIP3   OH255331   3.500   0.548   8.795 -0.6089  0.5985  0.1283
10379TIP3    H155332   3.436   0.479   8.776 -0.5577  0.6089 -0.0828
10379TIP3    H255333   3.551   0.556   8.714  1.2750 -1.1192  1.0409
10380TIP3   OH255334   7.103   3.027   9.690  0.0027 -0.3514  0.0216
10380TIP3    H155335   7.150   2.947   9.715 -0.6799 -0.2525  1.7286
10380TIP3    H255336   7.113   3.032   9.595  1.8884 -1.3052  0.1268
10381TIP3   OH255337   7.020   7.364  10.047 -0.0690 -0.4810 -0.0891
10381TIP3    H155338   6.935   7.405  10.031  0.5475  0.1882 -1.9273
10381TIP3    H255339   7.024   7.291   9.985  0.4635 -0.8715  0.3954
10382TIP3   OH255340   3.332   5.294   8.927 -0.2711 -1.0409  0.4985
10382TIP3    H155341   3.413   5.255   8.961 -0.5389 -1.7831  0.3094
10382TIP3    H255342   3.345   5.388   8.937 -0.1596 -1.2132  2.2646
10383TIP3   OH255343   3.875   7.802  10.779  0.4123  0.3530 -0.0274
10383TIP3    H155344   3.906   7.890  10.760  0.1684  0.7182  1.1728
10383TIP3    H255345   3.920   7.777  10.860 -0.5289 -0.0698  0.3965
10384TIP3   OH255346   5.361   4.102   9.286 -0.6730 -0.0308 -0.1771
10384TIP3    H155347   5.424   4.164   9.322  0.6347 -1.3069 -0.1653
10384TIP3    H255348   5.413   4.025   9.263 -2.3168 -1.4163  0.4677
10385TIP3   OH255349   7.931   1.446   9.478 -0.1738  0.3894 -0.5405
10385TIP3    H155350   7.966   1.449   9.389  0.6270 -3.2835 -0.4957
10385TIP3    H255351   7.971   1.368   9.517 -2.9400  0.0605  1.9736
10386TIP3   OH255352   2.238   8.020  10.283  0.1134 -0.2305 -0.3863
10386TIP3    H155353   2.265   8.036  10.373  2.2386 -0.5270 -0.9260
10386TIP3    H255354   2.207   8.106  10.252 -3.0628 -0.6068  1.2920
10387TIP3   OH255355   2.813   5.251   9.923 -0.2718  0.1709  0.3706
10387TIP3    H155356   2.823   5.279   9.832  2.4603 -0.2719  0.4540
10387TIP3    H255357   2.798   5.332   9.972 -1.0299  0.4890 -0.3572
10388TIP3   OH255358   5.696   3.313   8.872  0.0226 -0.0503 -0.3689
10388TIP3    H155359   5.626   3.358   8.825 -0.8054 -0.3859  0.4963
10388TIP3    H255360   5.664   3.223   8.882  0.4674 -0.1516  0.2326
10389TIP3   OH255361   3.240   3.079   9.880 -0.5660  0.7918 -0.0728
10389TIP3    H155362   3.148   3.066   9.856 -0.4202  0.5697 -0.5174
10389TIP3    H255363   3.247   3.044   9.969 -0.3026 -1.8048 -1.0370
10390TIP3   OH255364   0.077   7.370   9.754 -0.2833 -0.1229  0.4710
10390TIP3    H155365  -0.012   7.362   9.719  1.0819 -0.2683 -3.5758
10390TIP3    H255366   0.100   7.281   9.781 -0.4741 -0.7009 -1.1525
10391TIP3   OH255367   1.689   4.747  10.194  0.1293 -0.1323 -0.4032
10391TIP3    H155368   1.720   4.833  10.164  1.1305 -0.3796 -0.0946
10391TIP3    H255369   1.768   4.697  10.209 -0.4579 -1.1994 -0.8030
10392TIP3   OH255370   2.889   0.912   8.887  0.5225 -0.2278 -0.1673
10392TIP3    H155371   2.969   0.937   8.933  0.3200  0.0842  0.0165
10392TIP3    H255372   2.855   0.838   8.938 -0.6257  1.1970  1.2424
10393TIP3   OH255373   5.745   2.574  10.134 -0.0265 -0.4084 -0.0693
10393TIP3    H155374   5.806   2.549  10.204 -0.1958 -1.9957 -0.4589
10393TIP3    H255375   5.659   2.569  10.175  0.0063  0.9727  0.2322
10394TIP3   OH255376   3.852   8.147   9.788  0.0903 -0.0765 -0.5439
10394TIP3    H155377   3.832   8.116   9.700 -0.9966 -0.7554 -0.0761
10394TIP3    H255378   3.905   8.077   9.826  1.4782  0.6933 -1.0001
10395TIP3   OH255379   6.595   0.215  10.176 -0.1124 -0.5528 -0.0120
10395TIP3    H155380   6.656   0.180  10.112 -0.0608  0.3440 -0.4768
10395TIP3    H255381   6.642   0.288  10.216 -0.7579 -0.0439 -0.1599
10396TIP3   OH255382   2.430   6.060   9.578  0.4743 -0.4063  0.1238
10396TIP3    H155383   2.508   6.007   9.596  1.7716  0.6928 -1.9651
10396TIP3    H255384   2.387   6.016   9.505  0.9434  0.7360 -0.8715
10397TIP3   OH255385   3.546   4.586   9.113 -0.1000 -0.2816  0.1311
10397TIP3    H155386   3.608   4.564   9.044 -0.2442  0.7854 -0.3558
10397TIP3    H255387   3.548   4.682   9.118 -1.6681 -0.2188  0.1201
10398TIP3   OH255388   6.792   3.752  10.711 -0.4962  0.1681  0.4558
10398TIP3    H155389   6.837   3.724  10.791  1.4592  1.8078 -0.0030
10398TIP3    H255390   6.707   3.708  10.715  0.9891 -2.8881  1.5030
10399TIP3   OH255391   5.375   4.834  10.139  1.0236 -0.1564 -0.4531
10399TIP3    H155392   5.448   4.894  10.152  1.2207 -0.5269  0.1985
10399TIP3    H255393   5.369   4.785  10.221  0.0784 -0.1675 -0.5099
10400TIP3   OH255394   8.358   8.170   8.864 -0.3902 -0.6052 -0.4063
10400TIP3    H155395   8.432   8.229   8.853  0.8128 -1.9525  0.0407
10400TIP3    H255396   8.315   8.199   8.944  0.1594 -0.3128 -0.2154
10401TIP3   OH255397   4.432   6.899   9.641 -0.2307  0.3608 -0.1230
10401TIP3    H155398   4.374   6.892   9.564 -1.2008  1.8024  0.4198
10401TIP3    H255399   4.403   6.980   9.684  0.4808 -0.2771  1.6109
10402TIP3   OH255400   0.445   4.479  10.516 -0.1581  0.2502  0.5197
10402TIP3    H155401   0.538   4.464  10.498 -0.0839  0.4359  0.7405
10402TIP3    H255402   0.436   4.575  10.516 -0.1964  0.2500  1.2514
10403TIP3   OH255403   1.045   0.024   9.995 -0.0624  0.2296 -0.2176
10403TIP3    H155404   1.058   0.040  10.088  1.7190 -0.4400 -0.3202
10403TIP3    H255405   0.982   0.091   9.968  0.8021  1.6250  1.0847
10404TIP3   OH255406   8.269   3.320  10.882 -0.3172 -0.1628 -0.6564
10404TIP3    H155407   8.313   3.322  10.797  1.0046  0.5255  0.0061
10404TIP3    H255408   8.176   3.330  10.861 -0.3917 -3.1415 -2.2151
10405TIP3   OH255409   7.864   4.850   9.283  0.2318  0.6341 -0.0322
10405TIP3    H155410   7.794   4.799   9.243 -0.3295  2.5122 -1.5837
10405TIP3    H255411   7.944   4.817   9.242 -0.0244  0.3084 -0.2781
10406TIP3   OH255412   7.563   4.349  10.871 -0.3646 -0.2407 -0.7465
10406TIP3    H155413   7.484   4.388  10.834 -0.8752  1.5349  1.8940
10406TIP3    H255414   7.534   4.266  10.909 -1.0143  0.4339  0.2694
10407TIP3   OH255415   2.790   3.729  10.055  0.0112 -0.1529  0.1861
10407TIP3    H155416   2.849   3.765   9.989  1.0253 -0.2144  1.0495
10407TIP3    H255417   2.818   3.639  10.066 -1.3665 -0.7177 -0.6416
10408TIP3   OH255418   6.172   5.935   8.984  0.0888 -0.5545  0.3148
10408TIP3    H155419   6.185   5.984   8.903  1.9441  1.4159  1.6741
10408TIP3    H255420   6.083   5.955   9.011 -0.1156 -0.2129 -0.5943
10409TIP3   OH255421   8.177   0.890  11.378 -0.2512 -0.2252 -0.9616
10409TIP3    H155422   8.229   0.809  11.374  0.6023  0.1173  1.3875
10409TIP3    H255423   8.242   0.960  11.373 -0.9039  0.3328 -2.0179
10410TIP3   OH255424   5.189   1.565   9.535 -0.0504 -0.0366 -0.3387
10410TIP3    H155425   5.142   1.648   9.541  1.0173  0.4992  1.5308
10410TIP3    H255426   5.277   1.589   9.506 -0.1883 -0.7401 -1.4049
10411TIP3   OH255427   0.295   2.922   8.865  0.0305 -0.2550  0.1759
10411TIP3    H155428   0.387   2.900   8.851  0.0861 -1.0281  1.5758
10411TIP3    H255429   0.296   2.999   8.921 -0.1394 -1.4824  1.9273
10412TIP3   OH255430   4.506   1.276  10.494  0.3929  0.2801 -0.5816
10412TIP3    H155431   4.419   1.248  10.522 -0.2054  0.8870 -1.7517
10412TIP3    H255432   4.545   1.199  10.453  0.3146  0.0693 -0.2567
10413TIP3   OH255433   0.095   6.563   9.562 -0.1745 -0.7685 -0.2246
10413TIP3    H155434   0.010   6.597   9.592  0.0608 -0.1637 -0.2257
10413TIP3    H255435   0.110   6.608   9.479  1.7447  1.8000  1.3872
10414TIP3   OH255436   6.971   4.008   9.639  0.3888  0.2670 -0.0699
10414TIP3    H155437   7.045   3.954   9.667 -0.3665 -1.0807 -0.5880
10414TIP3    H255438   6.949   3.976   9.552 -1.4235 -0.0540  0.4694
10415TIP3   OH255439   1.862   2.285  10.986  0.2950 -0.4825 -0.2075
10415TIP3    H155440   1.901   2.342  11.052 -0.0787 -0.2696 -0.1676
10415TIP3    H255441   1.931   2.221  10.965  0.0798 -1.1969  1.1500
10416TIP3   OH255442   2.713   2.874   8.966 -0.0512  0.5048 -0.0597
10416TIP3    H155443   2.779   2.820   8.923 -1.3763 -0.4662 -0.9655
10416TIP3    H255444   2.747   2.963   8.958  1.3838 -0.0058 -0.0299
10417TIP3   OH255445   4.719   3.067   8.950  0.5468  0.2099  0.5459
10417TIP3    H155446   4.716   3.027   8.863  0.5987  2.7094 -0.6728
10417TIP3    H255447   4.796   3.123   8.949 -0.5629  1.8526  1.4184
10418TIP3   OH255448   7.457   1.557   9.649 -0.3502  0.4870  0.5408
10418TIP3    H155449   7.448   1.465   9.626  1.5356  0.3520  0.1575
10418TIP3    H255450   7.467   1.558   9.744  1.1628  0.1108  0.4105
10419TIP3   OH255451   1.752   4.249  10.703  0.1751  0.1221 -0.0004
10419TIP3    H155452   1.776   4.179  10.642  0.1285 -1.5122  1.7490
10419TIP3    H255453   1.833   4.295  10.720  0.5287 -0.4878 -0.0017
10420TIP3   OH255454   7.792   1.462   9.718  0.6808  0.1042 -0.1658
10420TIP3    H155455   7.769   1.376   9.753 -2.7447  0.5935 -0.8576
10420TIP3    H255456   7.817   1.446   9.627  1.1218 -0.2492  0.0145
10421TIP3   OH255457   5.064   5.422   9.255  0.1116  0.8431  0.5341
10421TIP3    H155458   5.156   5.436   9.279  0.4633 -0.5404  0.0956
10421TIP3    H255459   5.067   5.387   9.166 -0.8381  0.6510  0.5654
10422TIP3   OH255460   2.947   7.631  10.285  0.1371 -0.1538  0.3843
10422TIP3    H155461   3.006   7.567  10.246  1.2321  0.9618  0.1648
10422TIP3    H255462   2.914   7.588  10.364 -1.3115 -2.0438 -1.1228
10423TIP3   OH255463   8.355   1.745  10.091 -0.2203 -0.2107 -0.2867
10423TIP3    H155464   8.400   1.719  10.010 -0.3248 -1.6236  0.0690
10423TIP3    H255465   8.262   1.743  10.068 -0.2213  0.0637 -0.3084
10424TIP3   OH255466   7.125   6.630   9.077  0.0517  0.2083  0.1470
10424TIP3    H155467   7.165   6.573   9.143 -0.4549 -1.7929 -1.1703
10424TIP3    H255468   7.199   6.674   9.035  0.9223 -2.4388 -1.3606
10425TIP3   OH255469   1.864   5.920   9.060  0.0582  0.3391 -0.0931
10425TIP3    H155470   1.771   5.927   9.082  0.0280  0.3651 -0.2309
10425TIP3    H255471   1.904   5.882   9.139  0.0352  0.9243  0.2013
10426TIP3   OH255472   5.131   4.868   9.445 -0.2576  0.1545 -0.0975
10426TIP3    H155473   5.064   4.803   9.423 -0.1326  0.1338 -0.4296
10426TIP3    H255474   5.086   4.952   9.439 -0.3555  0.1164  0.0846
10427TIP3   OH255475   5.021   5.143  10.307 -0.1975 -0.3582 -0.1824
10427TIP3    H155476   4.997   5.054  10.282  0.5471 -0.5878 -0.1268
10427TIP3    H255477   5.054   5.134  10.396  1.8900 -0.4089 -0.9046
10428TIP3   OH255478   1.753   3.524   9.446 -0.2868  0.0310 -0.3614
10428TIP3    H155479   1.827   3.464   9.432  0.3885  1.0634 -1.4256
10428TIP3    H255480   1.691   3.473   9.498 -0.6770 -2.3704 -2.9301
10429TIP3   OH255481   3.825   1.764   9.069 -0.3670 -0.1936 -0.6629
10429TIP3    H155482   3.852   1.741   8.980 -2.4296 -0.8837 -1.1605
10429TIP3    H255483   3.730   1.751   9.070 -0.4457  0.0977  1.5570
10430TIP3   OH255484   0.420   3.210  11.319  0.3000  0.1345 -0.3443
10430TIP3    H155485   0.471   3.131  11.300  0.8885  0.3121  0.4213
10430TIP3    H255486   0.486   3.276  11.341 -0.0871  1.2379 -2.2465
10431TIP3   OH255487   7.467   0.346  11.111  0.0261  0.4593 -0.0128
10431TIP3    H155488   7.550   0.355  11.158 -0.1099  0.8724  0.1572
10431TIP3    H255489   7.401   0.380  11.173 -0.2996 -0.0765 -0.0551
10432TIP3   OH255490   3.003   7.309  10.448 -0.1578 -0.5324  0.5748
10432TIP3    H155491   2.950   7.385  10.472 -1.1157 -0.9950 -0.0171
10432TIP3    H255492   3.066   7.343  10.385 -0.4511 -0.1798  0.4663
10433TIP3   OH255493   5.304   6.742   9.359  1.3632 -0.1796 -0.1464
10433TIP3    H155494   5.270   6.805   9.422  1.6504  1.3199 -1.4282
10433TIP3    H255495   5.228   6.718   9.306  1.3103 -0.7252  0.1678
10434TIP3   OH255496   1.336   2.448   8.651  0.1194 -0.1559  0.0470
10434TIP3    H155497   1.263   2.422   8.707 -0.7540 -0.8491 -1.3509
10434TIP3    H255498   1.332   2.544   8.649  1.6996  0.1052  3.0772
10435TIP3   OH255499   1.756   3.468   8.785  0.2184  0.7719 -0.6206
10435TIP3    H155500   1.682   3.479   8.725 -0.6794  2.2924  0.6661
10435TIP3    H255501   1.834   3.474   8.730 -0.5826 -0.6266 -1.9762
10436TIP3   OH255502   8.366   0.826  10.411 -0.2693 -0.4598  0.3027
10436TIP3    H155503   8.284   0.867  10.381  0.4931  2.2260  1.5867
10436TIP3    H255504   8.341   0.779  10.490 -0.7880 -0.6535  0.0297
10437TIP3   OH255505   0.234   0.613  10.977  0.0506  0.6207  0.6411
10437TIP3    H155506   0.175   0.661  11.034 -0.4222 -1.0625  1.6478
10437TIP3    H255507   0.182   0.592  10.899 -0.4981 -0.2780  1.2347
10438TIP3   OH255508   4.282   0.427  11.109 -0.1277 -0.4578  0.2849
10438TIP3    H155509   4.335   0.505  11.126 -0.2956  0.2119 -1.9638
10438TIP3    H255510   4.324   0.385  11.034  0.0219 -2.6499  1.4928
10439TIP3   OH255511   2.487   4.163   9.233 -0.7684 -1.1493  0.3592
10439TIP3    H155512   2.486   4.253   9.200 -1.3142 -1.2834 -0.0038
10439TIP3    H255513   2.407   4.156   9.285 -1.5312 -1.8733 -0.8718
   8.44854   8.44854  30.00000
